Control file title. For DL_FIELD 4.10
49938
    1MOL     C1    1   7.110   2.082   7.737  0.3779  0.5273  0.1219
    1MOL     O2    2   7.176   2.174   0.030  0.0205  0.3084  0.1851
    1MOL     H3    3   7.164   2.066   7.644  0.0790  0.4293 -0.0353
    1MOL     H4    4   7.094   1.997   0.019  0.8863  0.3893  0.0643
    1MOL     H5    5   7.009   2.119   7.715  0.5854  2.1498  1.7428
    1MOL     C6    6   7.312   2.149   0.051 -0.0839  0.3153 -0.7812
    1MOL     O7    7   7.333   2.018   0.094 -0.2775  0.0967  0.7061
    1MOL     H8    8   7.348   2.232   0.111 -0.6302 -0.1922  0.2621
    1MOL     H9    9   7.359   2.155   7.736 -0.5538  0.0177 -1.0267
    1MOL    C10   10   7.302   1.996   0.230 -0.3218  0.2878 -0.6535
    1MOL    O11   11   7.292   1.854   0.244 -0.1338 -0.0413  0.0406
    1MOL    H12   12   7.208   2.049   0.245 -0.2782  0.2947 -0.3898
    1MOL    H13   13   7.379   2.044   0.291  1.4082 -1.5355 -1.3605
    1MOL    C14   14   7.267   1.822   0.380  0.5490  0.7924  1.0120
    1MOL    O15   15   7.384   1.841   0.464  0.1104 -0.5788  0.4981
    1MOL    H16   16   7.227   1.722   0.391  1.5625  0.3659  0.8987
    1MOL    H17   17   7.200   1.898   0.421  0.0290  0.2293  1.2129
    1MOL    C18   18   7.466   1.736   0.475 -0.5793  0.3049  0.3193
    1MOL    O19   19   7.419   1.654   0.577 -0.2973  0.5515 -0.1280
    1MOL    H20   20   7.566   1.774   0.496 -0.0957 -0.2090 -0.9854
    1MOL    H21   21   7.478   1.679   0.382  1.7145  1.0052  0.1598
    1MOL    C22   22   7.497   1.548   0.613 -0.2215 -0.2603  0.3381
    1MOL    O23   23   7.433   1.458   0.698  0.3311  0.3631 -0.1984
    1MOL    H24   24   7.593   1.575   0.656  0.4393 -1.5149 -0.3253
    1MOL    H25   25   7.516   1.497   0.518 -1.2106  0.3019 -0.1740
    1MOL    C26   26   7.411   1.516   0.827  0.7210  1.1855 -0.5990
    1MOL    O27   27   7.357   1.423   0.913  0.0536  0.2743 -0.3099
    1MOL    H28   28   7.345   1.603   0.822 -0.7971  0.1000  0.1730
    1MOL    H29   29   7.507   1.554   0.863  1.1636 -0.6260  0.1928
    1MOL    C30   30   7.224   1.400   0.909  0.9843 -0.2844 -0.1160
    1MOL    O31   31   7.148   1.504   0.959 -0.0575 -0.1765  0.0153
    1MOL    H32   32   7.212   1.299   0.949 -0.7001  0.5649  1.5598
    1MOL    H33   33   7.193   1.396   0.805  0.6741 -0.4542 -0.0163
    1MOL    C34   34   7.147   1.509   1.097  0.9316  0.2670 -0.1271
    1MOL    O35   35   7.068   1.410   1.143 -0.3694  0.5084 -0.1189
    1MOL    H36   36   7.103   1.606   1.120 -0.1941 -0.0520 -0.8583
    1MOL    H37   37   7.243   1.498   1.147 -0.9071 -3.3476  2.9282
    1MOL    C38   38   6.992   1.436   1.258 -0.4201 -0.4257  0.5386
    1MOL    O39   39   7.071   1.437   1.371 -0.0434  0.0802 -0.2520
    1MOL    H40   40   6.926   1.351   1.272  0.4981 -1.4701 -1.2945
    1MOL    H41   41   6.935   1.526   1.235 -0.2715 -0.2564  0.8213
    1MOL    C42   42   7.003   1.494   1.479 -0.0885  0.1654  0.0236
    1MOL    O43   43   7.073   1.482   1.598  0.0464 -0.6179  0.1821
    1MOL    H44   44   6.910   1.437   1.483 -0.2992  0.5330  0.4713
    1MOL    H45   45   6.985   1.597   1.448  0.3962 -0.2834 -1.8522
    1MOL    C46   46   7.074   1.359   1.659 -0.3728 -1.0638  0.1541
    1MOL    O47   47   7.139   1.372   1.781 -0.4192 -0.3817 -0.3771
    1MOL    H48   48   7.143   1.295   1.603 -0.8101 -0.2534 -1.3380
    1MOL    H49   49   6.978   1.312   1.679  0.3221 -2.5184  0.1293
    1MOL    C50   50   7.054   1.423   1.884  0.6065 -0.2398  0.0076
    1MOL    O51   51   6.946   1.336   1.909  0.0848  0.0540  0.2251
    1MOL    H52   52   7.008   1.514   1.845 -0.7176 -1.1015 -0.5127
    1MOL    H53   53   7.102   1.453   1.977  0.2691 -1.2263  0.5133
    1MOL    C54   54   6.973   1.227   1.986 -0.3644  0.1328 -0.1300
    1MOL    O55   55   6.889   1.125   1.970  0.4040 -0.4579 -0.2097
    1MOL    H56   56   6.978   1.249   2.093  1.1069  1.6970 -0.5096
    1MOL    H57   57   7.070   1.181   1.964 -0.3663  1.0567 -2.1477
    1MOL    C58   58   6.770   1.132   2.045  0.3248  0.4810 -0.3252
    1MOL    O59   59   6.785   1.117   2.182 -0.0601 -0.2051  0.2602
    1MOL    H60   60   6.697   1.062   2.005 -0.9337  1.5874 -0.0106
    1MOL    H61   61   6.720   1.228   2.035  1.1723  0.9858  0.2161
    1MOL    C62   62   6.830   0.998   2.221 -0.1691  0.1213  0.7672
    1MOL    O63   63   6.966   1.002   2.245 -0.8845  0.4165  0.1437
    1MOL    H64   64   6.803   0.927   2.143 -1.5910  2.2720 -0.7492
    1MOL    H65   65   6.771   0.976   2.310 -1.4412 -1.6113 -0.4725
    1MOL    C66   66   7.039   0.907   2.179 -0.1132 -0.6325  0.4720
    1MOL    O67   67   7.167   0.904   2.224 -0.0597 -0.3800  0.3748
    1MOL    H68   68   7.023   0.934   2.075  0.7397  1.5533  0.8646
    1MOL    H69   69   6.997   0.810   2.204  1.6128 -1.3065  0.8494
    1MOL    C70   70   7.252   0.881   2.111  0.1499  0.1266 -0.1493
    1MOL    O71   71   7.253   0.995   2.032  0.6163  0.1870  0.4208
    1MOL    H72   72   7.204   0.799   2.057 -0.1990  1.5298 -1.9846
    1MOL    H73   73   7.354   0.861   2.146  0.0120  0.6245  0.5444
    1MOL    C74   74   7.324   1.107   2.089  0.5221  0.3675 -0.2683
    1MOL    O75   75   7.462   1.079   2.102 -0.2161 -0.5341  0.6541
    1MOL    H76   76   7.280   1.112   2.189  0.3703 -1.0358 -0.2419
    1MOL    H77   77   7.309   1.197   2.030 -0.8116 -1.7278 -3.2361
    1MOL    C78   78   7.519   1.063   1.978  0.6337 -0.5928  0.1515
    1MOL    O79   79   7.661   1.071   2.005  0.7654 -0.3834  0.1491
    1MOL    H80   80   7.481   1.141   1.911 -0.5361  0.4128  1.9360
    1MOL    H81   81   7.499   0.962   1.944 -0.3579 -0.0890 -0.7995
    1MOL    H82   82   7.688   0.985   2.033 -1.2628 -1.0563  0.1363
    2MOL     C1   83   1.519   3.047   4.136  0.1761  0.1350 -0.1338
    2MOL     O2   84   1.550   2.951   4.035 -0.4813 -0.0476 -0.1851
    2MOL     H3   85   1.575   3.138   4.115  0.5318 -0.6826 -2.8521
    2MOL     H4   86   1.415   3.079   4.145  1.1651  3.6355 -0.6554
    2MOL     H5   87   1.547   3.008   4.234  3.2834  2.2412 -0.1305
    2MOL     C6   88   1.504   2.996   3.916  0.5240 -0.4057  0.0410
    2MOL     O7   89   1.360   2.999   3.901 -0.5049  0.6244 -0.0616
    2MOL     H8   90   1.551   2.929   3.843  0.3247 -1.5726  0.9767
    2MOL     H9   91   1.544   3.092   3.882 -1.3477  0.2394 -0.4052
    2MOL    C10   92   1.307   2.865   3.904  0.0868 -0.2919 -0.5475
    2MOL    O11   93   1.343   2.781   3.796 -0.7486  0.0010 -0.0221
    2MOL    H12   94   1.199   2.881   3.903  0.3084  1.2991 -0.9399
    2MOL    H13   95   1.331   2.813   3.997 -1.6892 -0.0848  0.0486
    2MOL    C14   96   1.270   2.667   3.779  0.1245 -0.0594  0.5048
    2MOL    O15   97   1.148   2.690   3.720 -0.8124 -0.2526 -0.1514
    2MOL    H16   98   1.240   2.623   3.875  1.1927 -0.7416  0.5340
    2MOL    H17   99   1.328   2.596   3.720  1.4361  2.2416 -1.0404
    2MOL    C18  100   1.159   2.758   3.601 -0.9324  0.4283 -0.2207
    2MOL    O19  101   1.213   2.672   3.502 -0.6527 -0.1574 -0.7008
    2MOL    H20  102   1.223   2.846   3.605 -0.3650 -0.0707  3.0218
    2MOL    H21  103   1.062   2.800   3.573 -1.2727 -0.6960 -0.7418
    2MOL    C22  104   1.131   2.677   3.387  0.3063 -0.6368  0.3021
    2MOL    O23  105   1.114   2.812   3.333  0.1616  0.3123 -0.5113
    2MOL    H24  106   1.031   2.642   3.411 -0.5141  2.5061  1.6658
    2MOL    H25  107   1.185   2.614   3.316 -0.1549  0.1418 -0.7539
    2MOL    C26  108   1.094   2.811   3.198  0.8943 -0.4924 -0.5023
    2MOL    O27  109   1.213   2.832   3.130 -0.3869  0.0363 -0.2780
    2MOL    H28  110   1.038   2.898   3.165  1.2208  0.4240  1.3125
    2MOL    H29  111   1.044   2.725   3.152  0.8413  0.6733 -2.6883
    2MOL    C30  112   1.270   2.956   3.160  0.0611 -0.1649  0.1465
    2MOL    O31  113   1.204   3.065   3.097 -0.0102 -0.2028 -0.0029
    2MOL    H32  114   1.374   2.955   3.127  0.0316  2.6844 -0.1624
    2MOL    H33  115   1.256   2.980   3.266 -0.6270  0.6093 -0.1164
    2MOL    C34  116   1.255   3.100   2.978  0.0008 -1.0005  0.1284
    2MOL    O35  117   1.376   3.169   2.994  0.2619 -0.1050  0.4834
    2MOL    H36  118   1.189   3.166   2.922  0.4309 -0.9414 -0.3038
    2MOL    H37  119   1.272   3.019   2.907 -0.2437 -0.1625 -0.8822
    2MOL    C38  120   1.368   3.274   3.090 -0.4006  0.0977  0.5786
    2MOL    O39  121   1.280   3.369   3.050  0.7434  0.1368  0.1108
    2MOL    H40  122   1.471   3.311   3.092 -0.6588  0.7899  1.1862
    2MOL    H41  123   1.335   3.237   3.186 -3.4081  3.3102  0.8654
    2MOL    C42  124   1.251   3.466   3.143  0.2399 -0.6804 -0.3504
    2MOL    O43  125   1.363   3.549   3.168 -0.5597  0.0537 -0.7918
    2MOL    H44  126   1.228   3.425   3.241  1.1586 -1.0076 -0.2636
    2MOL    H45  127   1.173   3.529   3.100 -1.6558 -1.5629  1.7226
    2MOL    C46  128   1.398   3.619   3.050  0.5151  0.0667  0.5252
    2MOL    O47  129   1.312   3.729   3.034 -0.1948 -0.4000  0.2413
    2MOL    H48  130   1.397   3.548   2.967 -0.0845  0.2552  0.3745
    2MOL    H49  131   1.503   3.649   3.057  0.7784 -1.1683  2.4471
    2MOL    C50  132   1.322   3.828   3.141 -0.5711  0.2008  0.7602
    2MOL    O51  133   1.433   3.920   3.135  0.1675  0.1365 -0.4903
    2MOL    H52  134   1.311   3.781   3.238 -2.2212 -2.3175 -0.6104
    2MOL    H53  135   1.234   3.888   3.118  0.4918  0.2357 -3.8117
    2MOL    C54  136   1.409   4.026   3.058  0.4868 -1.0615  0.2909
    2MOL    O55  137   1.528   4.104   3.051 -0.0099 -0.0855 -0.0892
    2MOL    H56  138   1.328   4.080   3.108  2.5106  1.3930  1.0230
    2MOL    H57  139   1.366   4.003   2.961  0.4818 -2.3477  0.5930
    2MOL    C58  140   1.556   4.166   3.172 -0.2595 -0.1218 -0.3836
    2MOL    O59  141   1.465   4.273   3.194  0.5869 -0.4990  0.1610
    2MOL    H60  142   1.659   4.200   3.169 -0.6341  0.9008 -2.8587
    2MOL    H61  143   1.550   4.088   3.248 -1.6235 -0.2716 -0.6205
    2MOL    C62  144   1.479   4.393   3.125  0.3984  0.2427 -0.3374
    2MOL    O63  145   1.391   4.492   3.172 -0.2688 -0.2985 -0.1013
    2MOL    H64  146   1.476   4.380   3.017 -3.5458 -2.6450  0.0031
    2MOL    H65  147   1.581   4.427   3.140  0.5413 -0.2505 -0.1894
    2MOL    C66  148   1.261   4.472   3.136 -0.5289 -0.1464  0.1841
    2MOL    O67  149   1.231   4.504   3.007 -0.1948  0.3019  0.2677
    2MOL    H68  150   1.209   4.538   3.205  1.2576  1.3213  0.1706
    2MOL    H69  151   1.235   4.376   3.181  1.7259 -0.3395  1.1267
    2MOL    C70  152   1.116   4.444   2.958  0.3777  0.0769  0.8652
    2MOL    O71  153   1.125   4.309   2.907  0.2715  0.2980  0.2630
    2MOL    H72  154   1.082   4.503   2.873 -0.5147  1.5156  2.2004
    2MOL    H73  155   1.045   4.440   3.041  0.6315 -0.2019  1.0693
    2MOL    C74  156   1.176   4.300   2.777  0.1452 -0.1237  0.6954
    2MOL    O75  157   1.093   4.344   2.679 -0.3402 -0.0264  0.0961
    2MOL    H76  158   1.194   4.195   2.755 -1.1001 -0.3689  0.8394
    2MOL    H77  159   1.266   4.362   2.778 -0.8221  1.3751 -1.3309
    2MOL    C78  160   0.973   4.276   2.670 -0.4009  0.8682 -0.0232
    2MOL    O79  161   0.904   4.322   2.559 -0.0412  0.5788 -0.3987
    2MOL    H80  162   0.909   4.293   2.757 -0.7101 -1.3361  0.2178
    2MOL    H81  163   0.995   4.170   2.656 -2.9896  0.3530 -0.4358
    2MOL    H82  164   0.896   4.416   2.561  1.5002  0.7295 -0.0814
    3MOL     C1  165   2.042   3.508   0.489 -0.0417 -0.0429  0.2826
    3MOL     O2  166   2.126   3.449   0.386 -0.3897  0.0770  0.0530
    3MOL     H3  167   1.987   3.436   0.550 -2.6312 -0.1467 -2.0740
    3MOL     H4  168   2.096   3.581   0.549 -1.0964  0.1731  0.9934
    3MOL     H5  169   1.966   3.572   0.444  1.9653  1.0769 -1.6297
    3MOL     C6  170   2.159   3.551   0.296  0.1977 -0.5345 -0.0201
    3MOL     O7  171   2.267   3.628   0.348 -0.3481  0.5596 -0.4623
    3MOL     H8  172   2.073   3.613   0.271  0.2809 -0.3245  0.2142
    3MOL     H9  173   2.188   3.507   0.200  1.3425  0.7774 -0.2872
    3MOL    C10  174   2.390   3.557   0.351 -0.0987  0.4416  0.4810
    3MOL    O11  175   2.443   3.518   0.225  0.0133  0.5156 -0.3254
    3MOL    H12  176   2.370   3.468   0.411  1.3507  0.3031  0.7729
    3MOL    H13  177   2.461   3.625   0.399 -2.3420  2.1738  1.4786
    3MOL    C14  178   2.499   3.620   0.157  0.7869  0.8872  0.1403
    3MOL    O15  179   2.616   3.676   0.211 -0.3077  0.9185  0.0994
    3MOL    H16  180   2.429   3.703   0.150  1.2789  1.2698 -0.2605
    3MOL    H17  181   2.518   3.600   0.052  0.6958  1.0333  0.0964
    3MOL    C18  182   2.717   3.582   0.214 -0.0354 -0.3877  0.3217
    3MOL    O19  183   2.762   3.554   0.084 -0.0685  0.1451  0.0065
    3MOL    H20  184   2.673   3.494   0.259 -0.2211 -0.6746 -0.4071
    3MOL    H21  185   2.801   3.610   0.277 -1.5554 -0.8702  2.5972
    3MOL    C22  186   2.874   3.468   0.086 -0.5275  0.1030  0.2375
    3MOL    O23  187   2.983   3.533   0.142  0.4266 -0.0273 -0.0999
    3MOL    H24  188   2.903   3.429   7.772 -1.3706  0.4437 -0.1565
    3MOL    H25  189   2.855   3.378   0.143 -0.6047 -0.7921 -1.1846
    3MOL    C26  190   3.054   3.607   0.051 -0.5375 -0.2699 -0.1881
    3MOL    O27  191   3.128   3.529   7.752 -0.0159  0.4373 -0.0302
    3MOL    H28  192   3.115   3.680   0.104  0.3705 -1.0944 -0.0949
    3MOL    H29  193   2.985   3.656   7.766  0.9770  1.3694 -0.5668
    3MOL    C30  194   3.225   3.453   0.030 -0.5892  0.6423 -0.0082
    3MOL    O31  195   3.296   3.381   7.727 -0.5922 -0.1783 -0.1597
    3MOL    H32  196   3.179   3.381   0.098  1.5510  0.2894  1.0985
    3MOL    H33  197   3.296   3.513   0.087  0.9313 -0.3255 -0.8687
    3MOL    C34  198   3.380   3.469   7.649 -0.5781 -0.0602 -0.4749
    3MOL    O35  199   3.502   3.501   7.708  0.1512 -0.4273 -0.2776
    3MOL    H36  200   3.329   3.561   7.619 -0.0356 -0.2059 -1.9101
    3MOL    H37  201   3.401   3.431   7.549 -0.0379  0.2904 -0.4998
    3MOL    C38  202   3.589   3.393   7.730  0.4069  0.0802  0.3343
    3MOL    O39  203   3.632   3.321   7.616 -0.4164 -0.3455  0.7041
    3MOL    H40  204   3.545   3.308   7.782 -1.0534 -0.2287 -1.3736
    3MOL    H41  205   3.668   3.423   0.015  1.6561 -2.4031  0.0238
    3MOL    C42  206   3.706   3.404   7.526 -0.3417  0.2518  0.1045
    3MOL    O43  207   3.632   3.427   7.413 -0.2084  0.0436  0.0116
    3MOL    H44  208   3.804   3.356   7.516  0.1764  1.6523 -1.8386
    3MOL    H45  209   3.730   3.499   7.573  2.5059  0.2660 -1.2634
    3MOL    C46  210   3.658   3.334   7.305 -0.2072  0.3787 -0.3702
    3MOL    O47  211   3.785   3.331   7.250 -0.4204 -0.0639 -0.6469
    3MOL    H48  212   3.577   3.352   7.234 -0.8137  2.2606  0.7580
    3MOL    H49  213   3.643   3.232   7.339  0.1717  0.8801  1.3558
    3MOL    C50  214   3.806   3.445   7.180 -0.2108 -0.1545 -0.2459
    3MOL    O51  215   3.722   3.445   7.064 -0.1588 -0.8314  0.7039
    3MOL    H52  216   3.908   3.465   7.147 -0.4387 -1.0144 -1.4917
    3MOL    H53  217   3.785   3.539   7.231  0.3049  2.3428 -4.3686
    3MOL    C54  218   3.760   3.347   6.970 -0.7389 -0.0739  0.7897
    3MOL    O55  219   3.885   3.365   6.926 -0.4501  0.1435  0.2684
    3MOL    H56  220   3.696   3.348   6.882 -0.8499 -2.0513  0.8372
    3MOL    H57  221   3.749   3.248   7.014  0.9236 -0.5479  0.2057
    3MOL    C58  222   3.937   3.247   6.865 -0.7260 -0.8853  0.1818
    3MOL    O59  223   3.962   3.140   6.958 -0.4605  0.1576  0.0101
    3MOL    H60  224   4.034   3.272   6.822 -1.3253  0.5563 -0.3857
    3MOL    H61  225   3.873   3.207   6.787 -0.6261 -0.8219  0.0672
    3MOL    C62  226   4.046   3.179   7.064 -0.0071 -0.2341 -0.4422
    3MOL    O63  227   4.179   3.119   7.050  0.4250 -0.5153 -0.0326
    3MOL    H64  228   4.011   3.143   7.161  3.2825  1.0646  1.3207
    3MOL    H65  229   4.063   3.286   7.073  0.4754 -0.4924  2.3420
    3MOL    C66  230   4.171   2.979   7.054 -0.1197 -0.0390  0.0099
    3MOL    O67  231   4.300   2.918   7.045  0.2672 -0.1810  0.6687
    3MOL    H68  232   4.106   2.941   6.976  1.0232  0.4058 -1.1841
    3MOL    H69  233   4.130   2.939   7.146  1.1567  0.0651  0.6415
    3MOL    C70  234   4.340   2.894   6.911 -0.8331  0.1773  0.1418
    3MOL    O71  235   4.270   2.784   6.862 -0.2815  0.6002 -0.1513
    3MOL    H72  236   4.447   2.878   6.915 -0.4058  2.4596 -1.0254
    3MOL    H73  237   4.327   2.991   6.863 -3.7335 -0.2127  0.0395
    3MOL    C74  238   4.319   2.731   6.740  0.5192  0.6533  0.7985
    3MOL    O75  239   4.440   2.653   6.762 -0.0569  0.6891 -0.3841
    3MOL    H76  240   4.341   2.810   6.669  2.7405 -0.3936  0.2846
    3MOL    H77  241   4.239   2.668   6.701  1.6680 -1.4095  1.7286
    3MOL    C78  242   4.428   2.543   6.845  0.0686  0.1023 -0.6328
    3MOL    O79  243   4.559   2.490   6.869  0.1447 -0.1262  0.0233
    3MOL    H80  244   4.372   2.461   6.799 -1.2491  0.5585  0.1175
    3MOL    H81  245   4.392   2.583   6.940 -2.2274  0.5325 -1.6425
    3MOL    H82  246   4.562   2.480   6.963 -1.1429  1.2637  0.2205
    4MOL     C1  247   0.035   4.554   5.509  0.0487 -0.1887  0.2961
    4MOL     O2  248   0.011   4.463   5.395 -1.7635  0.4508 -0.2495
    4MOL     H3  249   7.771   4.650   5.492 -1.3135 -0.6072  1.5949
    4MOL     H4  250   7.779   4.502   5.597 -0.8326 -0.7145 -0.4024
    4MOL     H5  251   0.141   4.563   5.531  0.0239  1.2297 -0.1594
    4MOL     C6  252   7.662   4.452   5.369  0.8691 -0.8733 -0.3212
    4MOL     O7  253   7.623   4.332   5.320 -0.0463 -0.9473  0.1222
    4MOL     H8  254   7.633   4.521   5.290 -2.6244 -0.5111  1.1846
    4MOL     H9  255   7.604   4.490   5.453  2.7528 -0.1792  0.6933
    4MOL    C10  256   7.595   4.249   5.426  0.0350 -0.3319 -0.2127
    4MOL    O11  257   7.461   4.248   5.459  0.2468 -0.5591  0.3308
    4MOL    H12  258   7.653   4.271   5.515 -0.5354  0.5177 -0.0501
    4MOL    H13  259   7.626   4.150   5.392  0.3257  0.1570 -1.4038
    4MOL    C14  260   7.382   4.170   5.374 -0.7326  0.8703  0.0096
    4MOL    O15  261   7.418   4.037   5.375  0.1213 -1.4092  0.5455
    4MOL    H16  262   7.387   4.203   5.270  0.9314  2.5561  0.6100
    4MOL    H17  263   7.284   4.175   5.423 -1.7132 -1.5073 -1.6096
    4MOL    C18  264   7.399   3.977   5.498  0.0402 -0.6659  0.2439
    4MOL    O19  265   7.267   3.965   5.535 -0.2608  0.2267 -0.2731
    4MOL    H20  266   7.449   4.025   5.582  0.6951 -2.1316  0.7122
    4MOL    H21  267   7.458   3.886   5.483  1.8822  0.0880  2.6776
    4MOL    C22  268   7.194   3.877   5.464  0.2209  0.0011  0.2352
    4MOL    O23  269   7.081   3.832   5.532 -0.1869 -0.0468 -0.1423
    4MOL    H24  270   7.250   3.796   5.419 -0.2125  0.9621 -2.1092
    4MOL    H25  271   7.160   3.938   5.380  0.6734  0.9662  0.7412
    4MOL    C26  272   7.105   3.728   5.617 -0.2681 -0.0746 -0.6426
    4MOL    O27  273   7.113   3.615   5.531 -0.4774 -0.0093 -0.7662
    4MOL    H28  274   7.022   3.725   5.687  1.0122 -3.3513  0.8336
    4MOL    H29  275   7.202   3.741   5.665  0.0617 -0.2905 -1.2408
    4MOL    C30  276   6.994   3.575   5.472  0.2430 -0.0061  0.3408
    4MOL    O31  277   7.016   3.502   5.357 -0.3633  0.0173  0.4044
    4MOL    H32  278   6.925   3.659   5.466  1.2871  0.8866  0.6642
    4MOL    H33  279   6.938   3.502   5.531 -0.5114 -0.6443 -1.1353
    4MOL    C34  280   7.029   3.585   5.250 -0.1765 -0.1235 -0.7153
    4MOL    O35  281   6.902   3.637   5.201 -0.1343 -0.5098 -0.5124
    4MOL    H36  282   7.070   3.514   5.179 -0.5811  0.4218 -1.5141
    4MOL    H37  283   7.098   3.668   5.264  0.5772 -0.5661 -1.7697
    4MOL    C38  284   6.913   3.709   5.079  0.5684  0.0563 -0.3037
    4MOL    O39  285   6.920   3.634   4.963  0.0475 -0.4960 -0.2577
    4MOL    H40  286   6.990   3.785   5.077  0.7815 -0.1104  1.1013
    4MOL    H41  287   6.818   3.763   5.083 -1.0477 -2.7573  1.1812
    4MOL    C42  288   6.793   3.577   4.926 -0.0974  0.4082  0.3595
    4MOL    O43  289   6.688   3.660   4.891  0.5463  0.0306 -0.2591
    4MOL    H44  290   6.757   3.500   4.994  0.1373 -0.5812 -0.6366
    4MOL    H45  291   6.836   3.524   4.841 -0.8707  0.7532 -0.2603
    4MOL    C46  292   6.581   3.589   4.831  0.3477 -0.9617 -1.1117
    4MOL    O47  293   6.519   3.521   4.931 -0.1568  0.6100  0.4464
    4MOL    H48  294   6.630   3.527   4.756 -0.5871  0.2892 -2.7951
    4MOL    H49  295   6.525   3.668   4.780 -0.8768 -1.8109 -1.0882
    4MOL    C50  296   6.386   3.482   4.900  0.4903  0.0590 -0.5268
    4MOL    O51  297   6.303   3.592   4.907 -0.0968  0.2141 -0.0989
    4MOL    H52  298   6.350   3.402   4.965  0.2400  0.7723  0.2186
    4MOL    H53  299   6.376   3.443   4.798  1.9619 -2.3592  0.1874
    4MOL    C54  300   6.234   3.598   5.029  0.2700  0.1405  0.6439
    4MOL    O55  301   6.122   3.508   5.036  0.6913  0.0598  0.2822
    4MOL    H56  302   6.182   3.691   5.053 -1.0634 -0.5323  0.4309
    4MOL    H57  303   6.306   3.584   5.109  0.3032  0.0949  0.6063
    4MOL    C58  304   6.078   3.501   5.171 -0.0218 -0.0605 -0.2443
    4MOL    O59  305   5.990   3.400   5.183  0.1408 -0.2771  0.5286
    4MOL    H60  306   6.037   3.594   5.211 -0.9196 -0.5715  0.0273
    4MOL    H61  307   6.164   3.483   5.236 -0.1105  1.3837  0.2985
    4MOL    C62  308   5.944   3.381   5.316  0.4062  0.2516  0.0736
    4MOL    O63  309   6.043   3.321   5.392  0.0746 -0.9057  0.4504
    4MOL    H64  310   5.853   3.321   5.307  1.6880 -1.3373 -2.8919
    4MOL    H65  311   5.900   3.468   5.366  3.6680  2.1594 -0.2400
    4MOL    C66  312   5.988   3.266   5.508 -0.5185 -0.7964  0.5907
    4MOL    O67  313   5.944   3.367   5.598  0.5156 -0.2012  0.5205
    4MOL    H68  314   6.060   3.195   5.548 -0.1324 -0.8592 -0.2192
    4MOL    H69  315   5.903   3.205   5.477  0.1828 -1.0767 -0.8290
    4MOL    C70  316   6.048   3.438   5.651 -0.1087 -0.2579  0.8527
    4MOL    O71  317   6.001   3.534   5.734  0.4580  0.3256  0.1522
    4MOL    H72  318   6.109   3.491   5.578  2.1249 -0.3516  2.5867
    4MOL    H73  319   6.124   3.378   5.702  1.8561 -0.1486 -1.8688
    4MOL    C74  320   5.915   3.487   5.837 -0.5846  0.0649 -0.1789
    4MOL    O75  321   5.864   3.600   5.896  0.1701 -0.1728 -0.6818
    4MOL    H76  322   5.980   3.436   5.909  0.0939  1.9722  0.5921
    4MOL    H77  323   5.843   3.417   5.795  0.4070 -0.0417 -1.7538
    4MOL    C78  324   5.770   3.675   5.833 -0.3258 -0.1438 -0.4549
    4MOL    O79  325   5.637   3.639   5.871 -0.4821  0.4158  0.1316
    4MOL    H80  326   5.780   3.656   5.726  4.8908 -0.9238  0.0571
    4MOL    H81  327   5.789   3.781   5.854  0.8808 -0.1997 -1.2352
    4MOL    H82  328   5.593   3.711   5.913  0.1767  0.1778  1.2431
    5MOL     C1  329   3.487   5.439   0.065  0.6147 -0.7143  0.1141
    5MOL     O2  330   3.401   5.504   0.158  0.8919 -0.0003 -0.0617
    5MOL     H3  331   3.541   5.353   0.104  0.4570 -1.9189 -2.2065
    5MOL     H4  332   3.432   5.393   7.766  2.0293  0.2744 -1.4028
    5MOL     H5  333   3.562   5.509   0.030  0.7459 -0.1245  1.5666
    5MOL     C6  334   3.331   5.606   0.098  0.2260 -0.0191 -0.3995
    5MOL     O7  335   3.412   5.717   0.064 -0.0003  0.0114 -0.2959
    5MOL     H8  336   3.256   5.642   0.169 -2.7751 -1.8375 -2.5470
    5MOL     H9  337   3.280   5.571   0.008  0.8386  0.8009 -1.0655
    5MOL    C10  338   3.462   5.783   0.177 -0.1825  0.5925 -0.3008
    5MOL    O11  339   3.579   5.850   0.140  0.3500  0.0708 -0.4920
    5MOL    H12  340   3.486   5.726   0.267 -0.4241  2.0997  0.7291
    5MOL    H13  341   3.387   5.861   0.182 -0.3664  0.5775 -2.2766
    5MOL    C14  342   3.690   5.769   0.114 -0.0836  0.2496  0.6952
    5MOL    O15  343   3.734   5.700   0.225  0.1781 -0.0427 -0.6806
    5MOL    H16  344   3.768   5.834   0.076 -2.1204  1.2532 -1.9589
    5MOL    H17  345   3.682   5.691   0.039  0.9834  1.0236 -0.2367
    5MOL    C18  346   3.793   5.788   0.319 -0.3628  0.4141  0.6448
    5MOL    O19  347   3.847   5.725   0.425 -0.0426  1.2468 -0.1686
    5MOL    H20  348   3.721   5.857   0.362  0.1943  1.2733  0.2054
    5MOL    H21  349   3.869   5.849   0.269 -0.3232 -0.8259 -0.8501
    5MOL    C22  350   3.961   5.645   0.396  0.3901  0.1180  0.3967
    5MOL    O23  351   4.076   5.727   0.396  0.8869 -0.8955  0.1298
    5MOL    H24  352   3.955   5.599   0.297 -2.3479 -0.9195  0.9983
    5MOL    H25  353   3.981   5.567   0.469  0.6321 -2.5258 -2.4065
    5MOL    C26  354   4.115   5.752   0.524 -0.6905  0.2184 -0.9204
    5MOL    O27  355   4.181   5.649   0.589  0.0894  0.4248 -0.4582
    5MOL    H28  356   4.034   5.778   0.593 -1.6533 -1.5079 -1.3554
    5MOL    H29  357   4.177   5.841   0.526  0.7492 -0.7959  0.1285
    5MOL    C30  358   4.318   5.670   0.609  0.2915 -0.1389  0.4677
    5MOL    O31  359   4.354   5.775   0.690 -0.4959 -0.0908  0.2012
    5MOL    H32  360   4.365   5.677   0.511 -0.0949 -0.4975  0.2559
    5MOL    H33  361   4.364   5.584   0.658 -0.0648 -0.5054  0.1619
    5MOL    C34  362   4.324   5.756   0.819 -0.5329 -0.4395  0.1214
    5MOL    O35  363   4.322   5.874   0.890  0.2077  0.0967  0.1887
    5MOL    H36  364   4.384   5.677   0.864 -1.6851 -0.5478  1.4853
    5MOL    H37  365   4.235   5.698   0.840  0.5205 -3.0307 -2.1166
    5MOL    C38  366   4.215   5.958   0.854 -0.3571  0.2533 -1.1178
    5MOL    O39  367   4.089   5.906   0.869 -0.0358  0.1747 -0.4455
    5MOL    H40  368   4.231   5.995   0.753 -0.5005  2.9664 -0.1705
    5MOL    H41  369   4.214   6.048   0.916 -2.1240  0.2223 -1.0519
    5MOL    C42  370   4.057   5.862   0.995 -0.7216 -0.2938 -0.0601
    5MOL    O43  371   3.940   5.791   0.989  0.7459  0.0582 -0.0013
    5MOL    H44  372   4.060   5.937   1.075  1.9797 -0.3160 -0.0865
    5MOL    H45  373   4.130   5.786   1.025 -0.3738  0.1106  0.1372
    5MOL    C46  374   3.833   5.886   0.976 -0.5787 -0.5153 -0.0683
    5MOL    O47  375   3.779   5.943   1.094  0.3603 -0.1968 -0.2601
    5MOL    H48  376   3.758   5.820   0.933  2.0718 -2.7824 -1.3537
    5MOL    H49  377   3.844   5.968   0.904 -1.1359  1.0823  1.6098
    5MOL    C50  378   3.717   5.838   1.175  0.2710 -0.0278  0.8978
    5MOL    O51  379   3.603   5.782   1.122 -0.8074 -0.5776  0.0297
    5MOL    H52  380   3.677   5.885   1.265 -1.3740  1.1541 -0.4228
    5MOL    H53  381   3.794   5.768   1.208  0.2971 -0.3438  0.1606
    5MOL    C54  382   3.503   5.874   1.093 -0.2001  0.4154  0.0452
    5MOL    O55  383   3.439   5.917   1.204  0.4645  0.2427 -0.4995
    5MOL    H56  384   3.430   5.833   1.024 -2.0363  0.8405  1.6850
    5MOL    H57  385   3.544   5.960   1.039  0.4976  0.0141 -0.0572
    5MOL    C58  386   3.390   5.810   1.284 -0.3030 -0.6138  0.0970
    5MOL    O59  387   3.295   5.865   1.375  0.3061  0.1435  0.6603
    5MOL    H60  388   3.470   5.748   1.324 -0.1738 -0.6611 -0.2312
    5MOL    H61  389   3.341   5.733   1.223 -1.3319 -0.6422  0.9340
    5MOL    C62  390   3.354   5.923   1.485  0.1673 -0.1628 -0.2938
    5MOL    O63  391   3.421   5.829   1.568 -0.4661  0.3190 -0.0020
    5MOL    H64  392   3.273   5.975   1.536  0.0161 -1.1863  0.5125
    5MOL    H65  393   3.432   5.995   1.460  1.4498 -1.5901 -0.4332
    5MOL    C66  394   3.332   5.770   1.658 -0.5853  0.1091 -0.8798
    5MOL    O67  395   3.294   5.845   1.766  0.2183 -0.8138  0.2783
    5MOL    H68  396   3.370   5.671   1.683 -1.3159  0.1476  0.3873
    5MOL    H69  397   3.237   5.743   1.612 -1.5129 -2.8529  2.5406
    5MOL    C70  398   3.393   5.929   1.814 -0.1719  0.3431 -0.9712
    5MOL    O71  399   3.373   5.955   1.953 -0.3042 -0.2082  0.3597
    5MOL    H72  400   3.394   6.016   1.748  1.9848 -0.8959 -2.6030
    5MOL    H73  401   3.491   5.882   1.820  0.1123  1.1495  1.1518
    5MOL    C74  402   3.248   6.007   1.987 -0.0930  0.8143  0.2773
    5MOL    O75  403   3.225   6.129   1.924  0.1584  0.2031  0.7534
    5MOL    H76  404   3.258   6.030   2.093 -0.8445  2.0530  0.0908
    5MOL    H77  405   3.169   5.934   1.972 -1.2679  2.1718 -0.3358
    5MOL    C78  406   3.107   6.190   1.962  0.0552  0.3029 -0.0708
    5MOL    O79  407   3.073   6.305   1.885  0.0819  0.1995 -0.0217
    5MOL    H80  408   3.117   6.218   2.067 -0.0768  0.7503 -0.1765
    5MOL    H81  409   3.019   6.127   1.956 -1.5378  2.3852  0.8772
    5MOL    H82  410   3.130   6.371   1.921  0.9155 -0.8273  0.5745
    6MOL     C1  411   4.998   2.475   0.063  0.5884  0.7860  0.8343
    6MOL     O2  412   4.873   2.530   0.030 -0.4404  0.2557 -0.6208
    6MOL     H3  413   5.056   2.453   7.757  0.6933  0.9545  0.8603
    6MOL     H4  414   5.061   2.535   0.128  2.6636 -2.3221  1.7629
    6MOL     H5  415   4.985   2.385   0.122  1.1040 -0.8361 -1.4594
    6MOL     C6  416   4.879   2.648   7.732 -0.5030 -0.0749 -0.3627
    6MOL     O7  417   4.947   2.758   0.005  0.0006  0.0390 -0.3606
    6MOL     H8  418   4.777   2.668   7.699 -0.4821 -1.5487 -1.3987
    6MOL     H9  419   4.932   2.618   7.642 -2.4967 -1.3589 -1.1557
    6MOL    C10  420   4.871   2.822   0.104 -0.4675  1.0342 -0.2473
    6MOL    O11  421   4.763   2.888   0.043 -0.4358 -0.2402  0.2223
    6MOL    H12  422   4.942   2.882   0.161  0.1841 -0.5525  0.6437
    6MOL    H13  423   4.826   2.745   0.166  1.4218 -0.7592 -1.0364
    6MOL    C14  424   4.813   3.011   7.773 -0.0101 -0.1287 -0.7509
    6MOL    O15  425   4.846   3.097   0.095  0.2245 -0.2643  0.2858
    6MOL    H16  426   4.745   3.060   7.704  0.8876  0.4746 -1.2134
    6MOL    H17  427   4.902   2.995   7.712 -0.7229 -0.8217 -1.6236
    6MOL    C18  428   4.895   3.220   0.050  0.1418 -0.3923 -0.4285
    6MOL    O19  429   4.804   3.308   7.769  0.2608 -0.0283 -0.2538
    6MOL    H20  430   4.979   3.211   7.765  0.5920  1.3774 -0.1449
    6MOL    H21  431   4.928   3.268   0.142  4.4294 -0.7382 -1.6718
    6MOL    C22  432   4.691   3.351   0.056  0.3365  1.2475  0.5581
    6MOL    O23  433   4.726   3.460   0.138 -0.2215 -0.1296 -0.6187
    6MOL    H24  434   4.658   3.261   0.107 -0.4970  0.0996 -1.9172
    6MOL    H25  435   4.618   3.394   7.771  1.1350  0.4592 -0.8147
    6MOL    C26  436   4.770   3.575   0.068 -0.2842 -1.0658  0.2307
    6MOL    O27  437   4.775   3.680   0.152  0.2945  0.0472  0.4366
    6MOL    H28  438   4.702   3.593   7.769  1.8004  1.1922 -1.0471
    6MOL    H29  439   4.870   3.563   0.027 -1.1161 -2.6307 -1.4216
    6MOL    C30  440   4.820   3.792   0.080 -0.1604  0.3503  0.2670
    6MOL    O31  441   4.784   3.905   0.152 -0.5451  0.2099  0.2914
    6MOL    H32  442   4.769   3.806   7.768  0.9709  0.0470 -0.3851
    6MOL    H33  443   4.926   3.773   0.065 -0.3774 -0.9401  0.3413
    6MOL    C34  444   4.857   3.913   0.266 -0.0107  0.2545 -0.4542
    6MOL    O35  445   4.997   3.914   0.246  0.3893 -0.7162  0.1474
    6MOL    H36  446   4.824   3.839   0.339  3.1395  1.5087  2.3439
    6MOL    H37  447   4.836   4.007   0.316 -1.1534 -0.2554  0.0606
    6MOL    C38  448   5.061   3.921   0.366  0.2321  0.9459 -0.1066
    6MOL    O39  449   5.036   3.814   0.448  0.5291 -0.3358  0.3819
    6MOL    H40  450   5.035   4.007   0.428 -2.0460 -0.5411  1.0934
    6MOL    H41  451   5.165   3.933   0.339  0.0443 -0.2375 -1.4255
    6MOL    C42  452   5.131   3.791   0.551 -0.1047 -0.0287  0.3885
    6MOL    O43  453   5.258   3.767   0.499 -0.5020 -0.3774 -0.1894
    6MOL    H44  454   5.106   3.719   0.629  0.5902 -2.0298 -1.1739
    6MOL    H45  455   5.141   3.887   0.601  1.4841  0.5682 -1.0466
    6MOL    C46  456   5.350   3.738   0.597  0.3958  0.3999 -1.0301
    6MOL    O47  457   5.371   3.848   0.681  0.7190  0.4160 -0.2837
    6MOL    H48  458   5.445   3.721   0.546 -0.3760  0.0440 -2.3872
    6MOL    H49  459   5.324   3.650   0.655  1.8116 -0.3692 -1.5331
    6MOL    C50  460   5.416   3.967   0.624 -0.1338 -0.7089  0.1465
    6MOL    O51  461   5.466   4.062   0.718 -0.2396 -0.5096  0.5405
    6MOL    H52  462   5.331   4.013   0.574 -0.4601 -1.0671  0.3717
    6MOL    H53  463   5.502   3.957   0.557 -1.1965 -0.4852 -1.2641
    6MOL    C54  464   5.370   4.104   0.808 -0.1609 -0.1623 -0.5638
    6MOL    O55  465   5.407   4.222   0.874  0.0757 -0.5703 -0.2087
    6MOL    H56  466   5.336   4.033   0.883  1.2712  0.9305  1.1707
    6MOL    H57  467   5.280   4.128   0.752  0.5314  1.0913 -1.1505
    6MOL    C58  468   5.503   4.208   0.976  0.5112  0.1142  0.7567
    6MOL    O59  469   5.455   4.173   1.100  0.1476  0.1083 -0.3088
    6MOL    H60  470   5.557   4.303   0.971 -0.6622  0.6989 -1.5927
    6MOL    H61  471   5.583   4.139   0.948  0.7607  0.5225  0.4573
    6MOL    C62  472   5.374   4.273   1.163  0.3619 -0.1189  0.0156
    6MOL    O63  473   5.453   4.389   1.173 -0.2875  0.2060  0.3342
    6MOL    H64  474   5.327   4.237   1.255  0.1662  0.0804 -0.0076
    6MOL    H65  475   5.301   4.293   1.085 -1.6775  2.2165  2.4340
    6MOL    C66  476   5.532   4.391   1.289  0.1216 -0.3755  0.7084
    6MOL    O67  477   5.619   4.505   1.293  0.1779  0.2240 -0.0492
    6MOL    H68  478   5.591   4.299   1.292  1.1750  0.1846 -1.5666
    6MOL    H69  479   5.463   4.392   1.373  0.9031 -0.6671  1.3586
    6MOL    C70  480   5.554   4.629   1.336  0.2242 -0.1513  0.5235
    6MOL    O71  481   5.441   4.672   1.262 -0.1429  0.2471 -0.3764
    6MOL    H72  482   5.639   4.696   1.346 -0.3644  0.3983  1.9073
    6MOL    H73  483   5.532   4.597   1.438  1.1742 -2.9373 -0.0856
    6MOL    C74  484   5.481   4.701   1.133  0.2030 -0.0206 -0.2310
    6MOL    O75  485   5.550   4.823   1.124  0.1375  0.5784  0.2306
    6MOL    H76  486   5.388   4.701   1.076 -0.6262 -1.5228  1.0904
    6MOL    H77  487   5.531   4.618   1.084  0.9023 -0.1555  0.6927
    6MOL    C78  488   5.592   4.855   0.992 -1.1961 -0.8728  0.8905
    6MOL    O79  489   5.694   4.764   0.956 -0.2470  0.1385  0.3936
    6MOL    H80  490   5.644   4.951   0.991 -0.3786 -1.2197 -4.2288
    6MOL    H81  491   5.512   4.866   0.919 -1.1864 -4.3921  0.2850
    6MOL    H82  492   5.772   4.815   0.948  0.5667 -0.6191  3.0733
    7MOL     C1  493   2.629   4.767   7.648  0.0044 -0.0696 -1.4288
    7MOL     O2  494   2.671   4.811   7.514 -0.2047  0.2652  0.0961
    7MOL     H3  495   2.604   4.846   7.718  0.2702 -1.8762  0.7497
    7MOL     H4  496   2.547   4.695   7.653 -2.0882  2.2858 -0.8651
    7MOL     H5  497   2.717   4.725   7.696 -0.0728 -1.0645 -2.1429
    7MOL     C6  498   2.573   4.885   7.458 -0.1038 -1.0521 -0.6424
    7MOL     O7  499   2.453   4.811   7.425  0.2922  0.1379 -0.1040
    7MOL     H8  500   2.619   4.925   7.367 -2.2764  1.3506 -0.7708
    7MOL     H9  501   2.537   4.964   7.524 -2.1194 -1.6734 -0.9375
    7MOL    C10  502   2.466   4.725   7.317  0.6377 -0.1304  0.6110
    7MOL    O11  503   2.505   4.792   7.203  0.3512  0.0931  0.1054
    7MOL    H12  504   2.368   4.684   7.292  0.9808  0.3846 -1.6995
    7MOL    H13  505   2.543   4.651   7.336  1.0294  0.2921  0.6886
    7MOL    C14  506   2.412   4.882   7.155  0.0076 -0.0960  0.0050
    7MOL    O15  507   2.296   4.817   7.101 -0.6328  0.0221  0.3432
    7MOL    H16  508   2.462   4.924   7.068 -1.1370 -1.2213 -1.1974
    7MOL    H17  509   2.389   4.967   7.219  0.1160 -1.1799  1.5249
    7MOL    C18  510   2.186   4.893   7.104 -0.1935 -0.3644 -0.7114
    7MOL    O19  511   2.128   4.914   7.226  0.2471  0.2291 -0.0949
    7MOL    H20  512   2.119   4.860   7.024 -0.0178  1.1767 -1.5069
    7MOL    H21  513   2.220   4.992   7.073  2.7571 -0.2631  2.5157
    7MOL    C22  514   2.034   4.816   7.250  1.1684 -0.0509 -0.4711
    7MOL    O23  515   1.910   4.860   7.205 -0.3549 -0.0164  0.1169
    7MOL    H24  516   2.039   4.800   7.358  1.7448 -3.5569 -0.9514
    7MOL    H25  517   2.064   4.727   7.196  1.6059  0.9074 -1.8303
    7MOL    C26  518   1.826   4.930   7.294 -0.1702  0.2364 -0.4687
    7MOL    O27  519   1.875   5.057   7.326 -0.3261 -0.2330  0.1240
    7MOL    H28  520   1.813   4.876   7.387 -2.9290 -1.0190 -1.5548
    7MOL    H29  521   1.731   4.930   7.241  1.0523  0.1833 -2.7049
    7MOL    C30  522   1.890   5.129   7.207  0.7381 -0.2584  0.6503
    7MOL    O31  523   1.914   5.267   7.231  0.0177  0.2028 -0.0667
    7MOL    H32  524   1.799   5.117   7.148  0.9976  1.9193 -0.2330
    7MOL    H33  525   1.975   5.090   7.151  1.3915  0.4291  1.1440
    7MOL    C34  526   2.042   5.298   7.280 -0.6871 -0.5079 -0.9091
    7MOL    O35  527   2.128   5.282   7.176 -0.6583 -0.7820 -0.3460
    7MOL    H36  528   2.072   5.215   7.344 -0.1935  0.0110 -0.4630
    7MOL    H37  529   2.046   5.393   7.334 -1.2491 -1.6678  1.2282
    7MOL    C38  530   2.260   5.269   7.210  0.2503  0.8458  0.1385
    7MOL    O39  531   2.331   5.206   7.114 -0.2381 -0.3379 -0.0593
    7MOL    H40  532   2.277   5.209   7.299  0.2272  2.0682  0.9898
    7MOL    H41  533   2.295   5.368   7.239  0.2727  0.3152  1.9958
    7MOL    C42  534   2.339   5.273   6.993 -0.3915 -0.9271 -0.3522
    7MOL    O43  535   2.464   5.261   6.940  0.1727  0.2520 -0.3456
    7MOL    H44  536   2.320   5.380   7.004  0.3313 -0.6906 -1.3273
    7MOL    H45  537   2.256   5.227   6.939  0.5608 -0.3937 -2.3014
    7MOL    C46  538   2.484   5.136   6.885 -0.1027 -0.5500 -0.2104
    7MOL    O47  539   2.609   5.084   6.927  0.4826  0.1878 -0.2204
    7MOL    H48  540   2.473   5.137   6.776  0.2454  0.3555 -0.2415
    7MOL    H49  541   2.412   5.064   6.923  1.1761 -1.6338  0.1960
    7MOL    C50  542   2.718   5.161   6.887 -0.5820  0.1958 -0.0765
    7MOL    O51  543   2.746   5.133   6.751 -0.3566 -0.5184  0.4276
    7MOL    H52  544   2.800   5.136   6.955 -1.3158 -1.6771  0.1591
    7MOL    H53  545   2.704   5.268   6.899 -0.4394  0.3755 -1.4560
    7MOL    C54  546   2.865   5.191   6.709  0.0164 -0.2607 -0.7260
    7MOL    O55  547   2.858   5.329   6.699 -0.3021  0.0574  0.2687
    7MOL    H56  548   2.904   5.158   6.612 -0.3236 -0.0714 -0.9288
    7MOL    H57  549   2.944   5.179   6.783 -1.3099  1.3354  0.9901
    7MOL    C58  550   2.981   5.393   6.665  0.4894  0.4019 -0.7277
    7MOL    O59  551   3.061   5.405   6.782  0.6274 -0.3425  0.0904
    7MOL    H60  552   2.957   5.495   6.635 -1.9156 -0.3653 -1.5271
    7MOL    H61  553   3.025   5.335   6.584  0.1167 -0.1137 -0.5591
    7MOL    C62  554   3.000   5.496   6.874 -0.7213 -0.4749  0.2367
    7MOL    O63  555   3.040   5.630   6.851  0.2736  0.0882  0.8150
    7MOL    H64  556   3.036   5.470   6.973 -1.6157 -1.5368  0.2938
    7MOL    H65  557   2.892   5.492   6.878 -0.7254 -2.0156 -1.1001
    7MOL    C66  558   3.175   5.649   6.867 -0.3669  0.1709 -0.3906
    7MOL    O67  559   3.225   5.614   6.996 -0.4342  0.5895 -0.3397
    7MOL    H68  560   3.170   5.757   6.870 -1.8878  0.0506  2.1772
    7MOL    H69  561   3.237   5.605   6.788  0.2115  0.0974  0.0964
    7MOL    C70  562   3.321   5.513   6.988  0.2795  0.5900  0.0238
    7MOL    O71  563   3.448   5.567   6.951 -0.4774 -0.2488  0.4306
    7MOL    H72  564   3.303   5.427   6.925  1.0263  0.8854 -0.6132
    7MOL    H73  565   3.337   5.474   7.089 -0.2837 -1.3236 -0.6214
    7MOL    C74  566   3.540   5.562   7.052  0.2804 -0.0080  0.3510
    7MOL    O75  567   3.573   5.441   7.099  0.2183 -0.3901 -0.3247
    7MOL    H76  568   3.505   5.623   7.135 -2.6687 -0.9066 -0.1486
    7MOL    H77  569   3.629   5.618   7.024  0.4541 -0.8339 -0.7443
    7MOL    C78  570   3.660   5.371   7.022  0.1942  0.1054 -0.2427
    7MOL    O79  571   3.791   5.427   7.013 -0.4438  0.2822  0.1876
    7MOL    H80  572   3.631   5.367   6.917 -2.2824  0.5447  0.4067
    7MOL    H81  573   3.664   5.269   7.059 -2.5955 -0.5894 -1.7468
    7MOL    H82  574   3.845   5.397   7.084 -1.8150 -1.5476  0.5051
    8MOL     C1  575   0.533   1.700   2.130  0.0067  0.3550  0.2523
    8MOL     O2  576   0.599   1.601   2.216 -0.0647 -0.4323  0.0623
    8MOL     H3  577   0.432   1.667   2.107  1.6413 -2.2236 -3.6972
    8MOL     H4  578   0.529   1.795   2.184  0.2175  0.4529  0.0932
    8MOL     H5  579   0.579   1.719   2.034  0.5459  0.3811  0.5142
    8MOL     C6  580   0.624   1.471   2.173  0.0381 -0.0956  0.2184
    8MOL     O7  581   0.752   1.453   2.138  0.0257  0.2966  0.2515
    8MOL     H8  582   0.567   1.449   2.083  0.2961 -2.9034  0.7153
    8MOL     H9  583   0.584   1.391   2.235 -1.0898  0.7097  0.5464
    8MOL    C10  584   0.838   1.423   2.248  0.3024  0.3992 -0.4020
    8MOL    O11  585   0.806   1.299   2.309 -0.3116 -1.0412 -0.4375
    8MOL    H12  586   0.841   1.500   2.325 -2.1138 -0.9082  1.0431
    8MOL    H13  587   0.941   1.426   2.210 -0.0439  0.6217 -1.3329
    8MOL    C14  588   0.819   1.297   2.451  0.0166 -0.4144  0.8971
    8MOL    O15  589   0.953   1.306   2.493  0.1121 -0.0089  0.2268
    8MOL    H16  590   0.775   1.206   2.490  1.7338 -0.3150  3.1502
    8MOL    H17  591   0.762   1.375   2.501 -0.5369 -0.5447  0.4626
    8MOL    C18  592   1.033   1.205   2.446 -0.0640  0.4208 -0.4083
    8MOL    O19  593   1.162   1.221   2.502 -0.3735  0.4394 -0.2217
    8MOL    H20  594   1.047   1.199   2.338  0.5555  1.4137 -0.3974
    8MOL    H21  595   0.986   1.114   2.482  0.6837  0.6597  1.2069
    8MOL    C22  596   1.168   1.167   2.638 -0.0312 -0.9620  0.2889
    8MOL    O23  597   1.161   1.021   2.626 -0.0776  0.1420  0.4750
    8MOL    H24  598   1.086   1.208   2.697 -0.4017  3.7562 -3.2361
    8MOL    H25  599   1.261   1.190   2.691  0.0132 -1.2041  0.3144
    8MOL    C26  600   1.163   0.962   2.758  0.1245 -0.1895  0.2738
    8MOL    O27  601   1.052   0.995   2.836 -0.5990 -0.4568  0.1745
    8MOL    H28  602   1.252   1.000   2.808  0.4999 -1.5786  0.6618
    8MOL    H29  603   1.191   0.857   2.749  0.3342 -0.0911 -0.2469
    8MOL    C30  604   0.995   0.887   2.896  0.4341 -0.0021  0.2739
    8MOL    O31  605   0.939   0.795   2.802 -0.4408 -0.0539 -0.7082
    8MOL    H32  606   0.913   0.928   2.956 -0.5798  1.8374 -2.2720
    8MOL    H33  607   1.054   0.837   2.972  1.5290  1.7748  0.6165
    8MOL    C34  608   0.821   0.846   2.741 -0.1424 -0.5017 -0.2870
    8MOL    O35  609   0.792   0.769   2.628 -0.4281  0.3491  0.1883
    8MOL    H36  610   0.832   0.952   2.720 -2.7368 -0.2009 -0.3182
    8MOL    H37  611   0.739   0.814   2.806  1.1308 -3.9294 -0.2621
    8MOL    C38  612   0.863   0.809   2.516  0.6721 -0.1372  0.7739
    8MOL    O39  613   0.823   0.935   2.455  0.0909 -0.1494  0.7976
    8MOL    H40  614   0.866   0.716   2.459  0.0491 -0.4525  1.2463
    8MOL    H41  615   0.968   0.820   2.544  1.4401  1.0845 -2.4069
    8MOL    C42  616   0.713   0.919   2.364 -0.3351 -0.3487 -0.2758
    8MOL    O43  617   0.760   0.873   2.237  0.1875 -0.3680 -0.5210
    8MOL    H44  618   0.649   1.008   2.357 -0.7652 -0.5939  0.4525
    8MOL    H45  619   0.657   0.834   2.403  0.0379 -0.1222  0.7512
    8MOL    C46  620   0.835   0.974   2.165 -0.2029 -0.2198 -0.5518
    8MOL    O47  621   0.865   0.934   2.035  0.0493  0.3154 -0.2392
    8MOL    H48  622   0.928   0.992   2.219  1.0310 -2.5657 -1.7723
    8MOL    H49  623   0.783   1.070   2.167 -0.3149 -0.2898 -0.1636
    8MOL    C50  624   0.918   1.039   1.959  0.6407 -0.4180 -0.0406
    8MOL    O51  625   0.839   1.151   1.950 -0.1972  0.0142  0.2371
    8MOL    H52  626   0.940   1.005   1.858  1.9520 -0.6202  0.3087
    8MOL    H53  627   1.013   1.065   2.005  1.0718 -1.4565 -0.3357
    8MOL    C54  628   0.716   1.139   1.883  0.7598 -0.5269 -0.2911
    8MOL    O55  629   0.737   1.077   1.762 -0.5502  0.2721  0.4343
    8MOL    H56  630   0.675   1.240   1.877 -1.4502 -1.4123 -0.7129
    8MOL    H57  631   0.665   1.073   1.953 -1.1700 -0.3608 -1.5053
    8MOL    C58  632   0.789   1.164   1.663 -0.2437 -0.0971  0.0312
    8MOL    O59  633   0.697   1.267   1.629 -0.8804 -0.5055  0.2210
    8MOL    H60  634   0.824   1.108   1.577 -2.2290 -0.9383 -0.2643
    8MOL    H61  635   0.875   1.213   1.709 -0.2028  0.0451 -0.1978
    8MOL    C62  636   0.581   1.225   1.561  0.1227  0.4495  0.2203
    8MOL    O63  637   0.610   1.164   1.440  0.1188  0.1350  0.1811
    8MOL    H64  638   0.527   1.319   1.553  0.5225  0.4709 -2.7692
    8MOL    H65  639   0.527   1.155   1.624  0.8964 -1.0859 -0.7799
    8MOL    C66  640   0.641   1.263   1.343 -0.5638 -0.5570 -0.4393
    8MOL    O67  641   0.535   1.350   1.321 -0.3755 -0.1280 -0.1575
    8MOL    H68  642   0.674   1.215   1.251  0.6117 -1.3190  0.3540
    8MOL    H69  643   0.726   1.318   1.383 -0.7180  0.4245 -1.4616
    8MOL    C70  644   0.465   1.334   1.202  0.0518 -0.1991 -0.1811
    8MOL    O71  645   0.388   1.222   1.212  0.9810 -0.0146  0.6944
    8MOL    H72  646   0.529   1.339   1.114 -0.4904  0.4209 -0.5496
    8MOL    H73  647   0.405   1.424   1.192 -0.0165 -0.2350 -0.0976
    8MOL    C74  648   0.289   1.221   1.313 -0.2923 -0.4183  0.0352
    8MOL    O75  649   0.237   1.088   1.313 -0.2200  0.1713 -0.4915
    8MOL    H76  650   0.207   1.289   1.293  0.5950  0.6852  0.1457
    8MOL    H77  651   0.331   1.246   1.410 -0.1554  0.3443 -0.2151
    8MOL    C78  652   0.340   0.991   1.322  0.2947  0.1242 -0.1881
    8MOL    O79  653   0.296   0.867   1.359  0.1679  0.4152 -0.3624
    8MOL    H80  654   0.418   1.020   1.393  0.4049 -0.5818 -0.0131
    8MOL    H81  655   0.379   0.973   1.222  0.0014  2.6214 -0.7836
    8MOL    H82  656   0.233   0.837   1.294 -2.0844  1.9587  1.0250
    9MOL     C1  657   3.676   2.166   3.427  0.9911  0.1301 -0.3788
    9MOL     O2  658   3.771   2.163   3.530  0.2896  0.4170  0.5410
    9MOL     H3  659   3.592   2.228   3.459  1.0788  0.3435 -0.5621
    9MOL     H4  660   3.704   2.190   3.325 -1.5632  0.7213 -0.9760
    9MOL     H5  661   3.629   2.068   3.430 -1.5593  1.1815 -3.0374
    9MOL     C6  662   3.855   2.271   3.533 -0.6919 -0.0198 -0.5277
    9MOL     O7  663   3.939   2.273   3.425  0.4417  0.5125 -0.0967
    9MOL     H8  664   3.904   2.287   3.629 -0.2095  1.8910 -1.0641
    9MOL     H9  665   3.791   2.358   3.548  0.1438 -0.1012  4.4093
    9MOL    C10  666   4.057   2.203   3.442 -0.1232  0.4050 -0.3638
    9MOL    O11  667   4.167   2.286   3.433  0.3150  0.0444  0.3320
    9MOL    H12  668   4.076   2.130   3.363  0.6476  0.8033 -0.5469
    9MOL    H13  669   4.066   2.154   3.539 -2.1206  1.1024  0.1918
    9MOL    C14  670   4.201   2.345   3.552 -0.5427 -0.0437 -0.3697
    9MOL    O15  671   4.249   2.260   3.649 -0.5240  0.4331  0.2540
    9MOL    H16  672   4.113   2.399   3.586  0.1793  1.3841 -0.7204
    9MOL    H17  673   4.284   2.414   3.537 -0.3098  0.1222  1.6012
    9MOL    C18  674   4.394   2.235   3.639  0.0149  0.0712  0.6141
    9MOL    O19  675   4.471   2.345   3.660  0.1156 -0.8312  1.3406
    9MOL    H20  676   4.415   2.203   3.537 -0.2409  1.4194  0.1315
    9MOL    H21  677   4.417   2.154   3.708 -0.2655 -2.4332 -2.1474
    9MOL    C22  678   4.462   2.401   3.785 -1.1351  0.4875  0.4119
    9MOL    O23  679   4.525   2.308   3.877 -0.0311 -0.3363 -0.1446
    9MOL    H24  680   4.357   2.413   3.814 -1.0134 -1.0472  1.5623
    9MOL    H25  681   4.501   2.502   3.780 -0.3387  0.1115 -1.3937
    9MOL    C26  682   4.666   2.307   3.867  0.6422  0.0920  0.1539
    9MOL    O27  683   4.734   2.418   3.907  0.2176 -0.3367 -0.2258
    9MOL    H28  684   4.686   2.288   3.761  1.3197  4.2438 -0.5812
    9MOL    H29  685   4.688   2.222   3.931  2.1183  2.3248  2.7366
    9MOL    C30  686   4.868   2.409   3.883  0.0260 -0.2020  0.0111
    9MOL    O31  687   4.925   2.308   3.961 -0.7343  0.2449  0.4658
    9MOL    H32  688   4.906   2.508   3.906  0.6184 -0.3996 -0.1095
    9MOL    H33  689   4.894   2.379   3.781  0.5405  0.6797 -0.1200
    9MOL    C34  690   5.062   2.314   3.959  0.3577 -0.4356 -0.4551
    9MOL    O35  691   5.117   2.215   3.882  0.1530  0.7170  0.0246
    9MOL    H36  692   5.096   2.310   4.063  1.7954  1.9556 -0.7939
    9MOL    H37  693   5.094   2.412   3.923  1.8413  0.1592  2.3426
    9MOL    C38  694   5.261   2.222   3.878  0.2522  0.5749  0.2636
    9MOL    O39  695   5.316   2.349   3.845 -0.1900  0.0198 -0.2915
    9MOL    H40  696   5.293   2.143   3.811 -0.3099 -0.3583  1.0673
    9MOL    H41  697   5.289   2.195   3.980  1.8579 -0.6630 -0.4842
    9MOL    C42  698   5.287   2.388   3.714 -0.2667  0.2305 -0.1203
    9MOL    O43  699   5.352   2.314   3.609  0.0540 -0.8233  0.0148
    9MOL    H44  700   5.322   2.491   3.715  0.8819 -0.1472 -0.1771
    9MOL    H45  701   5.179   2.390   3.700 -0.1266  0.0420 -1.3120
    9MOL    C46  702   5.356   2.383   3.489 -0.2103  0.8737 -0.1854
    9MOL    O47  703   5.230   2.404   3.443  0.2167 -0.5993  0.3430
    9MOL    H48  704   5.394   2.313   3.414  1.7650  0.3174  1.2761
    9MOL    H49  705   5.417   2.471   3.508  0.9516 -0.5368  3.0220
    9MOL    C50  706   5.228   2.495   3.339  0.1554  0.0370  0.2973
    9MOL    O51  707   5.242   2.629   3.380 -0.0212  0.3584  0.1526
    9MOL    H52  708   5.131   2.487   3.291 -0.3482 -2.5348  1.6512
    9MOL    H53  709   5.297   2.461   3.262 -0.6187  1.6792 -1.1367
    9MOL    C54  710   5.144   2.662   3.479  0.0857 -0.1668  0.3116
    9MOL    O55  711   5.168   2.794   3.517  0.0564 -0.0843  0.1914
    9MOL    H56  712   5.157   2.595   3.564  2.3586 -0.3423 -0.1288
    9MOL    H57  713   5.044   2.638   3.445  0.0608  2.8209 -1.8967
    9MOL    C58  714   5.281   2.816   3.593 -0.1945 -0.2013 -0.0556
    9MOL    O59  715   5.275   2.754   3.722  0.4959 -0.0109 -0.0078
    9MOL    H60  716   5.291   2.924   3.605 -1.6637 -0.2471  1.6492
    9MOL    H61  717   5.373   2.785   3.542 -0.2699  0.7409 -0.7782
    9MOL    C62  718   5.168   2.785   3.802  0.1354  0.0516 -0.1075
    9MOL    O63  719   5.175   2.919   3.848  0.5110 -0.4144 -0.0842
    9MOL    H64  720   5.167   2.715   3.886 -0.7065 -1.6491 -1.4970
    9MOL    H65  721   5.077   2.760   3.747  0.5245  0.2633 -0.8617
    9MOL    C66  722   5.281   2.940   3.938  0.1674  0.9485  0.3276
    9MOL    O67  723   5.302   3.075   3.961 -0.9287  0.8885 -0.0275
    9MOL    H68  724   5.363   2.889   3.887 -0.8790 -0.3439 -0.1019
    9MOL    H69  725   5.264   2.886   4.031 -0.3560  0.8435  0.1767
    9MOL    C70  726   5.211   3.138   4.031  0.5893  0.3134  0.4130
    9MOL    O71  727   5.235   3.127   4.170 -0.0788 -0.4348  0.4487
    9MOL    H72  728   5.110   3.103   4.009  0.7266  0.4582 -0.4764
    9MOL    H73  729   5.223   3.243   4.002  1.7195  0.4787  1.4292
    9MOL    C74  730   5.354   3.189   4.208 -0.0482 -0.1803 -0.2924
    9MOL    O75  731   5.345   3.329   4.205  0.0790  0.2509  0.0288
    9MOL    H76  732   5.432   3.174   4.133 -0.2916  2.0106 -1.0206
    9MOL    H77  733   5.398   3.148   4.299 -2.0873  0.8391  1.1898
    9MOL    C78  734   5.243   3.380   4.282 -0.4717  0.6380 -0.3466
    9MOL    O79  735   5.256   3.517   4.305  0.0396  0.0927  0.0181
    9MOL    H80  736   5.215   3.325   4.372  1.2880  1.3913  0.6825
    9MOL    H81  737   5.152   3.365   4.223 -1.2831  1.0582  0.7969
    9MOL    H82  738   5.185   3.550   4.252 -1.2915 -1.6343  0.6510
   10MOL     C1  739   4.906   7.511   5.218 -0.2298  0.2758  0.0114
   10MOL     O2  740   5.048   7.502   5.202  0.1675 -0.1163 -0.3383
   10MOL     H3  741   4.873   7.597   5.277  0.5432  2.7532 -3.0312
   10MOL     H4  742   4.849   7.507   5.125 -0.2358 -0.5200  0.0511
   10MOL     H5  743   4.878   7.424   5.278 -1.3238 -0.2694 -1.2649
   10MOL     C6  744   5.106   7.601   5.119  0.1610  0.8115  0.5272
   10MOL     O7  745   5.093   7.728   5.170 -0.2033  0.0270  0.0029
   10MOL     H8  746   5.056   7.593   5.022  0.5115 -0.9867  0.4719
   10MOL     H9  747   5.211   7.571   5.116  0.2865  1.1806  1.3772
   10MOL    C10  748   5.186   7.757   5.277 -0.7629  0.1228  0.7614
   10MOL    O11  749   5.313   7.737   5.238 -0.9583 -0.5876  0.0322
   10MOL    H12  750   5.158   7.685   5.355 -0.5833 -0.3397  0.4039
   10MOL    H13  751   5.170   0.075   5.311  1.8430  0.8138  0.0431
   10MOL    C14  752   5.361   0.049   5.145 -0.6134  0.4994 -0.5922
   10MOL    O15  753   5.487   0.009   5.104 -0.0292 -0.5817 -0.0302
   10MOL    H16  754   5.358   0.149   5.188  0.5181  0.1117  0.4148
   10MOL    H17  755   5.291   0.055   5.061 -0.5737  2.4171 -0.5063
   10MOL    C18  756   5.583   0.030   5.212  0.5981 -0.8042  0.1226
   10MOL    O19  757   5.624   0.160   5.214 -0.0729 -0.4798  0.3405
   10MOL    H20  758   5.672   7.753   5.199 -0.0970 -2.1289  1.3041
   10MOL    H21  759   5.548   7.776   5.309 -0.9384 -0.6889 -0.3707
   10MOL    C22  760   5.744   0.174   5.282  0.3702  0.0656  0.3258
   10MOL    O23  761   5.853   0.211   5.202 -0.5345 -0.1202  0.4375
   10MOL    H24  762   5.778   0.098   5.353 -0.9972 -2.6039 -1.7981
   10MOL    H25  763   5.733   0.267   5.337  0.1955  1.7244 -2.4484
   10MOL    C26  764   5.893   0.109   5.119 -1.1010  0.8176  0.5530
   10MOL    O27  765   5.934   7.783   5.205  0.4069 -0.3605 -0.4055
   10MOL    H28  766   5.982   0.144   5.066 -0.8781  2.5292  2.0144
   10MOL    H29  767   5.824   0.090   5.037  0.7342 -0.8396 -0.6886
   10MOL    C30  768   5.960   7.665   5.132  0.1249 -0.8933 -0.1979
   10MOL    O31  769   6.071   7.691   5.050  0.1274  0.1493  0.4131
   10MOL    H32  770   5.871   7.648   5.071  0.7317  1.1106 -1.6754
   10MOL    H33  771   5.986   7.587   5.203  1.0725  1.4135  2.0512
   10MOL    C34  772   6.112   7.584   4.975  0.8061  0.6387  0.1008
   10MOL    O35  773   6.013   7.546   4.892  0.4079 -0.2190 -0.0047
   10MOL    H36  774   6.123   7.502   5.046 -4.3255 -0.0100  0.3756
   10MOL    H37  775   6.205   7.616   4.928  0.8477  1.8470  0.9748
   10MOL    C38  776   5.984   7.642   4.796 -0.1824 -0.6149  0.3377
   10MOL    O39  777   5.864   7.708   4.822  0.0862 -0.4399 -0.2602
   10MOL    H40  778   5.976   7.589   4.701 -0.0373 -1.5330  0.8269
   10MOL    H41  779   6.048   7.728   4.779 -1.0466 -0.0078  0.1082
   10MOL    C42  780   5.752   7.634   4.795  0.5690 -0.0646  0.0416
   10MOL    O43  781   5.714   7.647   4.657 -0.8962 -0.0915 -0.0577
   10MOL    H44  782   5.675   7.678   4.859 -0.3314 -1.9473  0.3006
   10MOL    H45  783   5.772   7.536   4.837  1.2452 -0.8449 -2.0398
   10MOL    C46  784   5.640   7.534   4.628 -0.0253 -0.4157  0.1153
   10MOL    O47  785   5.721   7.420   4.620  0.4476 -0.2024  0.8967
   10MOL    H48  786   5.585   7.544   4.534 -2.3710 -0.2641  1.4644
   10MOL    H49  787   5.566   7.513   4.705  1.8153  0.7750  2.2519
   10MOL    C50  788   5.647   7.301   4.618 -0.8003 -0.8143 -0.0259
   10MOL    O51  789   5.562   7.298   4.511 -0.3369  0.2685  0.2897
   10MOL    H52  790   5.598   7.299   4.715 -0.3456 -0.0295  0.2267
   10MOL    H53  791   5.719   7.220   4.609  0.6234  0.1402  2.3534
   10MOL    C54  792   5.633   7.272   4.391 -0.0218  0.1417  0.8822
   10MOL    O55  793   5.661   7.134   4.388 -0.3520  0.1110 -0.3695
   10MOL    H56  794   5.722   7.333   4.392  0.7854 -0.9595 -1.1964
   10MOL    H57  795   5.585   7.307   4.300 -0.6150  1.7510  1.7847
   10MOL    C58  796   5.766   7.106   4.300 -0.3569  0.0378 -0.2960
   10MOL    O59  797   5.791   6.968   4.288  0.5814  0.4945  0.2178
   10MOL    H60  798   5.857   7.164   4.318 -0.4704  0.2231 -0.3159
   10MOL    H61  799   5.743   7.146   4.201  0.6885  0.1559 -0.4977
   10MOL    C62  800   5.865   6.915   4.398  0.0942  0.2798  0.1044
   10MOL    O63  801   5.998   6.936   4.382  0.7723  0.3819  0.6260
   10MOL    H64  802   5.832   6.811   4.402 -2.0940  0.9790  0.6768
   10MOL    H65  803   5.835   6.958   4.494 -0.5729 -1.8263  0.8646
   10MOL    C66  804   6.057   6.885   4.263  0.5853  0.2284  0.3624
   10MOL    O67  805   6.186   6.929   4.264 -0.6580  0.6866 -0.3325
   10MOL    H68  806   5.994   6.907   4.177 -0.7463  2.3840  1.8328
   10MOL    H69  807   6.049   6.778   4.283 -1.0706  0.1174 -0.7796
   10MOL    C70  808   6.202   7.064   4.251  0.4476 -0.1161  0.3891
   10MOL    O71  809   6.152   7.108   4.124 -0.6019  0.0683 -0.6462
   10MOL    H72  810   6.308   7.092   4.253  0.2093  1.0325 -1.5115
   10MOL    H73  811   6.163   7.118   4.336 -1.2229  0.1221 -0.5194
   10MOL    C74  812   6.252   7.092   4.029 -0.3760 -0.1692  0.1570
   10MOL    O75  813   6.349   7.190   4.040  0.8581 -0.4766 -0.4524
   10MOL    H76  814   6.206   7.077   3.931  0.7566 -0.1967 -0.3812
   10MOL    H77  815   6.305   6.997   4.034 -0.1066 -0.0104  0.3447
   10MOL    C78  816   6.307   7.306   3.982  1.1459  0.2791 -1.0975
   10MOL    O79  817   6.398   7.406   4.025  0.4350  0.3609 -0.1518
   10MOL    H80  818   6.210   7.341   4.018  2.4677  0.2520  2.7544
   10MOL    H81  819   6.318   7.294   3.875  2.6643 -0.2476 -0.8950
   10MOL    H82  820   6.485   7.381   3.997  1.2886  1.6716  1.2229
   11MOL     C1  821   3.875   4.452   5.654  0.2937 -0.0035  0.1195
   11MOL     O2  822   3.955   4.527   5.752  0.1738  0.3003 -0.3478
   11MOL     H3  823   3.941   4.388   5.595 -0.8806 -0.2546 -0.9616
   11MOL     H4  824   3.795   4.396   5.702 -1.2514  0.0329 -2.3008
   11MOL     H5  825   3.820   4.523   5.593 -3.8217 -2.1963  1.0646
   11MOL     C6  826   4.039   4.444   5.823  0.4800  0.5584  0.1762
   11MOL     O7  827   4.127   4.381   5.741  0.1435 -0.2600  0.4238
   11MOL     H8  828   3.980   4.363   5.867  0.5118  0.5544  0.2106
   11MOL     H9  829   4.090   4.494   5.905 -0.7083  2.2988 -0.1120
   11MOL    C10  830   4.211   4.470   5.664  0.0381 -0.3880  0.2208
   11MOL    O11  831   4.309   4.533   5.740 -0.4632  0.6880  0.2152
   11MOL    H12  832   4.154   4.543   5.607 -3.0016 -2.0018  1.0467
   11MOL    H13  833   4.260   4.409   5.589 -0.9635  0.2663 -0.9784
   11MOL    C14  834   4.381   4.616   5.657  0.3899  0.1082 -0.1038
   11MOL    O15  835   4.474   4.685   5.740  0.0746 -0.0727 -0.1783
   11MOL    H16  836   4.311   4.688   5.614  0.2181 -0.0871 -0.1500
   11MOL    H17  837   4.439   4.568   5.578  3.2100  1.2601  1.1973
   11MOL    C18  838   4.433   4.734   5.861 -0.3838 -0.3207  0.2829
   11MOL    O19  839   4.515   4.832   5.914  0.7387 -0.1678  0.1132
   11MOL    H20  840   4.431   4.651   5.931  0.0502  0.2215  0.9393
   11MOL    H21  841   4.331   4.771   5.852 -0.5128 -0.7478 -0.0332
   11MOL    C22  842   4.488   4.845   6.054 -0.5591  0.0650 -0.1532
   11MOL    O23  843   4.552   4.757   6.137  0.7145 -0.4037 -0.2009
   11MOL    H24  844   4.383   4.856   6.079 -0.5834 -1.2785  0.3477
   11MOL    H25  845   4.536   4.940   6.076  0.8126 -0.3258 -1.3655
   11MOL    C26  846   4.690   4.771   6.129 -0.2502  1.0148 -0.0513
   11MOL    O27  847   4.771   4.675   6.195  0.2578  0.1401  0.3170
   11MOL    H28  848   4.712   4.863   6.183 -3.0939  1.8228 -0.2098
   11MOL    H29  849   4.722   4.793   6.027  0.6077  0.1835  0.0282
   11MOL    C30  850   4.909   4.703   6.183  0.1401  0.1434  0.4223
   11MOL    O31  851   4.941   4.821   6.242 -0.0936  0.1304  0.8604
   11MOL    H32  852   4.948   4.723   6.084  0.7416  0.4264  0.7151
   11MOL    H33  853   4.963   4.616   6.220  0.8020 -0.0608 -0.9765
   11MOL    C34  854   4.946   4.807   6.376  0.0882  0.0841 -0.4015
   11MOL    O35  855   5.078   4.768   6.414  0.2086 -0.9032 -0.7227
   11MOL    H36  856   4.865   4.746   6.416 -0.6845  1.4937  0.2244
   11MOL    H37  857   4.929   4.907   6.416  1.0771 -1.2558  3.5059
   11MOL    C38  858   5.106   4.792   6.550 -0.5469  0.1895  0.1025
   11MOL    O39  859   5.096   4.925   6.583 -0.4232 -0.5892  0.0664
   11MOL    H40  860   5.208   4.759   6.569 -0.6674 -0.1691  0.1463
   11MOL    H41  861   5.031   4.743   6.613  1.1253 -3.1976 -0.3932
   11MOL    C42  862   5.189   5.001   6.512 -0.1787 -0.4267 -0.6163
   11MOL    O43  863   5.322   4.950   6.516  0.0554  0.5890  0.3841
   11MOL    H44  864   5.198   5.102   6.551  2.9792 -0.9235  0.1193
   11MOL    H45  865   5.160   5.001   6.408 -0.0676  2.0656 -0.6787
   11MOL    C46  866   5.402   4.984   6.624  0.7855 -0.9741 -0.5565
   11MOL    O47  867   5.460   5.109   6.617 -0.5536 -0.4270 -0.3770
   11MOL    H48  868   5.487   4.916   6.622  0.8744 -0.8500 -0.9610
   11MOL    H49  869   5.348   4.965   6.716  0.0136 -0.7679 -0.9619
   11MOL    C50  870   5.555   5.115   6.516 -1.0561 -0.4237 -0.4743
   11MOL    O51  871   5.680   5.070   6.576 -0.1963 -0.1963  0.5839
   11MOL    H52  872   5.568   5.212   6.469  3.5019 -1.0553 -0.7391
   11MOL    H53  873   5.529   5.048   6.434 -2.1157  1.7186 -1.9089
   11MOL    C54  874   5.734   5.173   6.648  0.5401 -0.1194  0.0674
   11MOL    O55  875   5.867   5.167   6.675 -0.4682 -0.8358 -0.3379
   11MOL    H56  876   5.677   5.183   6.741 -1.3066  2.2522 -1.2634
   11MOL    H57  877   5.733   5.263   6.587  2.3427 -0.7735 -0.9767
   11MOL    C58  878   5.910   5.062   6.748  0.6446 -0.0304  0.0384
   11MOL    O59  879   5.857   5.063   6.880 -0.2059  0.0449  0.9348
   11MOL    H60  880   6.018   5.058   6.762  0.6030  2.0368  1.0940
   11MOL    H61  881   5.894   4.969   6.694 -0.3732  1.2072 -1.8107
   11MOL    C62  882   5.804   4.946   6.932  0.0845  0.2535  0.7184
   11MOL    O63  883   5.897   4.840   6.955  0.3450 -0.6862  0.1690
   11MOL    H64  884   5.741   4.906   6.852 -0.6972 -0.0891  1.4952
   11MOL    H65  885   5.741   4.968   7.018 -0.0182  0.2337  0.6482
   11MOL    C66  886   5.991   4.854   7.065 -0.5625 -0.0555  0.2689
   11MOL    O67  887   6.080   4.960   7.051  0.4180 -0.1390 -0.3575
   11MOL    H68  888   6.037   4.758   7.088  0.1176  0.5315  1.3747
   11MOL    H69  889   5.935   4.869   7.157  0.9018  4.2451  0.5541
   11MOL    C70  890   6.193   4.930   6.972  0.5656 -0.0130  0.0647
   11MOL    O71  891   6.274   4.832   7.025 -0.3976 -0.4164 -0.5044
   11MOL    H72  892   6.246   5.025   6.962  0.1500  0.3258  1.0657
   11MOL    H73  893   6.155   4.911   6.872  1.5179 -0.3528 -0.2375
   11MOL    C74  894   6.364   4.871   7.122 -0.7262 -0.2100  0.2329
   11MOL    O75  895   6.463   4.956   7.075  0.1831  0.2996 -0.3699
   11MOL    H76  896   6.407   4.773   7.141 -2.1674 -1.3781 -2.2613
   11MOL    H77  897   6.315   4.921   7.206  0.2375  1.3750 -0.1105
   11MOL    C78  898   6.530   4.903   6.965 -0.8512 -0.0113  0.1556
   11MOL    O79  899   6.607   5.004   6.914  0.5419 -0.3356  0.1252
   11MOL    H80  900   6.468   4.869   6.882  0.0618  0.4368 -0.7286
   11MOL    H81  901   6.593   4.818   6.991  0.9751  0.5479 -2.2742
   11MOL    H82  902   6.550   5.070   6.879  1.5407  0.8689  0.7157
   12MOL     C1  903   5.009   4.170   3.992  0.0155 -0.1100 -0.3437
   12MOL     O2  904   4.925   4.059   3.962  0.1975 -0.3535  0.1328
   12MOL     H3  905   4.955   4.251   4.040  3.5300  1.2942  1.4394
   12MOL     H4  906   5.095   4.157   4.058 -1.1414 -0.0245  1.2186
   12MOL     H5  907   5.055   4.221   3.907 -0.1026  0.0434 -0.3137
   12MOL     C6  908   4.830   4.100   3.863 -0.2582 -0.2028  0.1926
   12MOL     O7  909   4.742   4.188   3.925  0.2071  0.1485 -0.0964
   12MOL     H8  910   4.772   4.015   3.829 -2.1378  0.7832  0.8618
   12MOL     H9  911   4.878   4.154   3.781  0.9726  0.8768  1.5776
   12MOL    C10  912   4.631   4.130   3.989  0.2548  0.5271 -0.2341
   12MOL    O11  913   4.532   4.093   3.892  0.1367 -0.1734  0.3902
   12MOL    H12  914   4.586   4.202   4.057  0.0828  1.3202 -1.1756
   12MOL    H13  915   4.657   4.041   4.047  3.0774  1.3947 -0.0723
   12MOL    C14  916   4.412   4.044   3.948 -0.0648 -0.3572 -0.2896
   12MOL    O15  917   4.427   3.923   4.009 -0.5562  0.2022 -0.5526
   12MOL    H16  918   4.340   4.046   3.866 -1.1230  0.9725  0.6462
   12MOL    H17  919   4.371   4.124   4.009  1.5783  0.1318  0.2044
   12MOL    C18  920   4.463   3.828   3.918  0.3976  0.0019  0.6511
   12MOL    O19  921   4.392   3.717   3.946  0.2072 -0.5436  0.2425
   12MOL    H20  922   4.569   3.802   3.927  0.4476 -0.1194 -0.2597
   12MOL    H21  923   4.465   3.859   3.814  0.5003 -0.0255  0.6444
   12MOL    C22  924   4.262   3.725   3.905 -0.1529 -0.1313 -0.0206
   12MOL    O23  925   4.258   3.725   3.762 -0.2520 -0.2496  0.1297
   12MOL    H24  926   4.202   3.800   3.957 -0.0157 -0.6226  0.8621
   12MOL    H25  927   4.208   3.634   3.931 -2.1688  0.4827 -1.9334
   12MOL    C26  928   4.259   3.598   3.708  1.2202 -0.1070 -0.0194
   12MOL    O27  929   4.139   3.532   3.699 -0.1660 -0.4505  0.3429
   12MOL    H28  930   4.327   3.537   3.769  0.3865  0.2719  1.3181
   12MOL    H29  931   4.299   3.605   3.607  0.3678  0.2674 -0.3351
   12MOL    C30  932   4.053   3.591   3.602  0.2446 -0.1980 -0.1889
   12MOL    O31  933   3.936   3.530   3.600  0.2330 -0.0132 -0.1477
   12MOL    H32  934   4.104   3.565   3.510 -0.2142 -0.6126 -0.3269
   12MOL    H33  935   4.041   3.699   3.609  0.8083 -0.2999  4.1312
   12MOL    C34  936   3.851   3.574   3.700 -0.1194  0.3425 -0.7980
   12MOL    O35  937   3.805   3.707   3.667  0.3163 -0.2411 -0.3161
   12MOL    H36  938   3.906   3.563   3.793 -0.5756 -0.1104 -0.5848
   12MOL    H37  939   3.759   3.516   3.694 -0.8856  1.0808  2.8728
   12MOL    C38  940   3.719   3.764   3.758  0.4606  1.0399  0.3731
   12MOL    O39  941   3.784   3.791   3.879  0.1419  0.2114 -0.2057
   12MOL    H40  942   3.633   3.699   3.774  0.6781  0.7458  0.3713
   12MOL    H41  943   3.689   3.853   3.703  1.1614 -0.0206 -1.7865
   12MOL    C42  944   3.904   3.867   3.862 -0.0457 -0.4519 -0.1666
   12MOL    O43  945   3.962   3.892   3.988  0.4370 -0.2535 -0.2618
   12MOL    H44  946   3.883   3.958   3.807  0.1346 -0.2258  0.1383
   12MOL    H45  947   3.971   3.803   3.804  1.3074  0.0837  0.7834
   12MOL    C46  948   3.894   3.998   4.045 -0.2570 -0.2761 -0.0887
   12MOL    O47  949   3.944   4.122   4.003  0.3762  0.0028  0.0404
   12MOL    H48  950   3.909   3.987   4.152  0.8069  0.1531 -0.1877
   12MOL    H49  951   3.787   3.995   4.025 -0.3938  1.4534  0.2907
   12MOL    C50  952   4.077   4.148   4.042  0.1408  0.8017 -0.1333
   12MOL    O51  953   4.138   4.254   3.975 -0.5322  0.1956 -0.6316
   12MOL    H52  954   4.137   4.057   4.033 -1.5838 -0.4621  0.7706
   12MOL    H53  955   4.081   4.177   4.147  2.3440  6.4761 -1.5608
   12MOL    C54  956   4.072   4.371   3.999 -0.4093  0.3573  0.9165
   12MOL    O55  957   4.064   4.397   4.136 -0.1349  0.1638 -0.9498
   12MOL    H56  958   3.973   4.361   3.955  0.2777 -0.0946 -0.5673
   12MOL    H57  959   4.105   4.462   3.949 -0.8067  0.3293  0.6007
   12MOL    C58  960   4.171   4.469   4.193  0.2107 -0.0796 -0.2095
   12MOL    O59  961   4.193   4.593   4.140  0.3964 -0.4100 -0.2189
   12MOL    H60  962   4.265   4.420   4.167 -0.6750 -1.6693 -0.4282
   12MOL    H61  963   4.158   4.472   4.301  0.8768  0.9360 -0.1521
   12MOL    C62  964   4.139   4.697   4.220 -0.2995 -0.2585 -0.5842
   12MOL    O63  965   4.203   4.702   4.346 -0.5813  0.5671  0.0372
   12MOL    H64  966   4.035   4.671   4.234  0.1274 -1.8009 -0.1808
   12MOL    H65  967   4.152   4.793   4.171 -1.7589  0.3479  0.2070
   12MOL    C66  968   4.173   4.821   4.419  0.4410  0.9105  0.1328
   12MOL    O67  969   4.043   4.820   4.479  0.3328  0.2144  0.8832
   12MOL    H68  970   4.178   4.907   4.352  0.9163 -0.5050 -1.7200
   12MOL    H69  971   4.251   4.843   4.491  1.9747 -0.5121 -1.0516
   12MOL    C70  972   4.032   4.743   4.601  0.2452  0.2777  0.6853
   12MOL    O71  973   4.092   4.612   4.597  0.2623  0.2293 -0.1077
   12MOL    H72  974   3.930   4.729   4.637 -0.5697  0.3436 -1.5326
   12MOL    H73  975   4.081   4.801   4.679  1.1891 -1.3304  1.3058
   12MOL    C74  976   4.017   4.521   4.531 -0.1503  0.6188 -0.0543
   12MOL    O75  977   3.913   4.478   4.608 -0.4682 -0.4995  0.4600
   12MOL    H76  978   4.083   4.440   4.499  0.6891  0.3889  2.2089
   12MOL    H77  979   3.987   4.558   4.433 -1.3236  2.8601  1.1242
   12MOL    C78  980   3.967   4.380   4.697 -0.0147 -0.4125 -0.1999
   12MOL    O79  981   3.860   4.300   4.759  0.0206 -0.1041  0.4340
   12MOL    H80  982   4.013   4.436   4.778 -0.4470  0.8868 -0.8378
   12MOL    H81  983   4.034   4.306   4.653  0.3186 -1.2492  1.6969
   12MOL    H82  984   3.817   4.254   4.688 -1.4133  1.6450  0.1443
   13MOL     C1  985   1.126   2.096   6.507  0.8134 -0.3701 -0.3144
   13MOL     O2  986   1.051   2.107   6.388 -0.9821  0.3319  0.0446
   13MOL     H3  987   1.065   2.032   6.570 -0.1732 -0.3506 -1.2449
   13MOL     H4  988   1.220   2.047   6.481  2.1276  2.6149 -1.5211
   13MOL     H5  989   1.138   2.192   6.559 -0.4449 -0.2195 -0.3038
   13MOL     C6  990   1.100   2.193   6.289  0.1674  0.5236 -0.1362
   13MOL     O7  991   1.094   2.327   6.330  0.1415  0.1249  0.7194
   13MOL     H8  992   1.041   2.205   6.198  1.3305  4.1077 -0.4960
   13MOL     H9  993   1.194   2.144   6.263 -0.1599  0.2575 -0.8350
   13MOL    C10  994   0.959   2.379   6.333 -0.1115  0.7301 -0.0581
   13MOL    O11  995   0.888   2.386   6.204  0.2307 -0.0408 -0.8578
   13MOL    H12  996   0.967   2.474   6.386  1.4229  1.2153 -1.1346
   13MOL    H13  997   0.906   2.309   6.398  0.9903 -0.0325  0.0208
   13MOL    C14  998   0.952   2.465   6.108 -0.2851  0.0874 -0.0215
   13MOL    O15  999   0.959   2.596   6.149  0.2049  0.0748 -0.2857
   13MOL    H16 1000   0.899   2.455   6.013  3.9994  0.0392 -2.5550
   13MOL    H17 1001   1.052   2.422   6.111 -0.6613 -0.9379 -1.4956
   13MOL    C18 1002   0.844   2.669   6.118 -0.1664 -0.7467  0.5404
   13MOL    O19 1003   0.840   2.707   5.984 -0.3155  0.2047  0.3349
   13MOL    H20 1004   0.835   2.752   6.187  0.0652 -1.3946  1.3622
   13MOL    H21 1005   0.752   2.610   6.113  0.4670 -1.6024 -1.6546
   13MOL    C22 1006   0.901   2.834   5.970  0.0488 -0.4652  0.1138
   13MOL    O23 1007   0.838   2.947   6.026  0.1617 -0.0414 -0.2141
   13MOL    H24 1008   0.944   2.859   5.872  1.9089  0.8146  1.2215
   13MOL    H25 1009   0.990   2.827   6.032 -0.0633  2.6411  0.7111
   13MOL    C26 1010   0.731   2.987   5.949  0.9376 -0.2926  0.1748
   13MOL    O27 1011   0.768   3.009   5.822 -0.1831  0.1067 -0.9596
   13MOL    H28 1012   0.693   3.081   5.989 -2.1357 -0.6841 -1.7039
   13MOL    H29 1013   0.657   2.908   5.961  1.2550 -0.4606  1.0589
   13MOL    C30 1014   0.666   3.045   5.741  0.5914  0.8480  0.2823
   13MOL    O31 1015   0.574   2.935   5.708 -0.2512  0.3380  0.4760
   13MOL    H32 1016   0.697   3.087   5.646 -1.1181 -0.9352 -1.0835
   13MOL    H33 1017   0.607   3.125   5.786 -0.5908 -0.3282  0.8458
   13MOL    C34 1018   0.604   2.867   5.586  0.4451  0.3408  0.8131
   13MOL    O35 1019   0.573   2.947   5.479 -0.1951 -0.0470 -0.1619
   13MOL    H36 1020   0.547   2.775   5.574  0.9294  0.4004 -2.1775
   13MOL    H37 1021   0.710   2.845   5.594  0.6743  1.4139  0.7289
   13MOL    C38 1022   0.432   2.953   5.453  0.0463 -0.1617 -0.4973
   13MOL    O39 1023   0.397   2.842   5.376 -0.5234  0.4654 -0.4629
   13MOL    H40 1024   0.404   3.045   5.403  0.1618  1.3474  2.0806
   13MOL    H41 1025   0.378   2.968   5.547 -1.1135  1.0644 -1.3593
   13MOL    C42 1026   0.447   2.858   5.249 -0.2763 -0.3570  0.1633
   13MOL    O43 1027   0.386   2.962   5.181 -0.2789  0.5105 -0.4452
   13MOL    H44 1028   0.422   2.765   5.199 -0.1665 -1.8383  2.7686
   13MOL    H45 1029   0.556   2.863   5.253 -0.2737 -0.4438  0.2018
   13MOL    C46 1030   0.456   3.017   5.084  0.7202 -0.1261  0.2436
   13MOL    O47 1031   0.546   3.111   5.126 -0.1739 -0.3201  0.2645
   13MOL    H48 1032   0.389   3.063   5.011  1.3819 -2.0763 -1.6489
   13MOL    H49 1033   0.511   2.938   5.032  1.8397  2.6368 -3.0165
   13MOL    C50 1034   0.485   3.237   5.122 -0.4936 -0.3894  0.4186
   13MOL    O51 1035   0.497   3.306   5.002 -0.3823 -0.1515  0.3819
   13MOL    H52 1036   0.544   3.303   5.186 -0.2101 -0.6467  0.4229
   13MOL    H53 1037   0.383   3.230   5.160  0.1093 -0.4093  2.0833
   13MOL    C54 1038   0.623   3.313   4.953 -1.1870 -0.1966  0.2855
   13MOL    O55 1039   0.626   3.367   4.823  0.4608 -0.1342 -0.5330
   13MOL    H56 1040   0.670   3.215   4.944 -0.4224  0.1854  0.0550
   13MOL    H57 1041   0.692   3.368   5.018  2.0959 -1.7590 -1.7862
   13MOL    C58 1042   0.602   3.506   4.831 -0.3266 -0.7494  0.8473
   13MOL    O59 1043   0.719   3.574   4.859  0.1657  0.6218 -0.3775
   13MOL    H60 1044   0.523   3.518   4.905 -1.2642 -1.0409 -0.0822
   13MOL    H61 1045   0.555   3.533   4.736  0.6122  0.8536  0.8281
   13MOL    C62 1046   0.819   3.553   4.759  0.2787 -0.6993 -0.5513
   13MOL    O63 1047   0.924   3.641   4.784 -0.0812 -0.3862 -0.2919
   13MOL    H64 1048   0.786   3.581   4.658  0.1186  1.1655 -0.0169
   13MOL    H65 1049   0.865   3.455   4.752 -0.2815 -0.9763 -0.4465
   13MOL    C66 1050   1.006   3.603   4.888 -0.4358 -0.1295 -0.3521
   13MOL    O67 1051   1.102   3.706   4.905  0.4735 -0.3074 -0.0643
   13MOL    H68 1052   1.036   3.501   4.863  3.3802  0.6741  0.7185
   13MOL    H69 1053   0.939   3.582   4.972  2.4685 -0.8805  1.8433
   13MOL    C70 1054   1.201   3.712   4.809  0.1709 -0.3652 -0.2756
   13MOL    O71 1055   1.276   3.826   4.844  0.2504 -0.4283 -0.5530
   13MOL    H72 1056   1.153   3.714   4.711 -0.0689 -0.9780 -0.1716
   13MOL    H73 1057   1.267   3.627   4.824  1.8595  1.2000  1.5030
   13MOL    C74 1058   1.205   3.943   4.805  0.2826  0.3636 -0.6938
   13MOL    O75 1059   1.279   4.058   4.831  0.1481 -0.3002  0.5140
   13MOL    H76 1060   1.110   3.954   4.857  0.1034  1.6448 -1.2756
   13MOL    H77 1061   1.177   3.930   4.700  0.7994 -1.3364 -0.6276
   13MOL    C78 1062   1.387   4.067   4.750  0.2094 -0.3292  0.9474
   13MOL    O79 1063   1.484   4.149   4.812  0.7698  0.1677  0.4963
   13MOL    H80 1064   1.358   4.110   4.654 -0.0566 -0.1178  1.1200
   13MOL    H81 1065   1.437   3.974   4.724  0.2104 -0.8610  2.7845
   13MOL    H82 1066   1.454   4.238   4.807 -2.4285 -0.8338  0.6731
   14MOL     C1 1067   3.211   5.338   3.764  0.1318 -0.2998 -0.6374
   14MOL     O2 1068   3.085   5.311   3.703 -0.4330 -0.2346  0.5136
   14MOL     H3 1069   3.209   5.330   3.873 -0.3496 -1.5559 -0.7316
   14MOL     H4 1070   3.286   5.259   3.747 -1.5838 -2.5073  1.6850
   14MOL     H5 1071   3.251   5.437   3.742  1.9161 -0.2156  2.6118
   14MOL     C6 1072   3.083   5.311   3.568 -0.3191 -0.1468  0.3196
   14MOL     O7 1073   2.952   5.280   3.536  0.1035  0.1918 -0.7571
   14MOL     H8 1074   3.157   5.241   3.529 -0.7430 -1.3151  1.5895
   14MOL     H9 1075   3.095   5.416   3.540 -0.5627 -0.1211  0.3135
   14MOL    C10 1076   2.918   5.146   3.533  0.1533  0.1557  0.3155
   14MOL    O11 1077   2.994   5.069   3.450 -0.1692 -0.0417  0.3207
   14MOL    H12 1078   2.814   5.138   3.501  0.0723  1.2756  0.2812
   14MOL    H13 1079   2.929   5.113   3.636  3.1203  4.6691  1.6111
   14MOL    C14 1080   2.948   5.074   3.321 -0.1156 -0.0628 -0.0374
   14MOL    O15 1081   3.032   4.994   3.233 -0.5887  0.1080 -0.2609
   14MOL    H16 1082   2.952   5.178   3.289  1.8957 -0.0878  0.0386
   14MOL    H17 1083   2.852   5.023   3.311 -0.3454  0.6501 -1.6304
   14MOL    C18 1084   3.161   5.049   3.209  0.1000 -0.2433  0.6222
   14MOL    O19 1085   3.162   5.137   3.109 -0.5118  0.0480 -0.1931
   14MOL    H20 1086   3.233   4.967   3.202  0.6273  0.2287  0.5512
   14MOL    H21 1087   3.191   5.108   3.295 -0.3142 -0.1144  0.6786
   14MOL    C22 1088   3.173   5.085   2.980 -0.2260 -0.2744  0.0577
   14MOL    O23 1089   3.221   5.180   2.886 -0.6163  0.0736  0.2817
   14MOL    H24 1090   3.076   5.040   2.958  0.0531 -1.1218  0.5369
   14MOL    H25 1091   3.237   4.997   2.982 -1.1282 -1.0240 -2.3336
   14MOL    C26 1092   3.132   5.289   2.872  0.2347  0.1405  0.2346
   14MOL    O27 1093   3.155   5.370   2.755  0.0597 -0.8195 -0.4999
   14MOL    H28 1094   3.145   5.357   2.956  1.0484  1.3123 -0.8202
   14MOL    H29 1095   3.028   5.257   2.871  1.1003 -2.8536  0.8921
   14MOL    C30 1096   3.133   5.302   2.641  0.6148 -0.2591 -0.0612
   14MOL    O31 1097   2.997   5.273   2.629  0.1182  0.1438  0.0614
   14MOL    H32 1098   3.186   5.207   2.644  0.0751 -0.5559  4.3722
   14MOL    H33 1099   3.168   5.362   2.558 -2.1451 -1.4076 -2.1544
   14MOL    C34 1100   2.970   5.161   2.549  0.4663  0.0622 -0.5205
   14MOL    O35 1101   2.970   5.040   2.615  0.6285  0.2477 -0.1155
   14MOL    H36 1102   3.052   5.161   2.477  1.0083  0.2457  0.0953
   14MOL    H37 1103   2.874   5.189   2.504  0.7547 -0.7060 -1.6409
   14MOL    C38 1104   2.864   5.018   2.705 -0.1597  0.0433 -0.3878
   14MOL    O39 1105   2.755   4.968   2.629 -0.2308 -0.0979  0.6348
   14MOL    H40 1106   2.831   5.115   2.743 -0.4843 -0.2449  0.0713
   14MOL    H41 1107   2.888   4.958   2.793  0.0832  1.3104  0.4347
   14MOL    C42 1108   2.768   4.827   2.597 -0.4318  0.4701  0.3371
   14MOL    O43 1109   2.779   4.746   2.719  0.1402 -0.6131 -1.0631
   14MOL    H44 1110   2.861   4.801   2.547 -1.5222 -3.0535  0.0012
   14MOL    H45 1111   2.689   4.790   2.532  1.3888  1.2178 -2.4052
   14MOL    C46 1112   2.661   4.742   2.790  0.1007 -0.1008  0.1323
   14MOL    O47 1113   2.646   4.626   2.867 -0.2228 -0.8418  0.4407
   14MOL    H48 1114   2.575   4.744   2.723 -0.3101  3.6280  0.6492
   14MOL    H49 1115   2.655   4.824   2.861  0.7138  1.2284 -1.3166
   14MOL    C50 1116   2.755   4.603   2.951  0.4112 -0.5742 -0.7358
   14MOL    O51 1117   2.792   4.721   3.030 -0.2623  0.1585  0.3320
   14MOL    H52 1118   2.840   4.558   2.901  1.0074 -0.4731  0.1670
   14MOL    H53 1119   2.734   4.527   3.026 -2.9795  2.3424  1.4198
   14MOL    C54 1120   2.703   4.751   3.129 -0.0264  0.0759  0.4099
   14MOL    O55 1121   2.685   4.650   3.230  0.0849  0.9410  0.3268
   14MOL    H56 1122   2.606   4.772   3.083 -0.3360  0.1367  1.0818
   14MOL    H57 1123   2.739   4.839   3.182 -1.4212 -0.1417  1.7364
   14MOL    C58 1124   2.594   4.695   3.320  0.4476 -0.3470 -0.2575
   14MOL    O59 1125   2.637   4.798   3.397  0.4322 -0.5887 -0.0912
   14MOL    H60 1126   2.565   4.606   3.377 -2.3644  1.6586  1.6111
   14MOL    H61 1127   2.500   4.737   3.282 -0.4673 -0.1496  2.1026
   14MOL    C62 1128   2.735   4.762   3.492  0.1535  0.1809  0.4616
   14MOL    O63 1129   2.689   4.678   3.590  0.6575 -0.4630 -0.2930
   14MOL    H64 1130   2.777   4.856   3.529 -1.2780  0.6623  0.9118
   14MOL    H65 1131   2.818   4.707   3.446  1.4463  0.7298  2.1041
   14MOL    C66 1132   2.664   4.748   3.711 -0.8224 -0.3518  0.5934
   14MOL    O67 1133   2.775   4.806   3.766 -0.3802  0.3292 -0.0307
   14MOL    H68 1134   2.611   4.693   3.789 -3.2585 -0.3974 -1.0273
   14MOL    H69 1135   2.604   4.838   3.696  0.7230  0.7801  1.0388
   14MOL    C70 1136   2.857   4.714   3.827  0.4636  0.4754  0.0209
   14MOL    O71 1137   2.811   4.676   3.951  0.6105 -0.2385  0.4999
   14MOL    H72 1138   2.956   4.758   3.844  0.8962 -0.3573 -0.3231
   14MOL    H73 1139   2.873   4.621   3.773  0.6776  0.0117  0.8724
   14MOL    C74 1140   2.818   4.776   4.043 -0.8632  0.0716 -0.2444
   14MOL    O75 1141   2.946   4.795   4.092 -0.2781  0.0680 -0.0119
   14MOL    H76 1142   2.748   4.764   4.125 -1.3544  2.9097 -0.1932
   14MOL    H77 1143   2.782   4.874   4.010 -2.2953  0.1670  1.5578
   14MOL    C78 1144   3.002   4.676   4.151  0.1087  0.2158  0.5321
   14MOL    O79 1145   3.127   4.701   4.205 -0.3009  0.6041 -0.1563
   14MOL    H80 1146   3.012   4.608   4.066  0.6807  1.3028 -0.2811
   14MOL    H81 1147   2.939   4.630   4.227 -1.2350  0.9560 -0.1223
   14MOL    H82 1148   3.192   4.716   4.139  0.6787 -0.3433  0.5721
   15MOL     C1 1149   7.741   0.072   2.760 -0.2901  0.2914 -0.7121
   15MOL     O2 1150   0.001   7.769   2.658  0.3729 -0.5123 -0.5838
   15MOL     H3 1151   7.769   0.015   2.849  0.3265 -0.0898 -1.1478
   15MOL     H4 1152   7.783   0.172   2.770  0.3046  0.0012 -0.2138
   15MOL     H5 1153   7.633   0.083   2.754 -0.0422  2.2761 -1.6890
   15MOL     C6 1154   0.133   7.778   2.628  0.0294 -0.0319  0.0169
   15MOL     O7 1155   0.213   7.713   2.718 -0.0204  0.1179 -0.2618
   15MOL     H8 1156   0.173   0.095   2.623  0.2630 -0.0893  0.6718
   15MOL     H9 1157   0.148   7.727   2.533 -3.0076 -1.6866  0.3417
   15MOL    C10 1158   0.199   7.570   2.719  0.0363 -0.2574  0.4860
   15MOL    O11 1159   0.252   7.514   2.594  0.1578  0.4211 -0.8116
   15MOL    H12 1160   0.098   7.535   2.738 -0.6877  1.8614  0.7029
   15MOL    H13 1161   0.252   7.529   2.805  1.4714 -0.7574 -0.6178
   15MOL    C14 1162   0.392   7.485   2.595 -0.1274 -0.2870  0.3737
   15MOL    O15 1163   0.430   7.364   2.658  0.2223  0.0650 -0.0843
   15MOL    H16 1164   0.445   7.557   2.657  0.2548 -1.4605  1.4514
   15MOL    H17 1165   0.435   7.493   2.496 -1.1038 -0.4658 -0.0743
   15MOL    C18 1166   0.368   7.249   2.606  0.1500 -0.0544 -0.0312
   15MOL    O19 1167   0.418   7.221   2.479 -0.7143  0.7948  0.4263
   15MOL    H20 1168   0.261   7.263   2.590  0.3511  0.8252 -0.6205
   15MOL    H21 1169   0.386   7.174   2.684 -0.8104  0.1521  0.3974
   15MOL    C22 1170   0.548   7.168   2.480 -0.2529  0.0560  0.2639
   15MOL    O23 1171   0.541   7.038   2.529 -0.3999 -0.7435 -0.2174
   15MOL    H24 1172   0.613   7.222   2.549  0.5133  0.8586 -1.0644
   15MOL    H25 1173   0.584   7.178   2.377 -0.8669 -2.8140 -0.2623
   15MOL    C26 1174   0.538   6.945   2.432  0.2594  0.3938 -0.0710
   15MOL    O27 1175   0.667   6.908   2.395 -0.2040  0.1982  0.3432
   15MOL    H28 1176   0.472   6.968   2.348 -0.5432 -0.1279  0.4105
   15MOL    H29 1177   0.509   6.848   2.472  1.5821  0.1760  0.4121
   15MOL    C30 1178   0.728   6.814   2.480 -0.6462  0.6941 -0.3319
   15MOL    O31 1179   0.665   6.692   2.467  0.1769 -0.3241 -0.1160
   15MOL    H32 1180   0.744   6.828   2.587 -0.8086 -1.1533 -0.0570
   15MOL    H33 1181   0.835   6.819   2.456 -0.3595  0.2258  0.8261
   15MOL    C34 1182   0.755   6.588   2.437  0.0806 -0.3840 -0.1447
   15MOL    O35 1183   0.834   6.546   2.545 -0.3672 -0.1770  0.2389
   15MOL    H36 1184   0.824   6.612   2.356 -0.2174  0.4623 -0.1487
   15MOL    H37 1185   0.696   6.503   2.400 -3.5042  0.6326  2.9151
   15MOL    C38 1186   0.774   6.479   2.649  0.1685  0.3455  0.5641
   15MOL    O39 1187   0.732   6.351   2.602 -0.2927 -0.0076  0.7162
   15MOL    H40 1188   0.681   6.532   2.670 -0.4091 -0.0403 -0.9097
   15MOL    H41 1189   0.851   6.483   2.726  2.9989  1.3751 -2.1926
   15MOL    C42 1190   0.834   6.257   2.599  0.1408 -0.7604  0.5980
   15MOL    O43 1191   0.839   6.175   2.715 -0.1913  0.6100 -0.3269
   15MOL    H44 1192   0.936   6.294   2.586 -0.1846  0.6802  1.9825
   15MOL    H45 1193   0.813   6.187   2.518 -1.1740 -1.7627  1.7717
   15MOL    C46 1194   0.725   6.099   2.728  0.1943 -0.1158  0.3100
   15MOL    O47 1195   0.708   6.005   2.625  0.5769 -0.4994  0.0508
   15MOL    H48 1196   0.643   6.170   2.738 -1.9226 -2.1530 -1.8281
   15MOL    H49 1197   0.732   6.054   2.827  0.9015 -2.1084 -0.6068
   15MOL    C50 1198   0.786   5.893   2.645  0.2707 -0.1403  0.2575
   15MOL    O51 1199   0.772   5.786   2.560 -0.3383 -0.0391 -0.2780
   15MOL    H52 1200   0.771   5.846   2.743  0.5085  0.8874  0.7932
   15MOL    H53 1201   0.891   5.921   2.653  0.5470 -1.0100 -0.1972
   15MOL    C54 1202   0.810   5.821   2.427 -0.0601  0.4529 -0.6524
   15MOL    O55 1203   0.765   5.727   2.337  0.2846 -0.0961  0.1885
   15MOL    H56 1204   0.918   5.814   2.432 -0.1151 -0.2364 -0.2986
   15MOL    H57 1205   0.763   5.915   2.398  1.6130  0.9037 -1.9404
   15MOL    C58 1206   0.621   5.712   2.322  0.4943  0.1174 -0.7395
   15MOL    O59 1207   0.589   5.616   2.226  0.5170  0.0322  0.5969
   15MOL    H60 1208   0.585   5.812   2.297  0.2505  0.7557  2.0403
   15MOL    H61 1209   0.577   5.683   2.417  0.0175  0.0190 -0.9884
   15MOL    C62 1210   0.651   5.641   2.102 -0.2018 -0.5823  0.9045
   15MOL    O63 1211   0.606   5.748   2.028 -0.7284  0.2221 -0.3334
   15MOL    H64 1212   0.632   5.555   2.038  0.5925 -0.0152 -0.0997
   15MOL    H65 1213   0.759   5.652   2.100 -0.1904 -0.2343  2.7607
   15MOL    C66 1214   0.486   5.726   1.966  0.5319  0.2441 -0.0778
   15MOL    O67 1215   0.498   5.632   1.865 -0.1610 -0.3393  0.2031
   15MOL    H68 1216   0.443   5.820   1.933  0.3896  0.7088  1.3969
   15MOL    H69 1217   0.421   5.699   2.049  2.0855 -0.7971  0.8297
   15MOL    C70 1218   0.546   5.690   1.743  0.3481 -0.1989 -0.3346
   15MOL    O71 1219   0.459   5.790   1.697  0.3993  0.0477 -0.3015
   15MOL    H72 1220   0.563   5.607   1.675 -0.0788  1.2529 -2.2336
   15MOL    H73 1221   0.643   5.739   1.760  0.4749 -0.3485 -0.6294
   15MOL    C74 1222   0.365   5.758   1.598 -0.8433 -0.3300  0.2610
   15MOL    O75 1223   0.283   5.865   1.566 -0.2358  0.0615 -0.1299
   15MOL    H76 1224   0.307   5.675   1.639 -0.3941 -1.5264 -1.4809
   15MOL    H77 1225   0.414   5.715   1.511 -0.9181  0.2585 -0.0719
   15MOL    C78 1226   0.250   5.941   1.680 -0.3353  0.3440  0.3035
   15MOL    O79 1227   0.157   6.040   1.652  0.2143  0.0580  0.1042
   15MOL    H80 1228   0.334   6.000   1.717  1.0390 -0.4930 -1.4042
   15MOL    H81 1229   0.210   5.871   1.753 -0.8086 -1.1359 -1.3426
   15MOL    H82 1230   0.190   6.123   1.682  0.1786  0.4111 -0.7949
   16MOL     C1 1231   2.241   4.133   4.248  0.4409 -0.1351 -0.2940
   16MOL     O2 1232   2.195   4.117   4.377  0.0319  0.2433 -0.0376
   16MOL     H3 1233   2.299   4.044   4.222 -0.6784 -0.9695 -0.0061
   16MOL     H4 1234   2.167   4.147   4.169  0.7492  1.4428 -0.3056
   16MOL     H5 1235   2.304   4.222   4.246  1.7616 -1.0092  1.3118
   16MOL     C6 1236   2.107   4.015   4.400  0.3808 -0.2639 -0.3573
   16MOL     O7 1237   2.172   3.891   4.435  0.0000 -0.3563 -0.0454
   16MOL     H8 1238   2.025   4.010   4.329 -0.9072  0.7091  1.0382
   16MOL     H9 1239   2.059   4.054   4.489  1.7721 -0.5852  0.5527
   16MOL    C10 1240   2.082   3.798   4.488 -1.2576 -0.6254 -0.7440
   16MOL    O11 1241   2.008   3.729   4.388 -0.0824  0.8683 -0.2039
   16MOL    H12 1242   2.021   3.843   4.566 -0.2504 -2.0375  0.9070
   16MOL    H13 1243   2.146   3.720   4.529  0.4408  0.6054 -1.0122
   16MOL    C14 1244   1.934   3.619   4.432 -0.3683  0.3861  0.2111
   16MOL    O15 1245   2.006   3.511   4.429 -0.4707  0.1220  0.3108
   16MOL    H16 1246   1.847   3.601   4.368  1.0627  0.0011 -1.6802
   16MOL    H17 1247   1.886   3.621   4.530  1.1829 -0.5979  1.0129
   16MOL    C18 1248   2.056   3.471   4.301 -0.5868  0.1093 -0.1106
   16MOL    O19 1249   1.954   3.386   4.239  0.0721 -1.1272  0.0454
   16MOL    H20 1250   2.157   3.434   4.319 -1.1949 -1.0887  0.8779
   16MOL    H21 1251   2.083   3.555   4.236 -1.0195 -1.0146 -1.7554
   16MOL    C22 1252   1.946   3.252   4.287 -0.9182 -0.1428  0.1796
   16MOL    O23 1253   2.072   3.188   4.277  0.3389  0.0096 -0.6131
   16MOL    H24 1254   1.870   3.200   4.230 -2.0785  1.2977  0.3706
   16MOL    H25 1255   1.915   3.261   4.392  0.3166 -0.9402  0.6201
   16MOL    C26 1256   2.112   3.154   4.145 -0.2380 -0.0182  0.0133
   16MOL    O27 1257   2.023   3.072   4.083  0.1817 -0.1829 -0.5392
   16MOL    H28 1258   2.211   3.107   4.147 -0.2816 -0.0746  0.9734
   16MOL    H29 1259   2.114   3.241   4.080 -0.7632 -0.9491 -1.2752
   16MOL    C30 1260   2.040   2.935   4.115 -0.6342 -0.1521 -0.8039
   16MOL    O31 1261   2.017   2.859   4.003  0.0029 -0.0309  0.1152
   16MOL    H32 1262   1.963   2.901   4.184 -0.6809 -3.1046 -2.2338
   16MOL    H33 1263   2.143   2.901   4.130 -0.6333 -0.5771 -1.6951
   16MOL    C34 1264   1.879   2.878   3.967 -0.3908  0.8704  0.6321
   16MOL    O35 1265   1.858   2.819   3.842  0.5113  0.3689 -0.3885
   16MOL    H36 1266   1.855   2.984   3.962  1.7600  1.3221 -0.3890
   16MOL    H37 1267   1.808   2.833   4.038 -1.8409  0.7157 -0.8819
   16MOL    C38 1268   1.883   2.683   3.844  0.1915 -0.3716  0.4613
   16MOL    O39 1269   1.779   2.610   3.785 -0.2499 -0.3605  0.1891
   16MOL    H40 1270   1.913   2.639   3.939  0.6316  0.4800  0.7222
   16MOL    H41 1271   1.970   2.661   3.782 -0.0282 -1.4480  0.5245
   16MOL    C42 1272   1.661   2.608   3.864 -0.3761  0.4801  0.7867
   16MOL    O43 1273   1.691   2.538   3.985 -0.8736 -0.3788  0.6958
   16MOL    H44 1274   1.581   2.575   3.798  0.1396  0.9744 -0.0965
   16MOL    H45 1275   1.639   2.713   3.883 -0.0690  0.5540  0.7369
   16MOL    C46 1276   1.571   2.469   4.020  0.4696 -0.2690  0.5045
   16MOL    O47 1277   1.469   2.548   4.075  0.1153 -0.1548 -0.7719
   16MOL    H48 1278   1.592   2.384   4.085  0.6148 -0.2357  0.5033
   16MOL    H49 1279   1.529   2.409   3.940 -1.8261  0.4682  1.1093
   16MOL    C50 1280   1.511   2.627   4.179 -0.3846 -0.4569  0.4242
   16MOL    O51 1281   1.492   2.564   4.300  0.1129  0.2123  0.9208
   16MOL    H52 1282   1.451   2.719   4.186  0.6652  0.1662  1.4776
   16MOL    H53 1283   1.617   2.651   4.171 -0.5023 -0.6893 -2.3975
   16MOL    C54 1284   1.372   2.594   4.364 -0.2406 -0.1815 -0.5611
   16MOL    O55 1285   1.379   2.727   4.419 -0.0225 -0.3057 -0.5956
   16MOL    H56 1286   1.356   2.522   4.444 -2.5572 -0.3739 -1.1654
   16MOL    H57 1287   1.283   2.590   4.302  1.3306 -0.2694 -2.8556
   16MOL    C58 1288   1.268   2.747   4.499  0.3376 -0.1990  0.6456
   16MOL    O59 1289   1.202   2.864   4.460  0.7066  0.1657  0.5317
   16MOL    H60 1290   1.296   2.752   4.604  0.7289 -0.9898  0.5829
   16MOL    H61 1291   1.196   2.665   4.494  1.7859 -1.4136 -0.7201
   16MOL    C62 1292   1.282   2.976   4.459  1.0282 -0.2191 -0.0085
   16MOL    O63 1293   1.201   3.091   4.442 -0.2878  0.0325  0.5596
   16MOL    H64 1294   1.360   2.977   4.383  0.7381  0.4131 -0.3031
   16MOL    H65 1295   1.331   2.978   4.556  0.5184  4.2407  0.2348
   16MOL    C66 1296   1.125   3.091   4.327  0.3089 -0.3067  0.0262
   16MOL    O67 1297   1.096   3.222   4.293 -0.8751  0.2769 -0.2587
   16MOL    H68 1298   1.036   3.028   4.322 -0.3864  0.7312 -0.9541
   16MOL    H69 1299   1.181   3.057   4.241  0.3836  2.3057 -1.0134
   16MOL    C70 1300   0.979   3.266   4.367 -1.0144 -0.2544 -0.1122
   16MOL    O71 1301   1.005   3.322   4.494  0.1753 -0.3034 -0.3368
   16MOL    H72 1302   0.909   3.183   4.382 -2.3790  0.3122 -2.9296
   16MOL    H73 1303   0.931   3.351   4.317 -0.8223 -0.0007  0.1305
   16MOL    C74 1304   1.096   3.427   4.492 -0.3752 -0.0314 -0.0770
   16MOL    O75 1305   1.160   3.444   4.612 -0.0047  0.2540  0.3296
   16MOL    H76 1306   1.051   3.522   4.461 -0.2054 -0.0551 -0.3887
   16MOL    H77 1307   1.174   3.398   4.422 -0.6788 -1.9330  0.3417
   16MOL    C78 1308   1.235   3.331   4.648  0.7992 -0.0168 -0.3361
   16MOL    O79 1309   1.326   3.361   4.747  0.7614 -0.1895  0.1964
   16MOL    H80 1310   1.282   3.278   4.565 -0.7777 -2.6767  0.3870
   16MOL    H81 1311   1.156   3.263   4.682 -0.5885  2.7821  2.2584
   16MOL    H82 1312   1.399   3.407   4.707  1.6135 -2.2942 -0.7549
   17MOL     C1 1313   0.663   4.406   3.022 -0.6593 -0.2544 -0.1221
   17MOL     O2 1314   0.755   4.429   3.126 -0.1611 -0.8611 -0.1115
   17MOL     H3 1315   0.708   4.377   2.927 -1.8465  1.8034 -1.3632
   17MOL     H4 1316   0.626   4.309   3.054  0.5430 -0.4442  0.7581
   17MOL     H5 1317   0.591   4.479   2.987 -0.8061  0.0073  0.7239
   17MOL     C6 1318   0.688   4.475   3.243 -0.0317  0.4917 -0.7845
   17MOL     O7 1319   0.634   4.365   3.317 -0.1966 -0.3189  0.2564
   17MOL     H8 1320   0.618   4.558   3.238 -0.7755 -0.0844 -0.0289
   17MOL     H9 1321   0.764   4.514   3.311  0.5537 -1.1475 -0.4772
   17MOL    C10 1322   0.548   4.403   3.418 -0.3720 -0.0405 -0.0388
   17MOL    O11 1323   0.611   4.485   3.504  0.0730  0.5474  0.3506
   17MOL    H12 1324   0.505   4.314   3.465 -3.3649  0.8509 -0.9625
   17MOL    H13 1325   0.465   4.457   3.373 -1.3454 -0.0125  1.7028
   17MOL    C14 1326   0.701   4.417   3.581 -0.1233  0.2039  0.4447
   17MOL    O15 1327   0.639   4.338   3.684 -0.6037 -0.0033  0.0005
   17MOL    H16 1328   0.770   4.487   3.628 -1.6651  2.4027 -0.4720
   17MOL    H17 1329   0.765   4.347   3.528 -1.2735 -0.5284 -0.0098
   17MOL    C18 1330   0.601   4.422   3.791  0.0359 -0.1437  0.5484
   17MOL    O19 1331   0.711   4.446   3.875  0.0767  0.3995  0.0064
   17MOL    H20 1332   0.521   4.368   3.841 -0.8683  1.5234  0.9570
   17MOL    H21 1333   0.550   4.507   3.746 -2.1483 -2.2820 -1.0819
   17MOL    C22 1334   0.669   4.515   3.985 -1.1637 -0.0881 -0.0618
   17MOL    O23 1335   0.608   4.630   3.948  0.0874  0.1873  0.2366
   17MOL    H24 1336   0.753   4.545   4.047 -1.8012  2.4732 -0.3987
   17MOL    H25 1337   0.602   4.453   4.046  0.7296  0.5149  2.7350
   17MOL    C26 1338   0.701   4.726   3.905  0.4083 -0.4546  0.4619
   17MOL    O27 1339   0.775   4.777   4.013  0.0130  0.0679  0.3039
   17MOL    H28 1340   0.654   4.813   3.859 -0.2495 -1.2508 -0.4226
   17MOL    H29 1341   0.771   4.693   3.828  0.6907  1.0055  0.0871
   17MOL    C30 1342   0.696   4.852   4.101  0.4840 -0.9408  0.3135
   17MOL    O31 1343   0.715   4.990   4.071  0.3752 -0.6363  0.1949
   17MOL    H32 1344   0.724   4.835   4.205 -1.4810  0.6750  1.1440
   17MOL    H33 1345   0.589   4.831   4.097  0.7072 -2.0987  0.3251
   17MOL    C34 1346   0.837   5.039   4.084  0.1725 -0.5329 -0.2109
   17MOL    O35 1347   0.872   5.045   4.216  0.3895  0.3648 -0.9672
   17MOL    H36 1348   0.835   5.143   4.052  2.7794 -0.7106 -1.0402
   17MOL    H37 1349   0.911   4.986   4.024 -0.8431 -1.0325 -1.0466
   17MOL    C38 1350   0.989   5.120   4.235 -0.3154 -0.1217  0.0885
   17MOL    O39 1351   1.100   5.055   4.170 -0.2193  0.7272 -0.2838
   17MOL    H40 1352   1.007   5.139   4.341 -0.1465 -0.2363  0.0792
   17MOL    H41 1353   0.964   5.216   4.189 -0.8824 -0.6001 -0.6165
   17MOL    C42 1354   1.129   4.927   4.237  0.3801 -0.1205  0.7329
   17MOL    O43 1355   1.245   4.867   4.210 -0.2291 -0.4321 -0.6065
   17MOL    H44 1356   1.059   4.852   4.198  1.4396 -1.0181  0.5280
   17MOL    H45 1357   1.110   4.937   4.343  0.8596  1.8653  0.6478
   17MOL    C46 1358   1.352   4.938   4.252 -0.3939 -0.2452  0.8754
   17MOL    O47 1359   1.472   4.888   4.203 -0.1802  0.2625  0.3454
   17MOL    H48 1360   1.344   4.944   4.360 -1.2698  1.9004  0.7220
   17MOL    H49 1361   1.356   5.044   4.224  1.4149 -0.5917 -0.2762
   17MOL    C50 1362   1.544   4.806   4.288 -0.3720  0.3431 -0.5441
   17MOL    O51 1363   1.487   4.682   4.295 -0.1937 -0.3409  0.1335
   17MOL    H52 1364   1.551   4.845   4.390 -1.1282 -0.3811 -0.2061
   17MOL    H53 1365   1.646   4.807   4.249  1.0911  1.6032  3.0702
   17MOL    C54 1366   1.532   4.583   4.202  0.1746 -0.0999 -0.7975
   17MOL    O55 1367   1.662   4.552   4.221  0.0342  0.1808 -0.3390
   17MOL    H56 1368   1.525   4.632   4.106 -2.4086  1.1185 -0.0252
   17MOL    H57 1369   1.478   4.488   4.196 -2.0063  1.0990 -0.7604
   17MOL    C58 1370   1.674   4.479   4.328 -0.5091 -0.0105 -0.1949
   17MOL    O59 1371   1.640   4.348   4.309 -0.2645 -0.2240  0.6486
   17MOL    H60 1372   1.625   4.514   4.419 -0.2524 -1.7381  0.6309
   17MOL    H61 1373   1.780   4.492   4.347 -0.9536  1.5369  1.3842
   17MOL    C62 1374   1.744   4.261   4.274  0.0862 -0.6968 -0.2996
   17MOL    O63 1375   1.825   4.249   4.387  0.3408  0.7081  0.2942
   17MOL    H64 1376   1.803   4.305   4.194  1.1143 -1.9163 -0.2411
   17MOL    H65 1377   1.719   4.159   4.245  1.5497 -0.7843 -1.2812
   17MOL    C66 1378   1.766   4.168   4.483 -0.4979 -0.4857  0.2165
   17MOL    O67 1379   1.769   4.033   4.443 -0.5148  0.2188 -0.3197
   17MOL    H68 1380   1.665   4.208   4.497 -0.3812  1.3243 -3.5172
   17MOL    H69 1381   1.824   4.183   4.574  3.0591 -0.8118 -1.9010
   17MOL    C70 1382   1.675   3.954   4.510  0.6483  0.1683 -0.1337
   17MOL    O71 1383   1.548   3.989   4.467  0.2724 -0.0796  0.6925
   17MOL    H72 1384   1.681   3.987   4.614 -0.6199 -0.5329  0.1804
   17MOL    H73 1385   1.695   3.847   4.507 -4.2344 -0.8419 -1.9879
   17MOL    C74 1386   1.512   3.933   4.345 -0.5310  0.5685 -0.4735
   17MOL    O75 1387   1.433   3.823   4.369  0.3982 -0.6328 -0.0287
   17MOL    H76 1388   1.600   3.911   4.285 -0.0440  1.0432  0.0605
   17MOL    H77 1389   1.468   4.013   4.285 -0.0515  0.3133 -1.1560
   17MOL    C78 1390   1.307   3.855   4.408  0.1322 -0.9722  0.3616
   17MOL    O79 1391   1.238   3.735   4.439 -0.1336 -0.1882  0.5340
   17MOL    H80 1392   1.238   3.901   4.337 -0.6181 -1.7686  0.5620
   17MOL    H81 1393   1.304   3.910   4.503 -0.2728 -0.2057 -0.0917
   17MOL    H82 1394   1.220   3.690   4.358 -1.2989 -0.5594  0.9911
   18MOL     C1 1395   6.118   3.212   4.850  0.3043 -0.0169 -0.3573
   18MOL     O2 1396   6.188   3.280   4.744  0.3692 -0.1057 -0.3771
   18MOL     H3 1397   6.145   3.265   4.941  2.0559 -0.1958 -0.7551
   18MOL     H4 1398   6.009   3.206   4.847  0.2891 -0.9299  1.1584
   18MOL     H5 1399   6.148   3.108   4.864  2.0360  0.4208 -0.7200
   18MOL     C6 1400   6.147   3.260   4.617 -0.1942  0.1205  0.2040
   18MOL     O7 1401   6.028   3.337   4.604  0.3097 -0.2026  0.1883
   18MOL     H8 1402   6.124   3.157   4.592 -1.3548  0.6993 -1.1894
   18MOL     H9 1403   6.222   3.296   4.546 -0.9307 -0.4188 -0.8671
   18MOL    C10 1404   6.040   3.475   4.610 -0.2828  0.2257  0.1125
   18MOL    O11 1405   6.089   3.524   4.487 -0.3771  0.3777 -0.0572
   18MOL    H12 1406   6.112   3.501   4.687 -0.7653  0.6460  0.4228
   18MOL    H13 1407   5.949   3.515   4.654  0.7347  2.0389  0.6160
   18MOL    C14 1408   5.985   3.542   4.402 -0.2130  0.0028  0.0274
   18MOL    O15 1409   5.904   3.647   4.445 -0.7960  0.2444  0.0491
   18MOL    H16 1410   5.928   3.450   4.391 -0.6197  0.2747 -0.1631
   18MOL    H17 1411   6.015   3.568   4.300 -1.4586  1.0054 -0.0891
   18MOL    C18 1412   5.790   3.684   4.377  0.2918 -0.1453  0.2472
   18MOL    O19 1413   5.671   3.610   4.426 -0.6538  0.6103  0.3598
   18MOL    H20 1414   5.799   3.674   4.269 -0.5786 -0.9072  0.2383
   18MOL    H21 1415   5.761   3.788   4.391 -0.2369 -0.2590  0.0158
   18MOL    C22 1416   5.644   3.639   4.565 -1.0663 -0.0480 -0.3435
   18MOL    O23 1417   5.522   3.587   4.601  0.2214 -0.1981 -0.3950
   18MOL    H24 1418   5.658   3.740   4.602 -2.9419  0.0349  0.1639
   18MOL    H25 1419   5.723   3.581   4.613 -1.0952 -0.7685 -1.1501
   18MOL    C26 1420   5.427   3.661   4.538 -0.3262  0.1973 -0.3391
   18MOL    O27 1421   5.423   3.793   4.580 -0.3016  0.3482  0.2282
   18MOL    H28 1422   5.329   3.615   4.555 -0.1613 -0.1233 -0.2527
   18MOL    H29 1423   5.437   3.655   4.430  0.4353  1.1343 -0.3225
   18MOL    C30 1424   5.409   3.881   4.476  0.2046  0.0784  0.3307
   18MOL    O31 1425   5.402   4.009   4.520  0.5291  0.9539 -0.2379
   18MOL    H32 1426   5.323   3.857   4.414  1.0213 -3.3087  0.4362
   18MOL    H33 1427   5.494   3.872   4.408  1.7506  0.0961  2.2195
   18MOL    C34 1428   5.507   4.041   4.611  0.6285 -0.4587 -0.1132
   18MOL    O35 1429   5.627   4.062   4.548 -0.0718 -0.0689  0.1506
   18MOL    H36 1430   5.515   3.967   4.690 -1.3711  0.9893  1.4795
   18MOL    H37 1431   5.472   4.131   4.661 -1.0974 -1.4200  0.4457
   18MOL    C38 1432   5.632   4.173   4.467 -0.3626 -0.0071  0.3356
   18MOL    O39 1433   5.603   4.289   4.545  0.6656  0.1963 -0.0114
   18MOL    H40 1434   5.564   4.162   4.382  0.5726 -1.1240 -0.2708
   18MOL    H41 1435   5.735   4.181   4.434 -0.5701 -1.1400 -0.6158
   18MOL    C42 1436   5.705   4.317   4.636 -0.1785  0.8035 -0.2526
   18MOL    O43 1437   5.802   4.394   4.567  0.0024  0.2561 -0.2500
   18MOL    H44 1438   5.755   4.227   4.673 -1.8958 -1.4198 -3.1416
   18MOL    H45 1439   5.663   4.376   4.718  2.1251  0.4064  1.2702
   18MOL    C46 1440   5.924   4.412   4.637  0.1845 -0.0089 -0.1283
   18MOL    O47 1441   5.974   4.290   4.681 -0.1465 -0.1682  0.5463
   18MOL    H48 1442   5.906   4.470   4.728  1.8266 -5.8306  4.1552
   18MOL    H49 1443   6.005   4.472   4.595 -1.0794  0.4491 -1.9832
   18MOL    C50 1444   6.024   4.213   4.578  0.0687 -0.2240  0.7707
   18MOL    O51 1445   6.056   4.085   4.623 -0.8696  0.3912 -0.4215
   18MOL    H52 1446   6.124   4.236   4.542  0.1956 -1.0447  0.5948
   18MOL    H53 1447   5.957   4.221   4.493 -0.7653  1.8642  1.5737
   18MOL    C54 1448   5.950   4.005   4.662  1.7679 -0.4029  0.2360
   18MOL    O55 1449   5.989   3.877   4.686  0.3325 -0.2352  0.5777
   18MOL    H56 1450   5.874   4.000   4.584  0.0620  1.7320  1.6994
   18MOL    H57 1451   5.898   4.046   4.748 -2.3379 -2.0735 -1.3325
   18MOL    C58 1452   6.060   3.849   4.800  0.3392 -0.2876 -0.0373
   18MOL    O59 1453   5.976   3.863   4.906  0.4433  0.1100 -0.6015
   18MOL    H60 1454   6.142   3.920   4.803  1.0590 -1.1624  1.5734
   18MOL    H61 1455   6.108   3.751   4.805 -0.1119 -0.4365  1.6970
   18MOL    C62 1456   5.881   3.765   4.914 -0.0101  0.1054 -0.3890
   18MOL    O63 1457   5.760   3.805   4.855 -0.5909  0.0762 -0.6692
   18MOL    H64 1458   5.875   3.758   5.023  1.9827  1.8180 -0.1355
   18MOL    H65 1459   5.909   3.667   4.875 -0.2420  0.3840 -1.2663
   18MOL    C66 1460   5.679   3.885   4.931  0.9424  0.2531 -0.3110
   18MOL    O67 1461   5.610   3.806   5.021  0.4962  0.0465 -0.4490
   18MOL    H68 1462   5.615   3.951   4.872  1.5803  0.8870 -0.2976
   18MOL    H69 1463   5.744   3.957   4.980 -0.8232 -0.0941  2.6770
   18MOL    C70 1464   5.481   3.776   4.968  0.5454  0.2003  0.0953
   18MOL    O71 1465   5.408   3.891   4.960  0.4777 -0.4873 -0.1652
   18MOL    H72 1466   5.430   3.700   5.027 -1.6107  1.4312 -0.1398
   18MOL    H73 1467   5.494   3.738   4.867 -2.8675  1.6873 -0.9686
   18MOL    C74 1468   5.400   3.968   5.077 -0.1036  0.2807  0.5705
   18MOL    O75 1469   5.337   3.904   5.183 -0.2040 -0.4683  0.7411
   18MOL    H76 1470   5.337   4.055   5.059 -1.9058 -1.3294 -1.1723
   18MOL    H77 1471   5.495   4.005   5.116  0.1407 -1.1082  1.3515
   18MOL    C78 1472   5.198   3.918   5.183  0.0683  0.4534  0.2399
   18MOL    O79 1473   5.129   3.872   5.293  0.3621 -0.3095 -0.2179
   18MOL    H80 1474   5.151   3.885   5.090 -2.4145  2.6918  0.6376
   18MOL    H81 1475   5.186   4.026   5.185 -0.6250  0.3595  1.5152
   18MOL    H82 1476   5.103   3.782   5.279 -2.3501  0.0717  1.8981
   19MOL     C1 1477   3.527   3.287   5.290  0.1291  0.4206  0.5697
   19MOL     O2 1478   3.648   3.341   5.344 -0.4319  0.1890 -0.6119
   19MOL     H3 1479   3.517   3.335   5.192  1.3525 -0.6315 -0.0900
   19MOL     H4 1480   3.531   3.178   5.286 -1.4237  0.3502  0.7931
   19MOL     H5 1481   3.441   3.319   5.348 -0.6026 -1.5622  0.6037
   19MOL     C6 1482   3.666   3.301   5.478 -0.0508 -0.0095 -0.1691
   19MOL     O7 1483   3.579   3.370   5.562 -0.0432  0.0929 -0.2270
   19MOL     H8 1484   3.771   3.307   5.510 -0.1910  1.4257  0.0620
   19MOL     H9 1485   3.638   3.196   5.479  0.3434 -0.1921  4.0824
   19MOL    C10 1486   3.621   3.505   5.588 -0.2659 -0.0289 -0.1156
   19MOL    O11 1487   3.719   3.504   5.691  0.2346 -0.4646  0.0819
   19MOL    H12 1488   3.534   3.559   5.626  0.6873  1.0282  0.5754
   19MOL    H13 1489   3.633   3.564   5.497  1.3884  0.5674  0.4799
   19MOL    C14 1490   3.668   3.487   5.817 -0.2471  0.3991  0.0910
   19MOL    O15 1491   3.570   3.582   5.851 -0.1189 -0.1343  0.5373
   19MOL    H16 1492   3.756   3.501   5.879  0.0670  1.4906 -0.5711
   19MOL    H17 1493   3.640   3.383   5.834  0.2283  0.2867  0.1801
   19MOL    C18 1494   3.617   3.714   5.871 -0.1106 -0.1355  0.3423
   19MOL    O19 1495   3.671   3.728   5.999  0.1423 -0.2955  0.5039
   19MOL    H20 1496   3.533   3.776   5.842 -0.2904 -0.2994  0.5096
   19MOL    H21 1497   3.702   3.734   5.806  2.1663 -1.9455  2.6694
   19MOL    C22 1498   3.576   3.723   6.102  0.6197 -0.0482  0.0674
   19MOL    O23 1499   3.625   3.782   6.216 -0.2901 -0.0621  0.8814
   19MOL    H24 1500   3.545   3.620   6.119 -0.7805  0.4876  0.8466
   19MOL    H25 1501   3.492   3.788   6.080  0.7446  0.6137  1.5084
   19MOL    C26 1502   3.713   3.699   6.289 -0.1514 -0.4440 -0.4881
   19MOL    O27 1503   3.677   3.713   6.428 -0.3263 -0.3256  0.6903
   19MOL    H28 1504   3.818   3.718   6.269 -0.2739 -0.0304 -0.7565
   19MOL    H29 1505   3.700   3.593   6.264 -1.4200 -0.3498 -0.2999
   19MOL    C30 1506   3.713   3.594   6.505 -0.1864 -0.1222 -0.0089
   19MOL    O31 1507   3.850   3.604   6.531 -0.3802  0.1622 -0.8004
   19MOL    H32 1508   3.680   3.503   6.455 -0.2179 -0.7472  1.1364
   19MOL    H33 1509   3.657   3.598   6.599  1.7158 -1.4800  1.2321
   19MOL    C34 1510   3.893   3.516   6.628 -0.9309 -0.2256 -0.0938
   19MOL    O35 1511   3.874   3.389   6.583 -0.0953 -0.3843 -0.0991
   19MOL    H36 1512   3.833   3.517   6.719  0.3743  3.2580  0.8274
   19MOL    H37 1513   3.999   3.534   6.644 -0.6666 -0.2934 -1.7184
   19MOL    C38 1514   3.938   3.369   6.463  0.7571 -0.0503  0.3574
   19MOL    O39 1515   3.991   3.234   6.439  0.5083 -0.7881  0.2762
   19MOL    H40 1516   4.025   3.434   6.457 -0.0450  0.8707 -2.2603
   19MOL    H41 1517   3.885   3.408   6.375 -2.9368 -0.0745  2.4821
   19MOL    C42 1518   4.095   3.201   6.519  0.0765  0.4026 -0.1170
   19MOL    O43 1519   4.216   3.271   6.488  0.1304  0.1396  0.6305
   19MOL    H44 1520   4.108   3.093   6.509 -1.1957  0.2780 -0.5223
   19MOL    H45 1521   4.057   3.212   6.620 -1.5581 -0.9243 -0.5699
   19MOL    C46 1522   4.323   3.252   6.579 -0.1753  0.3122 -0.1664
   19MOL    O47 1523   4.296   3.294   6.709  0.2827  0.1752  0.0496
   19MOL    H48 1524   4.404   3.310   6.534 -0.7412 -0.2288 -1.9087
   19MOL    H49 1525   4.360   3.150   6.587  1.2120  0.6524 -1.8807
   19MOL    C50 1526   4.287   3.438   6.718 -0.6297  0.3438  0.7524
   19MOL    O51 1527   4.262   3.477   6.854 -0.1283  0.1201 -0.3097
   19MOL    H52 1528   4.197   3.474   6.670  0.7269  0.1600 -2.0098
   19MOL    H53 1529   4.379   3.483   6.680  0.4557 -1.6353  0.9637
   19MOL    C54 1530   4.372   3.454   6.930 -0.2039 -0.5605 -0.2515
   19MOL    O55 1531   4.475   3.556   6.904  0.1315  0.3439 -0.3720
   19MOL    H56 1532   4.415   3.356   6.910 -2.5066 -1.2731 -2.0118
   19MOL    H57 1533   4.358   3.457   7.038  2.1719 -2.1450  0.1381
   19MOL    C58 1534   4.450   3.661   6.989 -0.2763 -0.3447  0.2186
   19MOL    O59 1535   4.500   3.647   7.126  0.3429 -0.4745 -0.6586
   19MOL    H60 1536   4.345   3.689   7.004  0.4062  0.8664  3.0991
   19MOL    H61 1537   4.507   3.746   6.952  0.5692 -0.6773  0.7483
   19MOL    C62 1538   4.636   3.622   7.137 -0.1342  0.1726  0.5271
   19MOL    O63 1539   4.714   3.734   7.100  0.0013  0.1075  0.5020
   19MOL    H64 1540   4.647   3.531   7.078 -0.3491 -0.1465  0.9761
   19MOL    H65 1541   4.648   3.590   7.241 -0.1162 -0.8762  0.2105
   19MOL    C66 1542   4.710   3.846   7.180  0.2253 -0.4001 -0.8187
   19MOL    O67 1543   4.794   3.833   7.290  0.5868  0.4945  0.6536
   19MOL    H68 1544   4.609   3.872   7.214  0.7951 -0.2135  0.7970
   19MOL    H69 1545   4.733   3.929   7.114 -5.4148  1.2748 -0.9577
   19MOL    C70 1546   4.923   3.826   7.252  0.3823 -0.4723 -0.1560
   19MOL    O71 1547   5.005   3.834   7.368 -0.5123  0.2779  0.0396
   19MOL    H72 1548   4.947   3.914   7.193  4.3695  0.0295  2.0969
   19MOL    H73 1549   4.950   3.752   7.176 -0.5110  2.1812 -3.2094
   19MOL    C74 1550   5.077   3.717   7.404 -0.6238 -0.0094 -0.1783
   19MOL    O75 1551   5.017   3.595   7.398  0.2318  0.3747  0.0876
   19MOL    H76 1552   5.111   3.726   7.506 -0.0493 -2.6616 -0.0975
   19MOL    H77 1553   5.175   3.715   7.357  0.7679 -2.0204  2.7039
   19MOL    C78 1554   4.898   3.584   7.474  0.1858  0.0884 -0.6317
   19MOL    O79 1555   4.845   3.455   7.493 -0.3790 -0.7362 -0.0455
   19MOL    H80 1556   4.825   3.643   7.419 -1.6020 -1.0596  0.4143
   19MOL    H81 1557   4.907   3.632   7.571 -0.4529 -0.0205 -0.5161
   19MOL    H82 1558   4.898   3.422   7.564  0.5072  2.0428  0.6499
   20MOL     C1 1559   3.027   5.751   1.266  0.6098  0.4783  0.3664
   20MOL     O2 1560   2.897   5.804   1.282  0.2133  0.1320  0.1883
   20MOL     H3 1561   3.088   5.804   1.193  0.8613 -0.8811 -0.4404
   20MOL     H4 1562   3.075   5.758   1.363 -2.0785  0.5668  1.7438
   20MOL     H5 1563   3.023   5.648   1.231  0.9375  0.5541  0.1018
   20MOL     C6 1564   2.898   5.939   1.331  0.1295 -0.1825 -0.0167
   20MOL     O7 1565   2.921   5.947   1.465  0.0439 -0.0204 -0.1126
   20MOL     H8 1566   2.805   5.994   1.322  0.9781  1.5011  1.1461
   20MOL     H9 1567   2.952   6.002   1.261 -0.1755  0.5218  0.3827
   20MOL    C10 1568   2.946   6.079   1.509 -0.3643  0.9537 -0.0823
   20MOL    O11 1569   3.063   6.122   1.448  0.0810 -0.1487  0.9064
   20MOL    H12 1570   2.959   6.075   1.618 -1.3003  1.9629  0.0796
   20MOL    H13 1571   2.864   6.150   1.499  0.1128  1.4158 -0.7495
   20MOL    C14 1572   3.108   6.243   1.490  0.1439 -1.0967  0.3144
   20MOL    O15 1573   3.039   6.349   1.442 -0.1097 -0.0892 -0.4343
   20MOL    H16 1574   3.212   6.236   1.456  0.1645 -0.1531  0.1685
   20MOL    H17 1575   3.107   6.231   1.598 -1.3244 -1.1086  0.2975
   20MOL    C18 1576   3.072   6.464   1.515 -0.3785  0.1150  0.2502
   20MOL    O19 1577   3.205   6.510   1.474 -0.5116  0.1879  0.8306
   20MOL    H20 1578   3.073   6.450   1.623 -0.4666 -0.4477  0.1744
   20MOL    H21 1579   2.991   6.536   1.499 -1.8270 -2.0772 -2.7682
   20MOL    C22 1580   3.211   6.567   1.347 -0.4263  0.4203 -0.3405
   20MOL    O23 1581   3.130   6.678   1.344 -0.3911 -0.1353  0.4173
   20MOL    H24 1582   3.185   6.493   1.271  2.5289  1.1750 -2.1772
   20MOL    H25 1583   3.314   6.600   1.335 -0.8328  1.2370 -1.7339
   20MOL    C26 1584   3.197   6.791   1.398 -0.6383  0.1029  0.3249
   20MOL    O27 1585   3.259   6.872   1.303 -0.0027 -0.5540 -0.7461
   20MOL    H28 1586   3.275   6.767   1.470 -0.7381 -1.7469 -0.1610
   20MOL    H29 1587   3.124   6.847   1.456  0.2361  1.0056  0.5689
   20MOL    C30 1588   3.170   6.947   1.239 -0.0710 -0.1115 -0.1499
   20MOL    O31 1589   3.224   7.037   1.142 -0.0324  0.1008 -0.3950
   20MOL    H32 1590   3.139   7.022   1.312 -1.9145 -0.5158 -0.5014
   20MOL    H33 1591   3.077   6.896   1.214  1.1534 -2.1008 -0.7888
   20MOL    C34 1592   3.219   6.981   1.019  0.9367  0.1223 -0.2496
   20MOL    O35 1593   3.259   7.065   0.917 -0.8809  0.3413 -0.4831
   20MOL    H36 1594   3.125   6.933   0.990  1.3318 -0.9078  0.1318
   20MOL    H37 1595   3.299   6.906   1.024  0.1082 -0.6392  2.2113
   20MOL    C38 1596   3.166   7.160   0.870 -0.3235 -0.1235 -0.3536
   20MOL    O39 1597   3.153   7.273   0.952 -0.2499  0.0515  0.9126
   20MOL    H40 1598   3.064   7.122   0.866 -0.7272  0.8529  0.4437
   20MOL    H41 1599   3.190   7.191   0.768 -1.7260  0.4480 -0.5260
   20MOL    C42 1600   3.266   7.349   0.966 -0.2166  0.0756  0.0722
   20MOL    O43 1601   3.286   7.433   0.854  0.3632  0.3313 -0.0126
   20MOL    H44 1602   3.353   7.285   0.978  0.0724 -0.0549 -2.5843
   20MOL    H45 1603   3.258   7.406   1.059 -0.0826  1.9594 -1.0527
   20MOL    C46 1604   3.185   7.533   0.843 -0.7071 -0.0391  0.0019
   20MOL    O47 1605   3.223   7.616   0.741  0.0824 -0.4058  0.2416
   20MOL    H48 1606   3.164   7.583   0.938 -1.2586 -1.7662  0.8133
   20MOL    H49 1607   3.096   7.487   0.800  0.3732 -0.0091 -2.3386
   20MOL    C50 1608   3.309   7.719   0.786  0.4076  0.0195 -0.9574
   20MOL    O51 1609   3.253   0.020   0.876 -0.6515  0.2415  0.2353
   20MOL    H52 1610   3.369   7.760   0.706  0.9299 -1.6752 -1.4619
   20MOL    H53 1611   3.383   7.672   0.851  0.4065  2.6516  1.0325
   20MOL    C54 1612   3.155   0.101   0.812  0.3473  0.2653  0.9033
   20MOL    O55 1613   3.095   0.185   0.901  0.2492  0.8276  0.3011
   20MOL    H56 1614   3.079   0.048   0.755  0.1302  2.2250 -0.6455
   20MOL    H57 1615   3.215   0.162   0.744 -1.0230  0.1488 -0.4226
   20MOL    C58 1616   3.028   0.118   1.004 -0.1051 -0.3483  1.1354
   20MOL    O59 1617   2.910   0.183   1.034  0.4046  0.0464 -0.0540
   20MOL    H60 1618   3.100   0.107   1.085 -0.3846 -2.6664  1.1128
   20MOL    H61 1619   2.988   0.021   0.972 -0.5406 -0.6039  2.4443
   20MOL    C62 1620   2.938   0.310   1.088 -0.3925  0.7167 -0.4625
   20MOL    O63 1621   3.009   0.301   1.213 -0.0341  0.2058  0.6998
   20MOL    H64 1622   2.847   0.370   1.100 -0.6471  0.2138  0.1059
   20MOL    H65 1623   3.004   0.371   1.025 -0.7563  0.5021 -1.0619
   20MOL    C66 1624   3.085   0.415   1.244  0.1893 -0.2422  0.2647
   20MOL    O67 1625   3.204   0.416   1.176 -0.1923  0.3991  0.3382
   20MOL    H68 1626   3.100   0.428   1.351 -0.8212  1.1538  0.2524
   20MOL    H69 1627   3.023   0.502   1.224  0.3277 -0.5371 -1.4772
   20MOL    C70 1628   3.302   0.325   1.218  0.8526 -0.5970 -0.1678
   20MOL    O71 1629   3.413   0.316   1.140  0.5986  0.2308  0.2455
   20MOL    H72 1630   3.254   0.228   1.206 -0.6106  0.0310  0.5101
   20MOL    H73 1631   3.321   0.345   1.324 -0.8525 -2.5796  0.5477
   20MOL    C74 1632   3.502   0.413   1.165 -0.2968  0.2360 -0.5208
   20MOL    O75 1633   3.558   0.395   1.291 -0.0861 -0.0733  0.3767
   20MOL    H76 1634   3.459   0.512   1.153 -0.1388  0.1768 -1.6131
   20MOL    H77 1635   3.589   0.409   1.099  0.4976  0.4037  0.4848
   20MOL    C78 1636   3.655   0.488   1.320 -0.3050  0.0410  0.5760
   20MOL    O79 1637   3.733   0.432   1.427  0.0075 -0.0955  0.4877
   20MOL    H80 1638   3.600   0.569   1.368  0.1422  0.2222  0.7918
   20MOL    H81 1639   3.720   0.520   1.239 -1.2220  2.7220  0.8562
   20MOL    H82 1640   3.748   0.340   1.411  0.4964  0.0333  0.1976
   21MOL     C1 1641   2.366   6.984   6.082 -0.1783 -0.4263  0.7488
   21MOL     O2 1642   2.392   7.090   6.178 -0.2498  0.1140  0.7387
   21MOL     H3 1643   2.309   6.915   6.143  0.1934  0.1825  1.8014
   21MOL     H4 1644   2.308   7.024   5.998 -0.4361 -1.5971  0.3666
   21MOL     H5 1645   2.458   6.942   6.042 -0.3619 -0.0606 -0.0659
   21MOL     C6 1646   2.463   7.048   6.295 -0.0224 -0.1244  0.4975
   21MOL     O7 1647   2.575   6.976   6.261 -0.4382  0.6256  0.0696
   21MOL     H8 1648   2.396   6.979   6.347  1.8590 -0.9752  1.8106
   21MOL     H9 1649   2.498   7.138   6.345 -0.1027  0.0626  0.2233
   21MOL    C10 1650   2.676   7.050   6.188  0.2823  0.8625  0.0369
   21MOL    O11 1651   2.747   7.131   6.274  0.5800  0.2772  0.0442
   21MOL    H12 1652   2.633   7.121   6.118 -0.1133  1.3078  0.7233
   21MOL    H13 1653   2.738   6.969   6.149  0.7049  0.1683  2.0998
   21MOL    C14 1654   2.821   7.059   6.363  0.2201  0.4193 -0.6010
   21MOL    O15 1655   2.945   7.037   6.306  0.4273 -0.4582 -0.3581
   21MOL    H16 1656   2.772   6.970   6.403  2.5613 -0.9180 -0.6638
   21MOL    H17 1657   2.841   7.119   6.451 -0.7620 -0.5220  0.2867
   21MOL    C18 1658   3.021   6.941   6.377  0.1736 -0.0190 -0.2209
   21MOL    O19 1659   2.949   6.825   6.414  0.0756 -0.3248  0.4116
   21MOL    H20 1660   3.057   6.994   6.465 -2.1765  0.8395  0.2668
   21MOL    H21 1661   3.100   6.908   6.309  1.4783  2.1937  0.1824
   21MOL    C22 1662   2.917   6.742   6.304 -0.0242 -0.4437  0.3296
   21MOL    O23 1663   2.868   6.625   6.356  0.3295  0.8416  0.5276
   21MOL    H24 1664   2.998   6.713   6.237 -1.0910 -3.3012  0.1923
   21MOL    H25 1665   2.848   6.778   6.228  1.5420 -1.2510 -1.5260
   21MOL    C26 1666   2.826   6.531   6.259  0.1384  0.0023 -0.0143
   21MOL    O27 1667   2.725   6.573   6.174  0.0944 -0.8526  0.0271
   21MOL    H28 1668   2.800   6.445   6.321 -0.5762  0.6379  0.5775
   21MOL    H29 1669   2.912   6.509   6.196  0.3570  1.1732 -0.1241
   21MOL    C30 1670   2.597   6.586   6.228 -0.3624  0.4595 -0.4782
   21MOL    O31 1671   2.537   6.468   6.262  0.0845  0.2337 -0.1422
   21MOL    H32 1672   2.546   6.638   6.147 -0.5629 -1.9191 -1.9158
   21MOL    H33 1673   2.599   6.645   6.320 -0.1328  0.0730 -0.2313
   21MOL    C34 1674   2.447   6.429   6.160  0.2873  0.1679 -0.2827
   21MOL    O35 1675   2.404   6.299   6.177 -0.2428 -0.0741 -0.1123
   21MOL    H36 1676   2.499   6.436   6.065 -0.6242 -0.9730 -0.8820
   21MOL    H37 1677   2.354   6.486   6.153  1.4173  2.1083  0.0579
   21MOL    C38 1678   2.498   6.203   6.152  0.0666 -0.1794  0.3128
   21MOL    O39 1679   2.452   6.080   6.194 -0.0921 -0.1128  0.7424
   21MOL    H40 1680   2.587   6.225   6.211  0.4866 -2.6857  0.6708
   21MOL    H41 1681   2.530   6.212   6.048  1.3299 -0.6051  0.6548
   21MOL    C42 1682   2.473   6.060   6.325 -0.7438  0.2734  0.9390
   21MOL    O43 1683   2.605   6.020   6.345  0.4466 -0.4512  0.6685
   21MOL    H44 1684   2.409   5.976   6.350  2.7483 -2.5075  0.9226
   21MOL    H45 1685   2.450   6.155   6.374 -2.8381  0.4310 -0.2827
   21MOL    C46 1686   2.623   5.883   6.330 -0.1898 -1.1679  0.2350
   21MOL    O47 1687   2.574   5.814   6.438  0.1153  1.1166  0.4115
   21MOL    H48 1688   2.727   5.864   6.306  0.6293  3.5417 -0.3212
   21MOL    H49 1689   2.579   5.852   6.235 -2.6134 -1.7702  1.5055
   21MOL    C50 1690   2.663   5.829   6.543  0.0455 -0.0008 -0.0327
   21MOL    O51 1691   2.774   5.741   6.539 -0.1069  0.2420  0.4471
   21MOL    H52 1692   2.619   5.795   6.637  0.8373  2.6934  1.3546
   21MOL    H53 1693   2.687   5.934   6.555  0.4418 -0.1561  0.5429
   21MOL    C54 1694   2.869   5.771   6.626  0.4773  0.1017  0.7315
   21MOL    O55 1695   2.915   5.904   6.610 -0.5001 -0.1140 -0.2405
   21MOL    H56 1696   2.951   5.712   6.586 -0.0333 -1.4117  1.8903
   21MOL    H57 1697   2.849   5.752   6.732  1.4112  2.6843  1.4188
   21MOL    C58 1698   3.002   5.916   6.498 -0.7420 -0.1712  0.3064
   21MOL    O59 1699   3.117   5.840   6.508 -0.1674 -0.5129 -0.5410
   21MOL    H60 1700   3.035   6.020   6.501 -1.1959 -0.0325  0.5308
   21MOL    H61 1701   2.955   5.895   6.402  2.2998 -1.7325 -0.9358
   21MOL    C62 1702   3.213   5.846   6.405 -0.5499 -0.0543 -0.1123
   21MOL    O63 1703   3.268   5.968   6.383  1.0716  0.2015 -0.1471
   21MOL    H64 1704   3.166   5.814   6.312 -0.0742 -4.5340  1.0511
   21MOL    H65 1705   3.294   5.775   6.424 -0.9124 -0.3260  0.4334
   21MOL    C66 1706   3.362   6.015   6.479  0.6014 -0.1027 -0.1500
   21MOL    O67 1707   3.483   5.941   6.474  0.3515  0.3871  0.0938
   21MOL    H68 1708   3.317   6.001   6.577  2.2740 -0.4471  0.5740
   21MOL    H69 1709   3.378   6.122   6.466  1.3216 -0.4634 -2.6343
   21MOL    C70 1710   3.561   5.951   6.589  0.2934  0.2281  0.2733
   21MOL    O71 1711   3.501   5.882   6.686 -0.7433 -0.0060 -0.0043
   21MOL    H72 1712   3.568   6.054   6.623 -0.5182 -0.4024  2.4522
   21MOL    H73 1713   3.666   5.923   6.579 -0.2618 -1.3049 -1.7509
   21MOL    C74 1714   3.551   5.907   6.814  0.6723 -0.3166  0.6739
   21MOL    O75 1715   3.692   5.921   6.818 -0.4099  0.1845  0.4701
   21MOL    H76 1716   3.528   5.837   6.894  1.6640 -1.2553  0.1612
   21MOL    H77 1717   3.505   6.000   6.846 -1.3232 -0.8886 -0.4125
   21MOL    C78 1718   3.756   5.799   6.788 -0.3275  0.0785  0.7340
   21MOL    O79 1719   3.886   5.823   6.750 -0.1711  0.3100  0.2043
   21MOL    H80 1720   3.714   5.733   6.711 -1.1628  2.5923 -1.0101
   21MOL    H81 1721   3.745   5.732   6.873 -1.9153 -0.5391  0.0780
   21MOL    H82 1722   3.895   5.835   6.657 -0.3654 -2.6900 -0.2497
   22MOL     C1 1723   3.510   4.501   0.239 -0.1832  0.0303 -1.1560
   22MOL     O2 1724   3.563   4.393   0.149 -0.1595  0.1255 -0.1392
   22MOL     H3 1725   3.421   4.539   0.188 -0.7348  0.6670  0.2657
   22MOL     H4 1726   3.499   4.474   0.344  1.9979 -2.2921 -1.4745
   22MOL     H5 1727   3.573   4.589   0.251 -0.3378  0.2328 -1.8101
   22MOL     C6 1728   3.674   4.329   0.212 -0.3411  0.1130 -0.2792
   22MOL     O7 1729   3.641   4.289   0.343  0.1872  0.0719 -0.3085
   22MOL     H8 1730   3.748   4.409   0.212 -0.3334  0.1430 -2.6615
   22MOL     H9 1731   3.714   4.252   0.146 -0.4891 -0.4564  0.2915
   22MOL    C10 1732   3.578   4.176   0.350 -0.6521  0.1619  0.1063
   22MOL    O11 1733   3.657   4.067   0.312 -0.1683 -0.4069 -0.3521
   22MOL    H12 1734   3.491   4.182   0.284  0.1101  3.2353 -0.6767
   22MOL    H13 1735   3.528   4.169   0.446  0.9113  0.3370  0.9482
   22MOL    C14 1736   3.760   4.042   0.408  0.5991 -0.2258  0.0137
   22MOL    O15 1737   3.716   4.079   0.539 -0.5235  0.3725 -0.2120
   22MOL    H16 1738   3.845   4.105   0.383  0.9199 -0.6723 -0.0184
   22MOL    H17 1739   3.792   3.938   0.407 -0.3768 -0.5300  0.0380
   22MOL    C18 1740   3.624   3.987   0.595  0.7738  0.7615  0.2918
   22MOL    O19 1741   3.686   3.858   0.621 -0.1602  0.1540  0.4588
   22MOL    H20 1742   3.549   3.962   0.520 -1.2613 -0.7403  2.7468
   22MOL    H21 1743   3.586   4.030   0.687  0.0734 -2.5360  1.6047
   22MOL    C22 1744   3.780   3.865   0.721 -0.3031  0.3136 -0.0063
   22MOL    O23 1745   3.717   3.890   0.843 -0.0122 -0.3973 -0.4951
   22MOL    H24 1746   3.848   3.947   0.703  0.8879 -0.5557  0.4888
   22MOL    H25 1747   3.847   3.780   0.721  0.5867  0.9813  1.8244
   22MOL    C26 1748   3.669   3.775   0.905  0.2945  0.4178 -0.0981
   22MOL    O27 1749   3.768   3.703   0.977 -0.3422 -0.5021 -0.0847
   22MOL    H28 1750   3.626   3.708   0.831 -1.3127  0.4038  0.8291
   22MOL    H29 1751   3.591   3.803   0.975  1.0351 -1.1214  1.3771
   22MOL    C30 1752   3.800   3.776   1.088  0.3294 -0.3539 -0.2783
   22MOL    O31 1753   3.700   3.783   1.188  0.0114  1.2465 -0.3287
   22MOL    H32 1754   3.805   3.881   1.058  3.5909 -0.8409 -1.5886
   22MOL    H33 1755   3.895   3.748   1.133  0.3874  0.6136  0.2151
   22MOL    C34 1756   3.702   3.669   1.270 -0.4417  0.4050  0.1711
   22MOL    O35 1757   3.824   3.672   1.347 -0.1443  0.3986  0.4432
   22MOL    H36 1758   3.698   3.582   1.205  0.5506  0.5009 -0.0190
   22MOL    H37 1759   3.611   3.667   1.330 -1.4090  2.0016 -1.1828
   22MOL    C38 1760   3.862   3.545   1.387  0.1010 -0.2829 -0.1503
   22MOL    O39 1761   3.749   3.477   1.445 -1.2311 -0.5524 -0.4284
   22MOL    H40 1762   3.947   3.566   1.453  1.0137 -1.4587 -0.9201
   22MOL    H41 1763   3.895   3.503   1.292 -0.5788  1.2208 -1.0726
   22MOL    C42 1764   3.801   3.355   1.491  0.4049 -0.0467  0.3471
   22MOL    O43 1765   3.827   3.271   1.378  0.0842  0.0736  0.5244
   22MOL    H44 1766   3.725   3.315   1.558 -0.7172 -0.0849 -0.9207
   22MOL    H45 1767   3.884   3.362   1.561  0.1492 -0.1603  0.6625
   22MOL    C46 1768   3.708   3.239   1.309 -0.3875 -0.2067  0.2626
   22MOL    O47 1769   3.629   3.142   1.378 -1.0280  0.6970  0.2852
   22MOL    H48 1770   3.736   3.192   1.215 -3.0800  0.0401 -0.7205
   22MOL    H49 1771   3.643   3.325   1.289  1.5221  1.2227  0.1137
   22MOL    C50 1772   3.488   3.157   1.377 -0.0099  0.5438  0.0281
   22MOL    O51 1773   3.434   3.167   1.245 -0.1231  0.3759  0.0366
   22MOL    H52 1774   3.455   3.244   1.433  0.7630 -0.0779  1.4656
   22MOL    H53 1775   3.434   3.078   1.429 -0.7048 -0.3600 -1.9969
   22MOL    C54 1776   3.445   3.051   1.174 -0.4628 -0.4408 -1.1476
   22MOL    O55 1777   3.362   2.959   1.236 -0.1793 -0.3181 -0.1531
   22MOL    H56 1778   3.544   3.006   1.164  0.0220  0.2960  0.1649
   22MOL    H57 1779   3.414   3.061   1.071 -2.9245  0.5560 -0.3413
   22MOL    C58 1780   3.371   2.828   1.197  0.2309 -0.4231  0.5920
   22MOL    O59 1781   3.327   2.811   1.067  0.3248 -0.3010  0.1330
   22MOL    H60 1782   3.325   2.761   1.269 -1.2663 -0.0193  0.0220
   22MOL    H61 1783   3.473   2.790   1.193  0.3925  0.2506 -2.1794
   22MOL    C62 1784   3.188   2.821   1.055 -0.3392  0.2957 -0.0041
   22MOL    O63 1785   3.126   2.701   1.092 -0.5054  0.0401 -0.0452
   22MOL    H64 1786   3.173   2.849   0.951  1.6720 -0.9752 -0.6785
   22MOL    H65 1787   3.148   2.902   1.116 -2.9197 -2.4690  2.0915
   22MOL    C66 1788   2.987   2.714   1.078 -0.2392 -0.3924  0.0468
   22MOL    O67 1789   2.949   2.715   0.944  0.4082  0.3985  0.0856
   22MOL    H68 1790   2.947   2.804   1.126  0.1868 -0.0587 -0.2182
   22MOL    H69 1791   2.950   2.623   1.126 -0.7906  0.5390  1.4300
   22MOL    C70 1792   2.950   2.594   0.883 -0.0130  0.3413  0.0835
   22MOL    O71 1793   2.836   2.529   0.926 -0.6817  0.1626 -0.3551
   22MOL    H72 1794   3.033   2.540   0.928 -0.4186 -0.5630 -0.2242
   22MOL    H73 1795   2.954   2.603   0.774 -0.6810  0.1881  0.0439
   22MOL    C74 1796   2.720   2.565   0.853 -0.3396  0.2987  0.0463
   22MOL    O75 1797   2.609   2.520   0.917 -0.1245  0.0834  0.4111
   22MOL    H76 1798   2.723   2.539   0.747  1.3110  0.0972  0.1237
   22MOL    H77 1799   2.699   2.671   0.842  0.3972  0.4925  0.4856
   22MOL    C78 1800   2.610   2.381   0.913 -0.1355  0.4366 -0.0733
   22MOL    O79 1801   2.491   2.321   0.963  0.5163  0.2737  0.6469
   22MOL    H80 1802   2.693   2.355   0.980 -0.2747  0.9611  0.3072
   22MOL    H81 1803   2.623   2.341   0.813 -0.2796 -0.0623  0.1099
   22MOL    H82 1804   2.470   2.347   1.051  0.7396  1.9402  0.2104
   23MOL     C1 1805   2.748   5.336   2.856 -0.3646  0.7180  0.2304
   23MOL     O2 1806   2.730   5.222   2.927 -0.3800  0.4467 -0.5220
   23MOL     H3 1807   2.852   5.348   2.824 -0.7014 -0.6833 -1.4673
   23MOL     H4 1808   2.688   5.338   2.765 -0.5271 -1.1241  0.2783
   23MOL     H5 1809   2.723   5.421   2.919  0.8803  1.0293  0.3161
   23MOL     C6 1810   2.794   5.215   3.049  0.2512 -0.8093 -0.3202
   23MOL     O7 1811   2.755   5.316   3.133 -0.0516 -0.1559 -0.1913
   23MOL     H8 1812   2.902   5.198   3.039  0.8847  2.4436  0.5122
   23MOL     H9 1813   2.760   5.124   3.099 -0.6256 -0.1543  0.2662
   23MOL    C10 1814   2.637   5.281   3.199  0.6128  0.5289 -0.2049
   23MOL    O11 1815   2.647   5.171   3.284 -0.6341  0.7065  0.1390
   23MOL    H12 1816   2.563   5.273   3.121  0.3768 -0.5045  0.1177
   23MOL    H13 1817   2.591   5.365   3.251 -2.3849 -0.1189 -1.7603
   23MOL    C14 1818   2.563   5.181   3.395 -0.6125  0.2658  0.5589
   23MOL    O15 1819   2.434   5.209   3.347 -0.0631  0.1803 -1.1332
   23MOL    H16 1820   2.603   5.258   3.460  3.0089 -0.3754 -0.7560
   23MOL    H17 1821   2.561   5.093   3.460 -1.7672  2.0431  2.9622
   23MOL    C18 1822   2.374   5.096   3.297 -0.0929  0.0295 -0.0252
   23MOL    O19 1823   2.336   5.010   3.399 -0.6719 -0.2898 -0.3703
   23MOL    H20 1824   2.437   5.051   3.220 -0.1308 -1.3393  0.7253
   23MOL    H21 1825   2.287   5.142   3.250  0.6087  0.7901 -0.5994
   23MOL    C22 1826   2.228   5.056   3.474 -0.2648  0.2414 -0.2021
   23MOL    O23 1827   2.111   4.995   3.432 -1.2139 -0.5284  0.4278
   23MOL    H24 1828   2.215   5.164   3.464 -0.4669  0.3763  1.3246
   23MOL    H25 1829   2.250   5.029   3.578 -1.5771  1.4327  0.4112
   23MOL    C26 1830   2.088   4.863   3.467 -0.1597 -0.4911  0.0447
   23MOL    O27 1831   2.060   4.835   3.599  0.1368  0.3546 -0.0163
   23MOL    H28 1832   2.175   4.799   3.450  0.0770 -0.0448 -0.4634
   23MOL    H29 1833   2.012   4.820   3.401  0.9481 -0.8897 -0.9928
   23MOL    C30 1834   1.963   4.923   3.656 -0.0887  0.5543 -0.5592
   23MOL    O31 1835   1.835   4.906   3.610 -0.2361 -0.3609 -0.5900
   23MOL    H32 1836   2.008   5.022   3.657 -0.5430  0.7676 -1.1042
   23MOL    H33 1837   1.959   4.899   3.763  2.3573 -2.4204 -1.0700
   23MOL    C34 1838   1.760   4.799   3.656 -0.2203  1.1196 -0.0062
   23MOL    O35 1839   1.704   4.819   3.780  0.5180 -0.8261 -0.0111
   23MOL    H36 1840   1.829   4.716   3.667 -2.6737 -0.8529  1.1769
   23MOL    H37 1841   1.680   4.781   3.583 -1.1991  0.7062  1.1440
   23MOL    C38 1842   1.623   4.932   3.785 -0.0256 -0.3545  0.1128
   23MOL    O39 1843   1.532   4.929   3.892  0.1635  0.2680 -0.3753
   23MOL    H40 1844   1.561   4.936   3.696 -1.4098  0.2956  1.0787
   23MOL    H41 1845   1.680   5.026   3.791  0.1217 -0.3052 -1.8089
   23MOL    C42 1846   1.439   4.819   3.893 -0.1614  0.1402 -0.9546
   23MOL    O43 1847   1.357   4.823   3.783 -0.2017 -0.6728  0.1277
   23MOL    H44 1848   1.385   4.821   3.988 -1.9718 -1.2998 -1.9168
   23MOL    H45 1849   1.499   4.729   3.884  1.6856  1.2859 -0.3261
   23MOL    C46 1850   1.260   4.928   3.796 -0.3408  0.2363  0.2002
   23MOL    O47 1851   1.200   4.955   3.672  0.2008  0.0168 -1.1508
   23MOL    H48 1852   1.300   5.027   3.821  1.3882 -0.2837 -0.4394
   23MOL    H49 1853   1.187   4.903   3.873 -0.0529  0.3525  0.5167
   23MOL    C50 1854   1.114   4.849   3.636  0.2431  0.2279  0.3379
   23MOL    O51 1855   0.973   4.864   3.674  0.2257 -0.2698  0.3402
   23MOL    H52 1856   1.159   4.753   3.661 -0.1367 -1.2148 -4.1348
   23MOL    H53 1857   1.119   4.836   3.528  1.1601  0.6260  0.3232
   23MOL    C54 1858   0.914   4.972   3.599 -0.0830  0.7617  0.7339
   23MOL    O55 1859   0.881   4.935   3.469  0.0997  0.7600 -0.3285
   23MOL    H56 1860   0.979   5.060   3.604  0.2902  0.4702  0.9757
   23MOL    H57 1861   0.827   5.005   3.657  0.7107 -0.4328  2.6524
   23MOL    C58 1862   0.867   5.044   3.384  0.4381  0.9708 -0.9458
   23MOL    O59 1863   0.801   5.154   3.450  0.4244 -0.9262  0.2440
   23MOL    H60 1864   0.830   5.012   3.286  0.5379  1.8216 -1.2599
   23MOL    H61 1865   0.968   5.078   3.362  1.1084 -0.3006  0.0670
   23MOL    C62 1866   0.786   5.271   3.368 -0.6558  0.2613  0.4227
   23MOL    O63 1867   0.684   5.245   3.279  0.0074 -0.3166 -0.3747
   23MOL    H64 1868   0.875   5.300   3.313  0.5185 -1.0247  1.6205
   23MOL    H65 1869   0.764   5.363   3.423 -0.8352  0.1628  0.5162
   23MOL    C66 1870   0.555   5.262   3.333  0.1311  0.6440 -0.1336
   23MOL    O67 1871   0.534   5.394   3.377 -0.0578 -0.8063  0.0460
   23MOL    H68 1872   0.556   5.204   3.425 -0.3105  1.5107  0.4267
   23MOL    H69 1873   0.477   5.214   3.275  2.2438 -1.4066 -1.3271
   23MOL    C70 1874   0.503   5.482   3.270  0.1408 -0.2905 -0.1810
   23MOL    O71 1875   0.384   5.436   3.222 -0.5815 -0.1904  0.0517
   23MOL    H72 1876   0.573   5.463   3.190 -0.8383  1.3859 -1.4639
   23MOL    H73 1877   0.505   5.589   3.294  2.5983 -0.4813  0.6150
   23MOL    C74 1878   0.272   5.442   3.309  0.2374 -0.5579  0.8333
   23MOL    O75 1879   0.150   5.400   3.252 -0.5511 -0.6669 -0.5014
   23MOL    H76 1880   0.260   5.549   3.327 -1.6773 -0.5607 -0.2796
   23MOL    H77 1881   0.282   5.401   3.409 -1.7322  0.7393  1.5799
   23MOL    C78 1882   0.150   5.260   3.217 -0.2310  0.1404  0.0656
   23MOL    O79 1883   0.030   5.225   3.152  0.2549  0.1245  0.2974
   23MOL    H80 1884   0.161   5.203   3.309 -1.1564  0.1873  0.2118
   23MOL    H81 1885   0.232   5.229   3.152 -0.3802  1.5877 -0.8546
   23MOL    H82 1886   0.034   5.273   3.071  0.9718 -0.8563 -0.2666
   24MOL     C1 1887   7.329   0.641   4.318  0.5984  0.3650 -0.1379
   24MOL     O2 1888   7.228   0.684   4.410  0.3663  0.2645  0.1481
   24MOL     H3 1889   7.428   0.614   4.354 -0.4040 -4.0407 -0.2915
   24MOL     H4 1890   7.293   0.557   4.258  2.2090  0.3080 -1.0446
   24MOL     H5 1891   7.359   0.721   4.251  0.2238  0.1427 -0.5801
   24MOL     C6 1892   7.200   0.588   4.507 -0.2325  0.0858  0.2558
   24MOL     O7 1893   7.113   0.496   4.451  0.4723  0.1301  0.4613
   24MOL     H8 1894   7.150   0.629   4.595  1.6920 -0.0071  1.4137
   24MOL     H9 1895   7.295   0.545   4.539 -0.1958  0.1793  0.2752
   24MOL    C10 1896   7.079   0.396   4.539  1.1344 -0.4216 -0.2419
   24MOL    O11 1897   7.194   0.312   4.561  0.4128 -0.1236  0.6055
   24MOL    H12 1898   6.995   0.337   4.504  1.2363  0.1862 -1.5482
   24MOL    H13 1899   7.061   0.429   4.641  0.4596 -1.2483 -0.0935
   24MOL    C14 1900   7.221   0.239   4.445  0.2373 -0.1897  0.2017
   24MOL    O15 1901   7.313   0.135   4.469 -0.5071  0.1448  0.0965
   24MOL    H16 1902   7.262   0.309   4.372  0.9797  0.8728  1.6011
   24MOL    H17 1903   7.135   0.194   4.395  0.8334  0.8330 -1.8079
   24MOL    C18 1904   7.447   0.181   4.479  0.1375 -0.9493 -0.4966
   24MOL    O19 1905   7.492   0.248   4.361  0.4751 -0.0568 -0.0511
   24MOL    H20 1906   7.510   0.096   4.504  4.1474  2.1235  0.4081
   24MOL    H21 1907   7.459   0.248   4.565 -0.9617 -3.1387  1.4050
   24MOL    C22 1908   7.520   0.168   4.251  0.2313 -0.0390  0.0619
   24MOL    O23 1909   7.647   0.110   4.268  0.6982  0.0911  0.0053
   24MOL    H24 1910   7.523   0.231   4.162  1.5336  0.7224  0.6171
   24MOL    H25 1911   7.438   0.097   4.240 -0.9487  1.5085 -1.2272
   24MOL    C26 1912   7.748   0.198   4.273 -0.4441 -0.4833 -0.6888
   24MOL    O27 1913   0.084   0.129   4.270 -0.2448 -0.2429  0.2867
   24MOL    H28 1914   7.744   0.256   4.366 -2.5644 -0.1891 -0.9223
   24MOL    H29 1915   7.748   0.275   4.196 -0.5835  1.1080  0.8685
   24MOL    C30 1916   0.110   0.057   4.387  0.7442  0.1429  0.5603
   24MOL    O31 1917   0.094   0.125   4.508 -0.3799  0.2086  0.3029
   24MOL    H32 1918   0.213   0.022   4.375 -0.0728 -3.1780  2.5961
   24MOL    H33 1919   0.039   7.759   4.401  0.4467  0.5990  1.7897
   24MOL    C34 1920   0.137   0.056   4.621  0.9371 -0.5972  0.4139
   24MOL    O35 1921   0.103   0.131   4.733 -0.0879 -0.9575 -0.2033
   24MOL    H36 1922   0.245   0.048   4.618  1.0866  1.5521 -0.3708
   24MOL    H37 1923   0.096   7.738   4.627 -0.9591  0.1605  0.7852
   24MOL    C38 1924   7.751   0.123   4.772  0.1104 -0.1957 -0.3900
   24MOL    O39 1925   7.718   7.771   4.798 -0.0847  0.0953  0.1892
   24MOL    H40 1926   7.691   0.147   4.684  2.0878 -0.2113 -1.7535
   24MOL    H41 1927   7.714   0.188   4.852  0.4105  1.0929 -1.2890
   24MOL    C42 1928   7.782   7.721   4.911 -0.0590 -0.3472  0.3497
   24MOL    O43 1929   7.747   7.589   4.931 -0.1983 -0.8257  0.5608
   24MOL    H44 1930   7.753   7.771   5.003 -0.7577 -0.6362  0.2891
   24MOL    H45 1931   0.106   7.732   4.894  0.0570 -0.7965  0.7511
   24MOL    C46 1932   0.059   7.499   4.888  0.1676 -0.0592 -0.1205
   24MOL    O47 1933   0.158   7.474   4.977 -0.5420 -0.4304  0.1191
   24MOL    H48 1934   0.091   7.520   4.786  0.9065 -0.3860  0.0375
   24MOL    H49 1935   0.010   7.403   4.871 -0.2144  0.0817  0.1936
   24MOL    C50 1936   0.248   7.376   4.942  0.5921 -0.1356  0.4165
   24MOL    O51 1937   0.188   7.255   4.968 -0.1795 -0.0378 -0.7237
   24MOL    H52 1938   0.339   7.384   5.002  1.9252 -0.7228 -1.4623
   24MOL    H53 1939   0.261   7.381   4.833  0.1599  2.0105  0.4564
   24MOL    C54 1940   0.277   7.142   4.966  0.4426  0.2761  0.7182
   24MOL    O55 1941   0.382   7.163   5.060 -0.1982 -0.1143 -0.0921
   24MOL    H56 1942   0.312   7.139   4.863  0.0041 -0.6513  0.5879
   24MOL    H57 1943   0.229   7.047   4.990 -0.5725  0.9216  1.2824
   24MOL    C58 1944   0.346   7.164   5.198  0.2485  0.2692  0.4264
   24MOL    O59 1945   0.344   7.295   5.239 -0.3843  0.0107  0.1511
   24MOL    H60 1946   0.412   7.106   5.263 -0.4012 -1.9013 -0.8083
   24MOL    H61 1947   0.243   7.128   5.203  0.0367  0.5049 -1.7720
   24MOL    C62 1948   0.472   7.355   5.238  0.3009 -0.0152  0.1878
   24MOL    O63 1949   0.545   7.307   5.352  0.4128 -0.0615  0.3289
   24MOL    H64 1950   0.465   7.464   5.249  1.3268  0.0173  0.6231
   24MOL    H65 1951   0.528   7.324   5.150 -0.2128 -0.4341  0.0099
   24MOL    C66 1952   0.486   7.345   5.469  0.6403 -0.8925  0.5360
   24MOL    O67 1953   0.544   7.285   5.581 -0.1299 -0.4909 -0.0041
   24MOL    H68 1954   0.380   7.322   5.470  0.6995 -1.1573  0.7492
   24MOL    H69 1955   0.497   7.453   5.464  0.9577 -0.9207  0.6162
   24MOL    C70 1956   0.496   7.154   5.593 -0.4473  0.5076  0.2025
   24MOL    O71 1957   0.364   7.152   5.640 -0.0868  0.0647 -0.3443
   24MOL    H72 1958   0.558   7.101   5.665 -1.3873  0.9908  1.3772
   24MOL    H73 1959   0.493   7.103   5.497 -1.2781  0.2260  0.3652
   24MOL    C74 1960   0.307   7.032   5.664  0.1562 -0.1186 -0.7304
   24MOL    O75 1961   0.210   7.032   5.769 -0.3770  0.3856 -0.1739
   24MOL    H76 1962   0.382   6.960   5.696 -1.4287 -0.7224  1.7778
   24MOL    H77 1963   0.255   6.997   5.575 -0.6840  0.2207 -0.3855
   24MOL    C78 1964   0.266   7.045   5.895  0.3324 -0.3681  0.0545
   24MOL    O79 1965   0.168   7.021   5.996 -0.2940  0.8254  0.3258
   24MOL    H80 1966   0.297   7.148   5.909  1.9530 -0.9737  1.1169
   24MOL    H81 1967   0.346   6.973   5.911 -1.0133 -2.0475 -0.4597
   24MOL    H82 1968   0.092   7.074   5.979 -1.8372 -0.9311  1.4528
   25MOL     C1 1969   1.943   6.704   1.077  0.8015 -1.0878 -0.3498
   25MOL     O2 1970   1.861   6.805   1.024 -0.6447 -0.0594 -0.2211
   25MOL     H3 1971   1.892   6.607   1.083 -1.3251  0.0731  0.8918
   25MOL     H4 1972   2.023   6.695   1.004  1.2609  0.2939 -0.0285
   25MOL     H5 1973   1.990   6.735   1.170 -1.6212 -0.2890  0.6604
   25MOL     C6 1974   1.736   6.835   1.089  0.6609  0.4816  0.3985
   25MOL     O7 1975   1.748   6.866   1.217  0.3948  0.1087  0.4315
   25MOL     H8 1976   1.669   6.748   1.090  2.4878 -0.9613  1.1221
   25MOL     H9 1977   1.687   6.919   1.041  1.9863  1.6873  1.1385
   25MOL    C10 1978   1.797   6.995   1.241 -0.6520  0.5249  0.6093
   25MOL    O11 1979   1.708   7.095   1.209  0.6562  0.2972  1.1300
   25MOL    H12 1980   1.886   7.001   1.178 -2.6776  2.6383 -2.1836
   25MOL    H13 1981   1.818   7.013   1.346 -0.3897  1.5880  0.3758
   25MOL    C14 1982   1.601   7.104   1.295  0.2256 -0.1761 -0.5182
   25MOL    O15 1983   1.504   7.180   1.231  0.0560  0.5313  0.6109
   25MOL    H16 1984   1.646   7.137   1.389  1.3765  0.3804 -1.2533
   25MOL    H17 1985   1.560   7.003   1.297 -1.4392  0.4723 -1.7317
   25MOL    C18 1986   1.511   7.318   1.242 -0.0351 -0.2415  0.1044
   25MOL    O19 1987   1.513   7.361   1.376  0.4802  0.4304 -0.4465
   25MOL    H20 1988   1.440   7.372   1.179  1.2245 -0.6385 -1.6765
   25MOL    H21 1989   1.614   7.337   1.213 -0.0011 -0.2956  0.1904
   25MOL    C22 1990   1.394   7.342   1.438  0.2585 -0.0950  0.0251
   25MOL    O23 1991   1.304   7.444   1.404  0.1156 -0.2218 -0.6669
   25MOL    H24 1992   1.421   7.352   1.543 -1.2011  0.1189  0.3924
   25MOL    H25 1993   1.340   7.250   1.418 -1.2583  0.7175  0.2837
   25MOL    C26 1994   1.347   7.564   1.470 -0.2673  0.3611 -0.2586
   25MOL    O27 1995   1.277   7.583   1.595  0.1313 -0.6003 -0.7734
   25MOL    H28 1996   1.308   7.637   1.399 -0.2159  1.0787  0.4426
   25MOL    H29 1997   1.454   7.583   1.470 -0.3941  1.1238  1.5412
   25MOL    C30 1998   1.323   7.696   1.660  0.3353  0.6461 -0.3219
   25MOL    O31 1999   1.447   7.682   1.710  0.3857  0.2041 -0.3466
   25MOL    H32 2000   1.249   7.712   1.738  0.6539 -0.5765  0.2509
   25MOL    H33 2001   1.315   7.779   1.591  0.3894  0.4175 -0.6048
   25MOL    C34 2002   1.448   7.623   1.840 -0.1840 -0.7576 -0.2495
   25MOL    O35 2003   1.476   7.491   1.831  0.4782  0.1583 -0.1576
   25MOL    H36 2004   1.368   7.644   1.910 -1.1349 -2.4785 -0.8095
   25MOL    H37 2005   1.535   7.662   1.893  0.5039 -3.0959  0.4012
   25MOL    C38 2006   1.602   7.466   1.790 -0.9554  0.1696  0.5957
   25MOL    O39 2007   1.647   7.344   1.819  0.6028  0.3277  0.0650
   25MOL    H40 2008   1.683   7.523   1.836 -1.4157  0.5755  0.9126
   25MOL    H41 2009   1.616   7.482   1.683 -0.1089  0.8360  0.7993
   25MOL    C42 2010   1.599   7.247   1.732  1.2229 -0.8272  0.2746
   25MOL    O43 2011   1.657   7.245   1.608  0.1155  0.2536  0.4205
   25MOL    H44 2012   1.491   7.254   1.717  1.2450 -0.6211  0.2183
   25MOL    H45 2013   1.604   7.154   1.789  2.2482 -1.3225 -0.6324
   25MOL    C46 2014   1.792   7.225   1.617 -1.0305 -0.5399 -0.7286
   25MOL    O47 2015   1.863   7.343   1.643  0.0606 -0.3726  0.4498
   25MOL    H48 2016   1.837   7.178   1.529 -2.6998  0.5752 -2.2112
   25MOL    H49 2017   1.817   7.152   1.694  1.2976 -1.0084 -1.8909
   25MOL    C50 2018   1.869   7.425   1.531 -0.1532 -0.0669 -0.0459
   25MOL    O51 2019   1.946   7.368   1.423 -0.4693  0.5469 -0.1030
   25MOL    H52 2020   1.904   7.522   1.566  2.2742 -0.6179 -0.8621
   25MOL    H53 2021   1.772   7.447   1.485  0.1846  0.1452 -0.6508
   25MOL    C54 2022   2.085   7.359   1.441  0.1924 -0.3995 -0.3867
   25MOL    O55 2023   2.138   7.493   1.444  0.1579 -0.3250  0.0088
   25MOL    H56 2024   2.131   7.307   1.357 -1.4992 -0.3020 -1.3982
   25MOL    H57 2025   2.101   7.299   1.531 -2.3495 -2.4986 -1.2700
   25MOL    C58 2026   2.139   7.566   1.319  0.1622 -0.4088  0.2472
   25MOL    O59 2027   2.102   7.700   1.342 -0.4115 -0.1493 -0.1661
   25MOL    H60 2028   2.065   7.518   1.254 -2.2722  0.8747  1.9798
   25MOL    H61 2029   2.238   7.567   1.275  0.1926 -0.3193  0.3181
   25MOL    C62 2030   2.198   7.774   1.416  0.2442 -0.3364 -0.3116
   25MOL    O63 2031   2.317   0.013   1.349  0.2424  0.4422  0.5737
   25MOL    H64 2032   2.216   7.712   1.504 -0.1093 -1.2790 -0.8916
   25MOL    H65 2033   2.158   0.086   1.447  4.5519  0.7102  2.3991
   25MOL    C66 2034   2.301   0.124   1.260 -0.1949 -0.3889 -0.4259
   25MOL    O67 2035   2.315   0.248   1.326  0.2926  0.0215  0.3649
   25MOL    H68 2036   2.203   0.109   1.213 -0.6430 -1.2494  0.7464
   25MOL    H69 2037   2.381   0.108   1.189 -0.6871 -1.4118 -0.7626
   25MOL    C70 2038   2.438   0.265   1.372 -0.2226  0.1882 -0.2584
   25MOL    O71 2039   2.532   0.293   1.272 -0.0062 -0.0285  0.2290
   25MOL    H72 2040   2.464   0.178   1.433  2.6070  0.8655 -0.4182
   25MOL    H73 2041   2.435   0.338   1.453 -0.7931  0.9380 -0.9497
   25MOL    C74 2042   2.517   0.422   1.217  0.0468  0.1953  0.1352
   25MOL    O75 2043   2.574   0.511   1.299  0.4307  0.4502 -0.3633
   25MOL    H76 2044   2.414   0.455   1.209  0.7094  2.5939  1.1151
   25MOL    H77 2045   2.559   0.423   1.117 -1.1825  0.2154 -0.3847
   25MOL    C78 2046   2.713   0.508   1.301  0.2444  0.5972 -0.1915
   25MOL    O79 2047   2.763   0.562   1.419 -0.8315 -0.2620 -0.4299
   25MOL    H80 2048   2.767   0.553   1.218  2.6381  0.1301  1.0519
   25MOL    H81 2049   2.741   0.403   1.298 -2.2578 -0.2203  2.1588
   25MOL    H82 2050   2.756   0.655   1.405  0.4954  0.2392  2.1014
   26MOL     C1 2051   2.745   1.786   4.042  0.1136 -0.3226 -0.4886
   26MOL     O2 2052   2.615   1.734   4.077 -0.5972 -0.4965 -0.0778
   26MOL     H3 2053   2.753   1.858   3.961 -3.5019 -1.4406 -1.9428
   26MOL     H4 2054   2.794   1.833   4.126 -2.9761  1.8231  0.1986
   26MOL     H5 2055   2.813   1.706   4.012 -1.7901 -1.8472 -0.8725
   26MOL     C6 2056   2.535   1.844   4.099 -0.1419  0.4222 -0.5023
   26MOL     O7 2057   2.588   1.933   4.199 -0.2667  0.4982 -0.3296
   26MOL     H8 2058   2.436   1.800   4.111 -0.0647  0.4436  0.2007
   26MOL     H9 2059   2.531   1.890   4.000 -0.6106 -0.9568 -1.1381
   26MOL    C10 2060   2.561   1.890   4.323  0.0700  0.1263  0.9693
   26MOL    O11 2061   2.425   1.920   4.343  0.1255  0.1599 -0.2222
   26MOL    H12 2062   2.622   1.947   4.393  0.7378  1.7889 -0.9283
   26MOL    H13 2063   2.579   1.783   4.332 -2.6591 -0.3889  0.8171
   26MOL    C14 2064   2.409   2.056   4.367  0.2385  0.1064 -0.4440
   26MOL    O15 2065   2.447   2.105   4.490  0.0558  0.4729 -0.2513
   26MOL    H16 2066   2.301   2.064   4.358  0.1845  0.0176  0.1041
   26MOL    H17 2067   2.451   2.112   4.283  1.4867  1.1284  0.8357
   26MOL    C18 2068   2.357   2.071   4.591  0.4244 -0.0128 -0.3872
   26MOL    O19 2069   2.403   2.081   4.722  0.2663 -0.0276 -0.3098
   26MOL    H20 2070   2.325   1.968   4.581 -1.0669  0.2325  1.4986
   26MOL    H21 2071   2.277   2.144   4.583 -0.0578 -0.6293 -1.1891
   26MOL    C22 2072   2.526   2.010   4.747 -0.0788 -0.3466  0.3333
   26MOL    O23 2073   2.491   1.878   4.764 -0.4424  0.0081  0.6343
   26MOL    H24 2074   2.578   2.041   4.838  1.1288  0.9967 -0.7865
   26MOL    H25 2075   2.600   2.018   4.667  0.9434  2.5250  1.4922
   26MOL    C26 2076   2.406   1.848   4.870 -0.3582  0.5574 -0.1530
   26MOL    O27 2077   2.461   1.838   4.996 -0.7185  0.5209  0.3257
   26MOL    H28 2078   2.358   1.752   4.848  2.9050 -0.7193 -2.0193
   26MOL    H29 2079   2.320   1.914   4.882 -0.4743  0.1511  1.2907
   26MOL    C30 2080   2.571   1.752   5.011 -0.1632 -0.3830 -0.1203
   26MOL    O31 2081   2.546   1.618   4.978  0.2508 -0.6448 -0.0363
   26MOL    H32 2082   2.595   1.755   5.118 -2.7414  0.5738  0.4535
   26MOL    H33 2083   2.652   1.788   4.948  0.5781 -1.8763 -0.0517
   26MOL    C34 2084   2.656   1.545   4.931  0.0484  0.0165  0.2927
   26MOL    O35 2085   2.701   1.600   4.809 -0.6348 -0.1813  0.0321
   26MOL    H36 2086   2.628   1.440   4.924 -1.9463  0.4879  0.7327
   26MOL    H37 2087   2.738   1.559   5.001  0.4724  1.8396 -0.5382
   26MOL    C38 2088   2.614   1.584   4.708  0.7669  0.1450 -0.2402
   26MOL    O39 2089   2.627   1.464   4.638  0.1786 -0.0979 -0.4548
   26MOL    H40 2090   2.613   1.671   4.642  0.0531  0.9843  0.8453
   26MOL    H41 2091   2.510   1.589   4.740  0.5847 -2.1466 -0.4501
   26MOL    C42 2092   2.736   1.468   4.556  0.0160  0.5889 -0.6073
   26MOL    O43 2093   2.724   1.561   4.455  0.3354  0.1616 -0.2770
   26MOL    H44 2094   2.754   1.368   4.515  0.2677 -0.2786  1.5935
   26MOL    H45 2095   2.830   1.490   4.607  0.2202 -0.9196 -0.2967
   26MOL    C46 2096   2.676   1.505   4.333 -0.6739  0.4187  0.1530
   26MOL    O47 2097   2.769   1.412   4.284 -0.6996  0.3691 -0.2230
   26MOL    H48 2098   2.661   1.589   4.266 -0.0792  0.9624  0.6945
   26MOL    H49 2099   2.582   1.452   4.345  0.7576 -1.7475  2.2678
   26MOL    C50 2100   2.866   1.466   4.205 -0.2138  0.4603 -0.4592
   26MOL    O51 2101   2.963   1.536   4.275 -0.4831  0.5072 -0.3248
   26MOL    H52 2102   2.830   1.502   4.109 -1.4848 -1.2900 -0.6640
   26MOL    H53 2103   2.923   1.376   4.182 -0.2613  0.0700  0.9012
   26MOL    C54 2104   3.027   1.467   4.372  0.1985  0.6771 -0.4750
   26MOL    O55 2105   3.138   1.402   4.325  0.5745 -0.2525  0.1848
   26MOL    H56 2106   2.965   1.395   4.424  1.0218 -0.7482 -1.4281
   26MOL    H57 2107   3.062   1.543   4.442  1.2628  0.4267 -0.7226
   26MOL    C58 2108   3.242   1.490   4.295 -0.1183 -0.3833 -0.6901
   26MOL    O59 2109   3.293   1.560   4.404 -0.3761  0.2659 -0.2554
   26MOL    H60 2110   3.218   1.565   4.220  1.4510  1.6807  0.8141
   26MOL    H61 2111   3.318   1.435   4.239  0.7475 -1.6905  1.6549
   26MOL    C62 2112   3.348   1.475   4.503  0.4453  0.1371  0.0873
   26MOL    O63 2113   3.245   1.450   4.596  0.2355 -0.0970 -0.3752
   26MOL    H64 2114   3.429   1.523   4.559  1.2386 -1.1138  0.0366
   26MOL    H65 2115   3.384   1.377   4.472 -1.2919 -0.0601 -1.4125
   26MOL    C66 2116   3.194   1.565   4.663  0.8358  0.4137  0.6702
   26MOL    O67 2117   3.277   1.598   4.772  0.5777  0.6059 -0.1462
   26MOL    H68 2118   3.095   1.540   4.699  1.1345 -0.4450  0.8945
   26MOL    H69 2119   3.191   1.656   4.602 -3.1525 -1.1719 -1.7317
   26MOL    C70 2120   3.293   1.499   4.867 -0.1407  0.4877 -0.0807
   26MOL    O71 2121   3.395   1.536   4.952 -0.2204  0.6726 -0.3352
   26MOL    H72 2122   3.316   1.401   4.826  0.1680  0.7532 -0.5479
   26MOL    H73 2123   3.200   1.485   4.922  0.7199 -1.3676  0.9347
   26MOL    C74 2124   3.519   1.510   4.895  0.2668 -0.1302 -0.6817
   26MOL    O75 2125   3.623   1.585   4.961  0.0297 -0.2231  0.1825
   26MOL    H76 2126   3.513   1.541   4.790 -2.3788 -0.3414 -0.6349
   26MOL    H77 2127   3.528   1.401   4.896  1.2430 -0.0510 -0.7105
   26MOL    C78 2128   3.608   1.723   4.948 -0.0131 -0.1866 -0.0639
   26MOL    O79 2129   3.711   1.789   5.020 -0.2904  0.2017 -0.1394
   26MOL    H80 2130   3.512   1.757   4.986  0.3466  0.4468  0.2869
   26MOL    H81 2131   3.615   1.759   4.845 -2.7376 -0.8757 -0.5339
   26MOL    H82 2132   3.720   1.872   4.976  0.9426 -0.1550 -0.5871
   27MOL     C1 2133   6.504   0.173   2.695 -0.2973 -0.7042  0.3851
   27MOL     O2 2134   6.485   0.295   2.621 -0.3920  0.3612 -0.1085
   27MOL     H3 2135   6.423   0.156   2.766 -0.4596 -0.4240  0.2645
   27MOL     H4 2136   6.496   0.094   2.621  0.7677 -0.8167  0.3695
   27MOL     H5 2137   6.603   0.177   2.741  0.4574  1.2127 -1.2970
   27MOL     C6 2138   6.479   0.411   2.688  0.2062  0.5258 -0.6583
   27MOL     O7 2139   6.601   0.440   2.756  0.3152  0.6828 -0.0549
   27MOL     H8 2140   6.406   0.409   2.769 -0.8656  1.1232 -1.6101
   27MOL     H9 2141   6.458   0.493   2.620 -0.3788 -1.5976 -3.0981
   27MOL    C10 2142   6.708   0.457   2.668  0.0268  0.2800  0.2734
   27MOL    O11 2143   6.709   0.582   2.603 -0.2064  0.8769 -0.0441
   27MOL    H12 2144   6.709   0.378   2.593 -4.2185  0.3853  0.0070
   27MOL    H13 2145   6.795   0.435   2.730  0.1327 -0.9301 -0.3051
   27MOL    C14 2146   6.709   0.689   2.690 -0.5780 -0.2310 -0.1927
   27MOL    O15 2147   6.837   0.739   2.701  0.2758 -0.4112  0.5850
   27MOL    H16 2148   6.671   0.665   2.789  2.0850  1.3074  1.2638
   27MOL    H17 2149   6.648   0.771   2.652  1.9157  1.0428 -1.6115
   27MOL    C18 2150   6.884   0.802   2.585 -0.9382  0.5980  0.6230
   27MOL    O19 2151   6.811   0.909   2.543  0.3611 -0.4402 -0.1375
   27MOL    H20 2152   6.892   0.731   2.502  1.8030  1.2117  0.3437
   27MOL    H21 2153   6.987   0.825   2.610 -0.7466  0.7709 -0.3307
   27MOL    C22 2154   6.841   1.021   2.616  0.4916 -0.2775 -0.0095
   27MOL    O23 2155   6.754   1.124   2.586  0.2073 -0.2409  0.4999
   27MOL    H24 2156   6.938   1.061   2.587 -0.4186  2.6514  0.8133
   27MOL    H25 2157   6.836   0.998   2.723 -0.1149 -1.3119 -0.2561
   27MOL    C26 2158   6.755   1.231   2.678  0.2325  0.2527  0.4657
   27MOL    O27 2159   6.882   1.304   2.671 -0.1175 -0.4970  0.2882
   27MOL    H28 2160   6.738   1.201   2.782 -1.4316 -0.7147 -0.0622
   27MOL    H29 2161   6.669   1.295   2.657 -1.0919 -0.7670  2.6170
   27MOL    C30 2162   6.877   1.412   2.757  0.0547  0.3285  1.1895
   27MOL    O31 2163   6.759   1.487   2.740 -0.2308  0.1741 -0.1971
   27MOL    H32 2164   6.969   1.468   2.744 -0.4565  1.0049  0.4072
   27MOL    H33 2165   6.874   1.377   2.860 -0.6640  2.9297  2.0749
   27MOL    C34 2166   6.749   1.551   2.616 -0.2583 -0.4066 -0.7878
   27MOL    O35 2167   6.829   1.664   2.618 -0.8321 -0.2968 -0.9838
   27MOL    H36 2168   6.645   1.579   2.596 -0.2739 -1.0095 -1.5888
   27MOL    H37 2169   6.786   1.492   2.532  1.7483  1.6008 -1.3627
   27MOL    C38 2170   6.823   1.745   2.509  0.2988  0.2784 -0.1639
   27MOL    O39 2171   6.719   1.829   2.529  0.3483  0.0869  0.0578
   27MOL    H40 2172   6.820   1.693   2.413  0.9339 -1.9330  0.9869
   27MOL    H41 2173   6.907   1.813   2.510 -0.7059  1.5831 -1.8378
   27MOL    C42 2174   6.752   1.945   2.603  0.2750 -0.4242  0.0215
   27MOL    O43 2175   6.848   2.032   2.550  0.4828  0.3559 -0.6024
   27MOL    H44 2176   6.784   1.903   2.699  0.5615 -1.6921 -0.6070
   27MOL    H45 2177   6.664   2.001   2.635  0.1891 -1.2979  1.3297
   27MOL    C46 2178   6.805   2.096   2.435 -0.5022 -0.1764  0.3406
   27MOL    O47 2179   6.697   2.183   2.451 -0.5207  0.6331 -0.2857
   27MOL    H48 2180   6.770   2.020   2.365  0.0218  0.1587 -0.2888
   27MOL    H49 2181   6.892   2.145   2.393 -0.7254 -0.3217 -0.2897
   27MOL    C50 2182   6.734   2.289   2.525 -0.2987  0.1944 -0.2950
   27MOL    O51 2183   6.819   2.367   2.445 -0.6587  0.1553  0.7538
   27MOL    H52 2184   6.774   2.264   2.623  0.4180  0.7966 -0.4379
   27MOL    H53 2185   6.645   2.351   2.537 -0.5059 -0.1854  0.1413
   27MOL    C54 2186   6.876   2.481   2.505 -0.4136 -0.3826  0.0640
   27MOL    O55 2187   6.780   2.572   2.558  0.2570  0.5827  0.0179
   27MOL    H56 2188   6.951   2.521   2.437 -0.6087  1.4120  0.8947
   27MOL    H57 2189   6.934   2.452   2.592  1.0551  1.1840 -0.3636
   27MOL    C58 2190   6.722   2.658   2.463  0.9939 -0.7376  0.9207
   27MOL    O59 2191   6.799   2.756   2.405 -0.3917  0.1688 -0.4596
   27MOL    H60 2192   6.648   2.707   2.525 -1.5378 -2.9244 -0.2809
   27MOL    H61 2193   6.675   2.599   2.384  1.3738  0.8914 -0.5536
   27MOL    C62 2194   6.856   2.845   2.496  0.1485 -0.0230  0.0393
   27MOL    O63 2195   6.762   2.912   2.568  0.6292 -0.1253 -0.5732
   27MOL    H64 2196   6.925   2.914   2.449  0.0973  0.3597  0.5174
   27MOL    H65 2197   6.919   2.777   2.555  1.2132  0.3669 -0.6350
   27MOL    C66 2198   6.692   3.006   2.500 -0.6701 -0.1216 -0.4610
   27MOL    O67 2199   6.770   3.118   2.469 -0.3164 -0.1900  0.1455
   27MOL    H68 2200   6.620   3.046   2.571  1.8580  1.1247  1.4521
   27MOL    H69 2201   6.643   2.952   2.419 -0.9873 -1.6185  0.7154
   27MOL    C70 2202   6.716   3.191   2.374 -0.3712 -0.1102 -0.1313
   27MOL    O71 2203   6.588   3.239   2.408 -0.1530 -0.7816  0.0836
   27MOL    H72 2204   6.695   3.121   2.293 -0.8182  1.2045 -1.1784
   27MOL    H73 2205   6.784   3.266   2.332 -1.0667 -0.9935 -2.9813
   27MOL    C74 2206   6.547   3.326   2.306  0.0085 -0.1225  0.1163
   27MOL    O75 2207   6.591   3.463   2.322  0.2744 -0.0603  0.1354
   27MOL    H76 2208   6.439   3.329   2.317  0.0873  2.5579  0.5714
   27MOL    H77 2209   6.575   3.294   2.205  0.8271 -1.8328  0.8702
   27MOL    C78 2210   6.547   3.525   2.433  0.2423  0.5917  0.2498
   27MOL    O79 2211   6.614   3.651   2.451  0.2188  0.1076 -0.6642
   27MOL    H80 2212   6.568   3.466   2.522  1.0419  0.6778  0.1234
   27MOL    H81 2213   6.439   3.543   2.425 -0.4323 -1.9290  2.9599
   27MOL    H82 2214   6.703   3.639   2.481 -0.4289  0.8589  1.7000
   28MOL     C1 2215   2.116   0.074   2.511 -0.4926 -0.5632 -0.4264
   28MOL     O2 2216   2.094   0.048   2.372 -0.4309  0.3369  0.0786
   28MOL     H3 2217   2.033   0.131   2.554  0.4691 -0.0404  0.7721
   28MOL     H4 2218   2.126   7.763   2.564  1.9347 -0.8809 -1.3964
   28MOL     H5 2219   2.204   0.137   2.525  0.3809 -1.3178 -2.3555
   28MOL     C6 2220   2.076   0.166   2.300  1.0396  0.4211  0.4918
   28MOL     O7 2221   2.190   0.246   2.298  0.2056  0.8684 -0.1256
   28MOL     H8 2222   1.989   0.211   2.349 -0.2518 -0.8403 -0.6030
   28MOL     H9 2223   2.045   0.131   2.202  4.2751 -2.8718  0.5239
   28MOL    C10 2224   2.276   0.210   2.193 -0.0896  0.0098 -0.5003
   28MOL    O11 2225   2.392   0.279   2.207 -0.0262 -0.5455  0.2725
   28MOL    H12 2226   2.227   0.214   2.096 -0.1577  0.5353 -0.4434
   28MOL    H13 2227   2.299   0.104   2.208  0.7857 -0.2696 -3.4517
   28MOL    C14 2228   2.392   0.398   2.133 -0.1726 -0.0504  0.0274
   28MOL    O15 2229   2.427   0.387   1.999 -0.5335  0.0158  0.2213
   28MOL    H16 2230   2.451   0.477   2.181  1.7820 -0.0624 -2.2925
   28MOL    H17 2231   2.291   0.434   2.117 -0.0292 -0.6697 -2.3721
   28MOL    C18 2232   2.559   0.376   1.983 -0.1875 -0.9628  0.6996
   28MOL    O19 2233   2.591   0.340   1.852  0.0862  0.4371 -0.2072
   28MOL    H20 2234   2.578   0.280   2.030  0.4896 -0.9569  0.4339
   28MOL    H21 2235   2.618   0.460   2.019  0.4722 -0.4947 -1.4052
   28MOL    C22 2236   2.565   0.442   1.766 -0.8992  0.0960 -0.2666
   28MOL    O23 2237   2.634   0.557   1.799  0.0231  0.1508  0.2075
   28MOL    H24 2238   2.459   0.464   1.779 -0.4894  1.9526  0.1193
   28MOL    H25 2239   2.596   0.407   1.668 -0.6967 -1.6491  0.4036
   28MOL    C26 2240   2.603   0.674   1.723  0.2705  0.0133  0.0222
   28MOL    O27 2241   2.481   0.729   1.750  0.3644  0.0398 -0.2979
   28MOL    H28 2242   2.604   0.648   1.618  1.0137  0.3736 -0.0653
   28MOL    H29 2243   2.686   0.744   1.729  1.3665 -0.8894 -3.6614
   28MOL    C30 2244   2.461   0.760   1.890 -0.4427  0.0681  0.5728
   28MOL    O31 2245   2.554   0.847   1.942 -0.1990 -0.1571 -0.1271
   28MOL    H32 2246   2.479   0.666   1.941  1.3156  1.0782  1.8966
   28MOL    H33 2247   2.357   0.778   1.914 -0.7353 -1.3507  0.3786
   28MOL    C34 2248   2.520   0.986   1.937 -0.2331 -0.0508 -0.6446
   28MOL    O35 2249   2.392   1.007   1.996 -0.2311 -0.7214 -0.2114
   28MOL    H36 2250   2.509   1.013   1.831 -0.2541  0.0945 -0.6051
   28MOL    H37 2251   2.595   1.056   1.972 -0.8472  0.9567 -1.3048
   28MOL    C38 2252   2.398   0.994   2.136  0.0692 -0.1654 -0.3012
   28MOL    O39 2253   2.271   1.003   2.190 -0.3969 -0.6578  0.1452
   28MOL    H40 2254   2.468   1.068   2.176 -1.6093  0.8534  0.7810
   28MOL    H41 2255   2.443   0.897   2.159  0.7050  0.4582  1.1576
   28MOL    C42 2256   2.225   1.134   2.197  0.3091 -0.1952  0.0249
   28MOL    O43 2257   2.302   1.204   2.287 -0.3333  0.6356 -0.2207
   28MOL    H44 2258   2.121   1.131   2.232  0.5685  0.2586  0.8439
   28MOL    H45 2259   2.229   1.171   2.095  0.7789  0.8663  0.4177
   28MOL    C46 2260   2.259   1.334   2.301  0.7401  1.0075  0.1030
   28MOL    O47 2261   2.286   1.401   2.180 -0.3995 -0.0804 -0.0628
   28MOL    H48 2262   2.315   1.380   2.383 -0.4833  2.9355 -0.1133
   28MOL    H49 2263   2.152   1.346   2.317  0.5635  1.0302 -1.0557
   28MOL    C50 2264   2.428   1.429   2.151  0.2130 -0.0425 -0.1767
   28MOL    O51 2265   2.478   1.524   2.234 -0.8085 -0.2759 -0.2321
   28MOL    H52 2266   2.417   1.471   2.052 -0.2858 -0.8541 -0.4700
   28MOL    H53 2267   2.482   1.334   2.147  0.1515 -0.0448 -0.9682
   28MOL    C54 2268   2.606   1.547   2.203  0.2915  0.1809  0.6476
   28MOL    O55 2269   2.688   1.436   2.222  0.4153  0.0970 -0.2501
   28MOL    H56 2270   2.631   1.634   2.263 -0.3743 -0.7417  2.2781
   28MOL    H57 2271   2.611   1.589   2.102  2.2925  0.2189  0.7410
   28MOL    C58 2272   2.711   1.402   2.356 -0.0483 -0.0987  0.2554
   28MOL    O59 2273   2.803   1.486   2.417  0.5263  0.3243 -0.1731
   28MOL    H60 2274   2.738   1.297   2.366 -0.5857 -0.0872  1.9806
   28MOL    H61 2275   2.618   1.405   2.413 -1.3466 -0.3342 -1.8245
   28MOL    C62 2276   2.921   1.502   2.342 -0.4158  0.7111  0.3778
   28MOL    O63 2277   2.984   1.377   2.323  0.3029  0.2918  0.0930
   28MOL    H64 2278   2.990   1.569   2.392 -1.7188  2.5929 -0.2988
   28MOL    H65 2279   2.902   1.557   2.250 -0.6498  0.4581  0.2718
   28MOL    C66 2280   3.031   1.311   2.438 -0.3355 -0.0232 -0.6589
   28MOL    O67 2281   3.149   1.374   2.485  0.1940 -0.2919 -0.5542
   28MOL    H68 2282   3.052   1.205   2.425 -2.0835 -0.7681  2.1652
   28MOL    H69 2283   2.965   1.324   2.523  0.2483 -2.3306  0.1833
   28MOL    C70 2284   3.267   1.342   2.422  0.3399  0.6942  0.1871
   28MOL    O71 2285   3.285   1.206   2.429  0.4271 -0.5561 -0.2133
   28MOL    H72 2286   3.355   1.392   2.463 -0.3884  3.8464 -1.9007
   28MOL    H73 2287   3.251   1.361   2.316  1.8109 -1.3417 -0.4395
   28MOL    C74 2288   3.330   1.165   2.559  0.1661 -0.1099  0.6000
   28MOL    O75 2289   3.467   1.179   2.577  0.2812  0.0202 -0.1191
   28MOL    H76 2290   3.306   1.060   2.574 -0.2874  0.3472  3.1787
   28MOL    H77 2291   3.278   1.219   2.638  2.6985  0.1100  2.2038
   28MOL    C78 2292   3.546   1.083   2.512  0.1803  0.5517  0.3183
   28MOL    O79 2293   3.682   1.103   2.542 -0.3122  0.5506 -0.7814
   28MOL    H80 2294   3.527   1.112   2.408 -1.5572  0.3773  0.5666
   28MOL    H81 2295   3.516   0.979   2.528  2.3326  0.1355  1.7656
   28MOL    H82 2296   3.725   1.020   2.527 -0.6494  0.2554 -0.1549
   29MOL     C1 2297   5.351   3.186   2.287 -0.5219 -0.2565  0.0882
   29MOL     O2 2298   5.374   3.294   2.204  0.4629 -0.1138  0.4061
   29MOL     H3 2299   5.321   3.102   2.224  0.1560 -0.0271 -0.5539
   29MOL     H4 2300   5.442   3.161   2.342  0.8103  3.6959 -0.1794
   29MOL     H5 2301   5.278   3.218   2.361 -0.3000  0.3101  0.0605
   29MOL     C6 2302   5.265   3.327   2.124  0.3858 -0.0972  0.2630
   29MOL     O7 2303   5.210   3.449   2.169  0.5112 -0.1816 -0.3158
   29MOL     H8 2304   5.173   3.271   2.143 -0.5112  0.9006 -1.0921
   29MOL     H9 2305   5.285   3.324   2.017 -0.2386  1.1434  0.0994
   29MOL    C10 2306   5.293   3.563   2.170  0.3348 -0.1542  0.7517
   29MOL    O11 2307   5.353   3.572   2.294  0.2045 -0.3462  0.3168
   29MOL    H12 2308   5.224   3.645   2.148  1.2136 -0.2126 -2.4600
   29MOL    H13 2309   5.372   3.560   2.094 -1.1579  2.0632 -0.9735
   29MOL    C14 2310   5.268   3.612   2.396  1.1903  0.4257  0.6319
   29MOL    O15 2311   5.246   3.749   2.400  0.2806 -0.2017  0.1444
   29MOL    H16 2312   5.325   3.577   2.482 -1.7456  1.2794  3.0518
   29MOL    H17 2313   5.176   3.553   2.402 -0.1293  2.4703  1.0482
   29MOL    C18 2314   5.199   3.797   2.521  0.3910  0.5242 -0.1189
   29MOL    O19 2315   5.187   3.933   2.517 -0.0214  0.5817 -0.1926
   29MOL    H20 2316   5.257   3.759   2.605 -2.1453  0.6959  1.7644
   29MOL    H21 2317   5.096   3.763   2.530  0.2644 -0.0979 -3.3442
   29MOL    C22 2318   5.294   4.000   2.565 -0.0696  0.6626  0.4753
   29MOL    O23 2319   5.295   3.993   2.705  0.0393  0.5465 -0.2788
   29MOL    H24 2320   5.292   4.104   2.532  1.3140  0.5128 -0.1256
   29MOL    H25 2321   5.384   3.955   2.523  1.7072  3.0044  1.6350
   29MOL    C26 2322   5.204   4.085   2.763 -0.6330 -0.7053  0.2532
   29MOL    O27 2323   5.215   4.215   2.713 -0.0959  1.1151 -0.6091
   29MOL    H28 2324   5.203   4.096   2.871  1.2023 -2.6241  0.4960
   29MOL    H29 2325   5.102   4.052   2.742 -0.4900 -1.0374  0.0658
   29MOL    C30 2326   5.328   4.279   2.766  0.6139  0.5089  0.7966
   29MOL    O31 2327   5.286   4.341   2.885  0.2915 -0.4266  0.1660
   29MOL    H32 2328   5.349   4.351   2.687 -2.7943  0.8606  0.1512
   29MOL    H33 2329   5.418   4.218   2.766  0.3267  0.0737  1.6112
   29MOL    C34 2330   5.386   4.408   2.949  0.3439 -0.2153  0.9936
   29MOL    O35 2331   5.493   4.329   2.998 -0.1321 -0.1897  0.4321
   29MOL    H36 2332   5.347   4.438   3.046 -0.0773 -0.6559  0.9631
   29MOL    H37 2333   5.425   4.489   2.886  0.7892 -0.6280  0.7309
   29MOL    C38 2334   5.565   4.394   3.104  0.1916  0.8778  0.2183
   29MOL    O39 2335   5.508   4.375   3.228 -0.1970 -0.4343  0.3175
   29MOL    H40 2336   5.563   4.499   3.073 -0.6569  0.7612 -0.1380
   29MOL    H41 2337   5.667   4.357   3.110 -0.1122 -0.3865 -1.9331
   29MOL    C42 2338   5.524   4.252   3.280 -0.2781 -0.1587 -0.3085
   29MOL    O43 2339   5.641   4.244   3.360  0.2317  0.4787  0.7009
   29MOL    H44 2340   5.537   4.181   3.199  0.1844 -2.8662  2.0352
   29MOL    H45 2341   5.438   4.208   3.329  0.5336 -1.0696  0.3312
   29MOL    C46 2342   5.619   4.322   3.472  0.3690 -0.4115  0.5288
   29MOL    O47 2343   5.558   4.252   3.564 -0.5628 -0.4497 -0.5844
   29MOL    H48 2344   5.557   4.410   3.455  1.2152  0.0029 -0.4974
   29MOL    H49 2345   5.716   4.360   3.504  0.8240  0.3216 -1.5964
   29MOL    C50 2346   5.643   4.172   3.639  0.0779 -0.7099 -0.3172
   29MOL    O51 2347   5.726   4.244   3.727 -0.2024  0.0017 -0.2413
   29MOL    H52 2348   5.704   4.104   3.579 -1.5875 -4.1302  1.7711
   29MOL    H53 2349   5.582   4.100   3.693 -1.3539  1.7826  1.5083
   29MOL    C54 2350   5.773   4.171   3.833 -0.3653  0.0412  0.2235
   29MOL    O55 2351   5.676   4.144   3.928  0.5386 -0.2175 -0.3430
   29MOL    H56 2352   5.850   4.232   3.880 -2.1270  2.2079  0.4111
   29MOL    H57 2353   5.810   4.075   3.798 -2.0834  1.0909 -4.8072
   29MOL    C58 2354   5.642   4.250   4.015  0.0541 -0.0495 -0.4727
   29MOL    O59 2355   5.692   4.228   4.146  0.2972  0.3052  0.2952
   29MOL    H60 2356   5.534   4.249   4.032  0.2995  0.9428  1.2870
   29MOL    H61 2357   5.651   4.351   3.976 -0.1670 -0.1037 -0.6677
   29MOL    C62 2358   5.833   4.221   4.152 -0.5534 -0.0437 -0.2699
   29MOL    O63 2359   5.873   4.347   4.108 -0.0544  0.4150 -0.0802
   29MOL    H64 2360   5.869   4.138   4.091 -1.3647 -0.2943 -0.4111
   29MOL    H65 2361   5.858   4.203   4.257 -0.1022 -1.2892 -0.5798
   29MOL    C66 2362   5.913   4.430   4.206  0.3465 -0.5565 -0.7040
   29MOL    O67 2363   6.018   4.372   4.279 -0.7158  0.1193 -0.3022
   29MOL    H68 2364   5.827   4.437   4.273  2.8889  1.1643  2.5565
   29MOL    H69 2365   5.945   4.526   4.165 -3.0179 -0.0696 -2.4056
   29MOL    C70 2366   6.143   4.381   4.209  0.7497 -0.2955  0.0666
   29MOL    O71 2367   6.175   4.517   4.183 -0.4569  0.3975  0.6105
   29MOL    H72 2368   6.128   4.335   4.111  1.0778 -0.3367  0.0346
   29MOL    H73 2369   6.223   4.343   4.272  0.9544  0.7055  0.4112
   29MOL    C74 2370   6.248   4.577   4.285  0.1599  0.1238 -0.9225
   29MOL    O75 2371   6.384   4.571   4.258  0.3723 -0.1296  0.1819
   29MOL    H76 2372   6.227   4.539   4.385  0.8360 -0.1913 -0.8941
   29MOL    H77 2373   6.209   4.678   4.299  0.0571  0.3547 -2.7784
   29MOL    C78 2374   6.443   4.693   4.278 -0.8123 -0.3343 -0.1660
   29MOL    O79 2375   6.562   4.698   4.200 -0.1927 -0.3010 -0.4070
   29MOL    H80 2376   6.458   4.717   4.384  1.1410 -0.3505 -0.4255
   29MOL    H81 2377   6.388   4.777   4.234 -1.8903 -1.2130 -0.5232
   29MOL    H82 2378   6.564   4.783   4.159  0.1678  0.0580  0.3326
   30MOL     C1 2379   5.764   1.830   7.083  0.5433 -0.4865  0.0389
   30MOL     O2 2380   5.813   1.758   7.201 -0.2324 -0.0083 -0.0422
   30MOL     H3 2381   5.828   1.916   7.062  0.8932 -0.4176  1.3541
   30MOL     H4 2382   5.758   1.774   6.990 -4.5203 -2.0968  1.1921
   30MOL     H5 2383   5.661   1.854   7.111 -0.0008 -2.5086 -0.1316
   30MOL     C6 2384   5.915   1.673   7.185  0.2066 -0.4391 -0.0120
   30MOL     O7 2385   6.012   1.700   7.087 -0.2026  0.3784  0.2228
   30MOL     H8 2386   5.864   1.578   7.171  0.9823 -1.0569  1.2666
   30MOL     H9 2387   5.972   1.655   7.276  0.0454  2.1775  0.6486
   30MOL    C10 2388   6.102   1.802   7.128 -0.2378  0.3548 -0.4209
   30MOL    O11 2389   6.227   1.749   7.161 -0.2390 -0.7077 -0.0469
   30MOL    H12 2390   6.055   1.859   7.207  0.9540  0.0716  0.5159
   30MOL    H13 2391   6.117   1.860   7.037  2.3870  0.6605  0.1546
   30MOL    C14 2392   6.243   1.680   7.285 -0.4494  0.3942 -0.0799
   30MOL    O15 2393   6.185   1.558   7.288  0.5190  0.0688  0.5770
   30MOL    H16 2394   6.211   1.736   7.372  2.5066 -1.3508  2.2415
   30MOL    H17 2395   6.349   1.661   7.302 -0.3231  2.2471  1.3453
   30MOL    C18 2396   6.239   1.482   7.183  0.4088 -0.2856 -0.1782
   30MOL    O19 2397   6.363   1.418   7.227  0.9090  0.1897  0.1524
   30MOL    H20 2398   6.243   1.539   7.090  5.2609 -2.1854 -1.2233
   30MOL    H21 2399   6.168   1.403   7.161  1.8792 -1.7941  0.4194
   30MOL    C22 2400   6.393   1.298   7.166 -0.2579  0.1814  0.6018
   30MOL    O23 2401   6.417   1.319   7.030 -0.2366 -0.5832  0.3403
   30MOL    H24 2402   6.316   1.221   7.175  1.4237 -1.6256 -0.0409
   30MOL    H25 2403   6.483   1.260   7.216  0.6242  0.1746 -0.9771
   30MOL    C26 2404   6.531   1.392   6.999 -0.7812 -0.4150  0.3033
   30MOL    O27 2405   6.537   1.441   6.873  0.3956  0.5350 -0.1697
   30MOL    H28 2406   6.622   1.336   7.019 -0.3245 -0.0150 -0.6018
   30MOL    H29 2407   6.537   1.476   7.069  0.1724  0.0570 -0.3371
   30MOL    C30 2408   6.447   1.543   6.843  0.1818  0.9128  0.3569
   30MOL    O31 2409   6.476   1.656   6.911 -0.1969  0.1460  0.4479
   30MOL    H32 2410   6.345   1.507   6.862 -0.1638  3.4191  3.8407
   30MOL    H33 2411   6.458   1.570   6.738  0.1194 -0.1177  0.0803
   30MOL    C34 2412   6.605   1.705   6.894 -0.2585 -0.7921 -0.0291
   30MOL    O35 2413   6.629   1.815   6.980  0.4475 -0.1317  0.0943
   30MOL    H36 2414   6.629   1.738   6.793  1.9274 -0.7560  0.4850
   30MOL    H37 2415   6.675   1.624   6.914  2.7788  1.3016 -1.7768
   30MOL    C38 2416   6.630   1.781   7.118  0.2039  0.6440  0.2571
   30MOL    O39 2417   6.756   1.725   7.161 -0.1307  0.1789 -0.2806
   30MOL    H40 2418   6.550   1.709   7.133  0.5033  0.7944  2.7628
   30MOL    H41 2419   6.603   1.866   7.180 -1.9871  1.1936 -1.3575
   30MOL    C42 2420   6.854   1.821   7.144 -0.1923  0.1368 -0.3113
   30MOL    O43 2421   6.981   1.771   7.178 -0.4536 -0.0291  0.5018
   30MOL    H44 2422   6.822   1.899   7.212  0.6409  1.5887 -1.5623
   30MOL    H45 2423   6.845   1.858   7.042  2.4685  2.2334  0.1690
   30MOL    C46 2424   7.001   1.749   7.309 -0.2296 -0.6849 -0.0361
   30MOL    O47 2425   7.125   1.692   7.335 -0.3743 -0.7457  0.2012
   30MOL    H48 2426   6.935   1.665   7.334  0.8431 -1.6083 -0.2733
   30MOL    H49 2427   6.988   1.830   7.381 -0.1703  2.2045 -3.1875
   30MOL    C50 2428   7.223   1.781   7.383 -0.5628  0.2387  0.7903
   30MOL    O51 2429   7.182   1.841   7.508 -0.8818  0.3072 -0.1558
   30MOL    H52 2430   7.256   1.857   7.312 -1.5366  0.2630  0.3442
   30MOL    H53 2431   7.314   1.724   7.401 -0.0405  0.0050 -2.2239
   30MOL    C54 2432   7.152   1.743   7.605  0.4811 -0.1306  0.2398
   30MOL    O55 2433   7.263   1.669   7.648  0.3387  0.1615  0.1287
   30MOL    H56 2434   7.086   1.670   7.559 -0.0924 -0.1397  1.0786
   30MOL    H57 2435   7.095   1.793   7.683 -0.7018  2.1136 -2.0157
   30MOL    C58 2436   7.355   1.761   7.705 -0.3919 -0.4668 -0.0079
   30MOL    O59 2437   7.462   1.694   7.767  0.6387  0.4823 -0.2638
   30MOL    H60 2438   7.302   1.810   0.003 -0.8695 -1.8701  0.5269
   30MOL    H61 2439   7.381   1.842   7.637  0.2499 -0.3118  0.4082
   30MOL    C62 2440   7.556   1.779   0.039  0.8198  0.6060  0.2972
   30MOL    O63 2441   7.682   1.717   0.052  0.1801  0.4682 -1.3146
   30MOL    H64 2442   7.526   1.830   0.131  0.0391  2.6920 -1.0765
   30MOL    H65 2443   7.575   1.852   7.744 -0.7220 -0.3513 -0.9856
   30MOL    C66 2444   7.703   1.668   0.181  0.1308 -0.8339  0.4768
   30MOL    O67 2445   7.707   1.767   0.275 -0.3665  0.1386  0.3947
   30MOL    H68 2446   0.010   1.608   0.186  0.5376 -0.4738 -2.0497
   30MOL    H69 2447   7.619   1.608   0.215 -1.9446  0.7938 -1.6117
   30MOL    C70 2448   0.036   1.849   0.260  0.3332  0.5271  0.5066
   30MOL    O71 2449   0.020   1.961   0.343 -0.4594 -0.3770  0.0319
   30MOL    H72 2450   0.048   1.878   0.156  2.1893 -1.6229  0.0838
   30MOL    H73 2451   0.123   1.787   0.282 -0.8868 -1.5627 -0.4118
   30MOL    C74 2452   0.049   1.914   0.474  0.1398  0.8292 -0.4092
   30MOL    O75 2453   0.184   1.890   0.493  0.3828 -0.1340 -0.4534
   30MOL    H76 2454   7.770   1.828   0.497  0.6356  0.3852 -0.7271
   30MOL    H77 2455   0.020   1.995   0.542 -0.3206 -0.5500  1.0802
   30MOL    C78 2456   0.215   1.863   0.625  0.2006 -0.2507 -0.0942
   30MOL    O79 2457   0.349   1.814   0.641 -0.0912 -0.3500  0.6751
   30MOL    H80 2458   0.147   1.784   0.658  1.6875 -1.1215  0.9417
   30MOL    H81 2459   0.194   1.951   0.685  0.6148 -0.8999  1.0069
   30MOL    H82 2460   0.405   1.888   0.659 -2.7057  1.4924  1.6916
   31MOL     C1 2461   1.939   4.792   3.041 -0.0933  0.7760  0.0586
   31MOL     O2 2462   2.061   4.746   2.994  0.5363  0.6071  0.2469
   31MOL     H3 2463   1.860   4.807   2.968 -1.4170 -3.1942  0.5635
   31MOL     H4 2464   1.900   4.733   3.123 -0.2664 -1.6747 -1.7524
   31MOL     H5 2465   1.951   4.891   3.086 -1.1644  0.6946  0.5316
   31MOL     C6 2466   2.103   4.797   2.876 -0.1439  0.4339 -0.1894
   31MOL     O7 2467   2.136   4.930   2.891  0.4554 -0.3664 -0.3268
   31MOL     H8 2468   2.023   4.785   2.803  0.7387  0.0933 -1.1163
   31MOL     H9 2469   2.185   4.729   2.853  0.3091  0.8213  0.2610
   31MOL    C10 2470   2.257   4.951   2.954  0.4372  0.0797  0.0548
   31MOL    O11 2471   2.288   5.090   2.947 -0.2327  0.3801 -0.5670
   31MOL    H12 2472   2.335   4.895   2.903 -0.6821 -1.5058  0.0674
   31MOL    H13 2473   2.258   4.908   3.054  0.4945 -0.5029 -0.1984
   31MOL    C14 2474   2.306   5.139   2.817 -0.1228 -0.3454  0.3985
   31MOL    O15 2475   2.426   5.094   2.759 -0.1365  0.3251  0.2280
   31MOL    H16 2476   2.299   5.248   2.816 -1.6478 -0.4275  0.2959
   31MOL    H17 2477   2.222   5.101   2.759  0.4380 -1.7437  0.4830
   31MOL    C18 2478   2.456   5.164   2.645 -0.1810  0.2167 -0.1948
   31MOL    O19 2479   2.375   5.139   2.540  0.3237 -0.0852  0.0398
   31MOL    H20 2480   2.557   5.145   2.609 -0.9529  0.6840 -2.7872
   31MOL    H21 2481   2.446   5.271   2.657 -0.5305  0.2714 -0.9015
   31MOL    C22 2482   2.372   5.009   2.498 -0.3047 -0.1338  0.1643
   31MOL    O23 2483   2.479   4.972   2.426  0.1095  0.0205  0.0560
   31MOL    H24 2484   2.287   5.004   2.430 -0.5173 -1.8317  0.5333
   31MOL    H25 2485   2.360   4.940   2.582 -0.6070 -0.0057  0.2248
   31MOL    C26 2486   2.506   5.040   2.302 -0.4818 -0.7342  0.2609
   31MOL    O27 2487   2.545   4.948   2.201 -0.6076 -0.4527 -0.4362
   31MOL    H28 2488   2.578   5.118   2.326  0.7067 -1.7249 -0.0335
   31MOL    H29 2489   2.425   5.096   2.254 -2.6770 -1.1544  3.3050
   31MOL    C30 2490   2.665   4.890   2.241 -0.7747  0.6841 -1.0129
   31MOL    O31 2491   2.687   4.777   2.156 -0.3955  0.3202 -0.1915
   31MOL    H32 2492   2.680   4.864   2.346  3.0515  1.4148 -1.2705
   31MOL    H33 2493   2.740   4.965   2.215 -1.3895  1.1403 -1.4836
   31MOL    C34 2494   2.618   4.666   2.205 -0.1713  0.3552  0.6934
   31MOL    O35 2495   2.665   4.631   2.332 -0.0786  0.3096 -0.1552
   31MOL    H36 2496   2.618   4.581   2.137 -1.6062  0.4722  0.5327
   31MOL    H37 2497   2.511   4.682   2.210 -0.2270  0.5585 -0.7614
   31MOL    C38 2498   2.790   4.575   2.324 -0.2890 -0.2137 -0.8330
   31MOL    O39 2499   2.860   4.583   2.445  0.0827  0.0590 -0.3515
   31MOL    H40 2500   2.851   4.619   2.245  1.0481 -0.5194  0.0139
   31MOL    H41 2501   2.773   4.473   2.289 -0.7877  0.5338 -2.8297
   31MOL    C42 2502   2.820   4.476   2.530  0.1898 -0.5687 -0.1291
   31MOL    O43 2503   2.864   4.353   2.492  0.8970 -0.0151 -0.3135
   31MOL    H44 2504   2.714   4.476   2.556  0.0654 -0.2469 -0.6381
   31MOL    H45 2505   2.864   4.498   2.627 -0.9793 -0.9161  0.4842
   31MOL    C46 2506   2.996   4.329   2.526 -0.6362  0.1535  0.0831
   31MOL    O47 2507   3.006   4.323   2.662  0.3748 -0.4706 -0.2246
   31MOL    H48 2508   3.049   4.417   2.490 -2.6966  1.5388  0.3390
   31MOL    H49 2509   3.028   4.241   2.470 -1.1152  0.4934 -0.7358
   31MOL    C50 2510   3.000   4.199   2.717 -0.5313  0.0194  0.5289
   31MOL    O51 2511   3.104   4.121   2.671 -0.4380  0.4675 -0.1030
   31MOL    H52 2512   2.908   4.147   2.691  0.8058 -1.8543 -0.5799
   31MOL    H53 2513   2.995   4.211   2.825 -1.5080  2.2779  0.2761
   31MOL    C54 2514   3.112   3.998   2.741 -0.8335  0.0307  0.3679
   31MOL    O55 2515   3.167   4.021   2.872 -0.8886 -0.1526  0.1379
   31MOL    H56 2516   3.190   3.941   2.689  0.5713  1.2277  1.1127
   31MOL    H57 2517   3.014   3.953   2.751 -0.7297 -0.1583  0.5384
   31MOL    C58 2518   3.300   4.066   2.882 -0.4686 -0.5135 -0.2721
   31MOL    O59 2519   3.381   3.981   2.953  0.4217  0.2038 -0.2586
   31MOL    H60 2520   3.286   4.164   2.927  1.3119 -1.2831  2.0571
   31MOL    H61 2521   3.344   4.087   2.784  0.8737 -2.7449 -0.1870
   31MOL    C62 2522   3.350   3.973   3.089  0.2604 -0.4590 -0.2562
   31MOL    O63 2523   3.380   4.101   3.146  0.6954  0.3145 -0.3543
   31MOL    H64 2524   3.401   3.890   3.136 -0.2377 -1.1315 -0.8979
   31MOL    H65 2525   3.246   3.945   3.100  0.5345 -0.6829  1.9543
   31MOL    C66 2526   3.311   4.115   3.266  1.2370 -0.3038 -0.3751
   31MOL    O67 2527   3.175   4.155   3.244  0.4632  0.3844 -0.3136
   31MOL    H68 2528   3.363   4.198   3.315  1.0905  0.1656 -1.0041
   31MOL    H69 2529   3.307   4.026   3.328 -0.6239  1.0510  1.5365
   31MOL    C70 2530   3.103   4.174   3.362 -0.1991  0.5058 -0.1705
   31MOL    O71 2531   3.097   4.060   3.441  0.1058  0.0107 -0.1307
   31MOL    H72 2532   2.998   4.201   3.353 -0.4073  0.3731  1.6415
   31MOL    H73 2533   3.155   4.255   3.414  0.4983  0.7614 -1.2342
   31MOL    C74 2534   3.012   3.963   3.386 -0.5062  0.3100 -0.0943
   31MOL    O75 2535   2.881   3.976   3.438 -0.9319  0.4820  0.1354
   31MOL    H76 2536   3.049   3.863   3.408 -2.0257 -0.2718 -0.1370
   31MOL    H77 2537   3.006   3.968   3.278 -1.4586 -1.8769 -0.1612
   31MOL    C78 2538   2.865   3.951   3.574  0.6710 -0.1614 -0.2801
   31MOL    O79 2539   2.742   3.996   3.613  0.0766 -0.2258  0.4597
   31MOL    H80 2540   2.942   3.996   3.637 -0.4128  2.7580 -0.9493
   31MOL    H81 2541   2.869   3.843   3.586  1.4750 -0.3433 -2.1620
   31MOL    H82 2542   2.747   4.083   3.577  0.6827 -1.3257 -2.1934
   32MOL     C1 2543   2.032   2.462   0.433  0.4355 -0.4938 -0.7512
   32MOL     O2 2544   1.967   2.342   0.474  0.3654 -0.3862  0.2431
   32MOL     H3 2545   2.033   2.465   0.324  1.0703  0.6514 -0.7258
   32MOL     H4 2546   1.984   2.552   0.472  0.9214 -0.5814  0.0641
   32MOL     H5 2547   2.133   2.466   0.474 -1.2390  0.0443  3.5536
   32MOL     C6 2548   2.032   2.228   0.439 -0.0708  0.0327  0.3569
   32MOL     O7 2549   2.047   2.219   0.302 -0.2649  0.2406  0.2208
   32MOL     H8 2550   1.989   2.136   0.478  3.0466 -1.1401  1.1875
   32MOL     H9 2551   2.131   2.218   0.484 -0.2651  1.9777  1.2741
   32MOL    C10 2552   1.928   2.206   0.231 -0.4484 -0.1056 -0.3624
   32MOL    O11 2553   1.886   2.075   0.220  0.2017  0.3671 -0.5619
   32MOL    H12 2554   1.943   2.239   0.128  1.7694 -0.7466 -0.2595
   32MOL    H13 2555   1.855   2.272   0.277 -1.7958 -1.8713  0.0823
   32MOL    C14 2556   1.971   2.000   0.143 -0.3293 -0.2638  0.0221
   32MOL    O15 2557   1.964   2.032   0.006 -0.2706 -0.0887 -0.1743
   32MOL    H16 2558   1.949   1.897   0.170  0.2581 -0.7961 -1.4619
   32MOL    H17 2559   2.074   2.018   0.173 -0.7423  1.8811  0.2131
   32MOL    C18 2560   1.856   1.974   7.725  0.6217  0.1769  0.2153
   32MOL    O19 2561   1.844   2.017   7.596  0.2880 -0.4633 -0.2029
   32MOL    H20 2562   1.760   1.993   7.774  0.3019 -0.6665 -0.0662
   32MOL    H21 2563   1.882   1.868   7.720  3.2275  0.8693 -4.2169
   32MOL    C22 2564   1.784   2.143   7.584 -0.3112 -0.0228  0.2461
   32MOL    O23 2565   1.648   2.147   7.598  0.4785  0.0968 -0.0365
   32MOL    H24 2566   1.807   2.168   7.480 -2.3160 -0.1043 -0.2550
   32MOL    H25 2567   1.829   2.213   7.653  1.0101 -0.2634 -0.3646
   32MOL    C26 2568   1.592   2.263   7.538  0.6911 -0.1601 -1.0713
   32MOL    O27 2569   1.658   2.378   7.578 -0.5864 -0.5723 -0.3231
   32MOL    H28 2570   1.487   2.269   7.568  1.0141 -1.6475  0.4259
   32MOL    H29 2571   1.608   2.261   7.430  1.1387  1.2504 -1.0467
   32MOL    C30 2572   1.631   2.414   7.709 -0.0480  0.2148 -0.3966
   32MOL    O31 2573   1.711   2.524   7.742 -0.0033  0.4148  0.3242
   32MOL    H32 2574   1.651   2.327   7.772  1.4596 -0.6957 -2.0605
   32MOL    H33 2575   1.526   2.440   7.703 -0.4634 -1.4833 -0.7543
   32MOL    C34 2576   1.835   2.497   0.002 -0.2373  0.5104 -0.2383
   32MOL    O35 2577   1.835   2.482   0.139 -0.1665  1.1549 -0.9813
   32MOL    H36 2578   1.916   2.564   7.759  2.0651 -1.2191  2.0904
   32MOL    H37 2579   1.868   2.401   7.746 -2.9826 -0.4691 -0.3161
   32MOL    C38 2580   1.781   2.586   0.213 -0.9367  0.1668  0.1362
   32MOL    O39 2581   1.827   2.711   0.179  0.5601  0.5031  0.2007
   32MOL    H40 2582   1.814   2.567   0.316 -2.3971 -1.7170  0.2927
   32MOL    H41 2583   1.672   2.579   0.209 -0.9489  0.6647 -0.3342
   32MOL    C42 2584   1.767   2.810   0.257 -0.3638 -0.8623 -0.1316
   32MOL    O43 2585   1.799   2.807   0.391  0.1883  0.5849  0.1136
   32MOL    H44 2586   1.661   2.788   0.264 -0.1028 -2.1675 -0.1513
   32MOL    H45 2587   1.782   2.908   0.213  0.6518 -0.5419  0.9000
   32MOL    C46 2588   1.927   2.851   0.412 -0.5554 -0.6619 -0.3068
   32MOL    O47 2589   1.959   2.839   0.545  0.5855  0.1564 -0.4562
   32MOL    H48 2590   1.955   2.945   0.363  0.9442 -1.4509 -1.0060
   32MOL    H49 2591   1.991   2.780   0.361  1.3819  0.7991  0.0182
   32MOL    C50 2592   1.905   2.938   0.619 -0.3466 -0.0076 -0.3798
   32MOL    O51 2593   1.972   3.062   0.604 -0.2476  0.4577 -0.2504
   32MOL    H52 2594   1.903   2.915   0.726 -0.2239 -1.8313 -0.7645
   32MOL    H53 2595   1.801   2.952   0.590 -0.2995 -0.3211 -0.6959
   32MOL    C54 2596   2.086   3.066   0.684  0.2338 -0.2876 -0.4849
   32MOL    O55 2597   2.151   3.189   0.689  0.0513 -0.8757  0.1836
   32MOL    H56 2598   2.156   2.993   0.642  0.5244  0.1314 -0.7284
   32MOL    H57 2599   2.065   3.023   0.782  2.2297  0.1103  0.1524
   32MOL    C58 2600   2.219   3.213   0.573 -0.2717 -0.1203  0.6007
   32MOL    O59 2601   2.338   3.136   0.564  0.6161 -0.2646 -0.1398
   32MOL    H60 2602   2.247   3.318   0.563  0.3081 -0.4357 -1.5125
   32MOL    H61 2603   2.150   3.197   0.489 -0.9515 -0.4940  1.2286
   32MOL    C62 2604   2.444   3.187   0.639 -0.3219 -0.1269 -0.2439
   32MOL    O63 2605   2.483   3.307   0.574  0.3879  0.5932 -0.3256
   32MOL    H64 2606   2.526   3.117   0.653  0.7288  0.9992 -0.6966
   32MOL    H65 2607   2.416   3.207   0.743 -0.4339 -0.6169 -0.1775
   32MOL    C66 2608   2.576   3.288   0.468 -0.1213  0.2526 -0.8464
   32MOL    O67 2609   2.695   3.241   0.514 -0.1004 -0.4362  0.1760
   32MOL    H68 2610   2.585   3.380   0.412 -2.4044  1.3306  0.4923
   32MOL    H69 2611   2.546   3.211   0.397  1.6416 -1.2849  0.0308
   32MOL    C70 2612   2.792   3.264   0.414  0.0018  0.0456 -0.5883
   32MOL    O71 2613   2.841   3.394   0.415  0.0728 -0.4932 -0.0469
   32MOL    H72 2614   2.742   3.231   0.323 -1.4567  0.6637 -0.0455
   32MOL    H73 2615   2.879   3.201   0.428 -0.6597 -0.2281  2.7342
   32MOL    C74 2616   2.921   3.422   0.520  0.3962  0.2515  0.2712
   32MOL    O75 2617   3.032   3.339   0.537 -0.3745  0.8282  0.1809
   32MOL    H76 2618   2.861   3.421   0.611 -0.8491  3.7961 -0.4418
   32MOL    H77 2619   2.951   3.523   0.494  2.2216  0.2804  2.3771
   32MOL    C78 2620   3.125   3.351   0.433  0.3037  0.7234 -0.1102
   32MOL    O79 2621   3.220   3.247   0.450 -1.0565  0.3199  0.2637
   32MOL    H80 2622   3.164   3.453   0.429  0.5256  0.6617  0.3821
   32MOL    H81 2623   3.082   3.341   0.334  0.2542 -4.7794  0.2914
   32MOL    H82 2624   3.306   3.282   0.465 -0.1588 -1.3986 -0.7621
   33MOL     C1 2625   2.597   2.807   0.213 -0.7220 -0.4189 -0.8240
   33MOL     O2 2626   2.583   2.775   0.352  0.4306  0.3540 -0.4547
   33MOL     H3 2627   2.505   2.802   0.155 -0.4860  0.9955 -1.3135
   33MOL     H4 2628   2.624   2.909   0.190  1.5719 -0.9456 -0.5929
   33MOL     H5 2629   2.680   2.747   0.176  0.2251 -1.3273  2.6107
   33MOL     C6 2630   2.466   2.827   0.414 -0.2894 -0.1051 -0.3719
   33MOL     O7 2631   2.342   2.798   0.357 -0.3009  0.3789  0.2407
   33MOL     H8 2632   2.478   2.935   0.412 -0.1299 -0.1112  0.1719
   33MOL     H9 2633   2.464   2.787   0.515 -1.7577 -0.9873 -0.7378
   33MOL    C10 2634   2.322   2.662   0.336 -0.3739 -0.4308  0.3484
   33MOL    O11 2635   2.202   2.645   0.269 -0.3141 -1.0281 -0.2114
   33MOL    H12 2636   2.322   2.611   0.433 -1.1358 -0.6645  0.2256
   33MOL    H13 2637   2.399   2.606   0.282  0.4176 -1.2151  2.2340
   33MOL    C14 2638   2.208   2.676   0.130  0.1653  0.6905  0.1907
   33MOL    O15 2639   2.279   2.586   0.049  0.5084 -0.2386  0.2188
   33MOL    H16 2640   2.251   2.776   0.121  0.9115  0.4150  0.6495
   33MOL    H17 2641   2.103   2.678   0.103  0.5316 -1.2935 -1.4734
   33MOL    C18 2642   2.224   2.452   0.048 -0.4653 -0.3374 -0.7907
   33MOL    O19 2643   2.282   2.364   0.133 -0.6134  0.1137  0.4903
   33MOL    H20 2644   2.219   2.409   7.732 -3.0013 -1.4116 -0.2308
   33MOL    H21 2645   2.118   2.458   0.074 -0.9314 -0.9550 -2.5166
   33MOL    C22 2646   2.399   2.311   0.075 -0.1259  0.1335 -0.0905
   33MOL    O23 2647   2.461   2.218   0.162 -0.2491 -0.1548 -0.6066
   33MOL    H24 2648   2.473   2.389   0.053  0.4648 -1.1391 -2.7715
   33MOL    H25 2649   2.368   2.257   7.770 -1.2566  0.4102  0.1335
   33MOL    C26 2650   2.379   2.106   0.202  0.0110 -0.2203  0.4702
   33MOL    O27 2651   2.449   2.006   0.269 -0.0657 -0.2146 -0.7805
   33MOL    H28 2652   2.326   2.073   0.113  2.3885  0.0026 -1.0868
   33MOL    H29 2653   2.298   2.138   0.268 -0.0211  0.6563  0.0114
   33MOL    C30 2654   2.494   2.045   0.393  0.1479 -0.7553 -0.4003
   33MOL    O31 2655   2.391   2.079   0.484  0.1766 -0.0017  0.3590
   33MOL    H32 2656   2.567   2.125   0.383 -0.9686  0.2493 -0.6878
   33MOL    H33 2657   2.551   1.961   0.434 -1.4537 -1.2377  0.9022
   33MOL    C34 2658   2.324   1.971   0.536 -0.0611  0.5109 -0.3684
   33MOL    O35 2659   2.402   1.900   0.627  0.1294  0.7435 -0.1638
   33MOL    H36 2660   2.290   1.908   0.455  2.3138 -1.4593  0.1091
   33MOL    H37 2661   2.235   2.010   0.586  0.2561 -0.8663  1.3327
   33MOL    C38 2662   2.430   1.976   0.739  0.3079 -0.2213 -0.1161
   33MOL    O39 2663   2.319   1.972   0.823 -0.5255 -0.3827 -0.7414
   33MOL    H40 2664   2.453   2.081   0.721  1.2102 -0.3289  0.3633
   33MOL    H41 2665   2.514   1.933   0.794  0.9994  1.5360  0.2151
   33MOL    C42 2666   2.318   1.861   0.914  0.9279 -0.2951  0.3509
   33MOL    O43 2667   2.404   1.869   1.021 -0.3873 -0.1678 -0.2452
   33MOL    H44 2668   2.354   1.773   0.860  0.2181 -0.2730 -0.1762
   33MOL    H45 2669   2.216   1.836   0.943  0.1394  2.3009 -0.0411
   33MOL    C46 2670   2.345   1.954   1.110  0.6627 -0.0706 -0.6254
   33MOL    O47 2671   2.433   1.982   1.210 -0.7742 -0.4863  0.7043
   33MOL    H48 2672   2.253   1.910   1.151  0.8194  1.0288  0.9466
   33MOL    H49 2673   2.329   2.053   1.068  1.9301 -0.7710 -2.8190
   33MOL    C50 2674   2.440   1.874   1.305 -0.6307  0.2366 -0.4268
   33MOL    O51 2675   2.322   1.877   1.387 -0.5722 -0.0178 -0.0887
   33MOL    H52 2676   2.531   1.881   1.364 -0.3451 -0.5994 -0.7465
   33MOL    H53 2677   2.438   1.778   1.252  1.8725  0.0970 -0.3022
   33MOL    C54 2678   2.341   1.874   1.531 -0.3321  1.0826 -0.3851
   33MOL    O55 2679   2.379   1.747   1.571 -0.3999  0.1138  0.0264
   33MOL    H56 2680   2.246   1.901   1.575  0.5536  0.4343  1.9767
   33MOL    H57 2681   2.416   1.950   1.557  1.5905 -1.4139  1.6109
   33MOL    C58 2682   2.276   1.657   1.577 -0.3478 -0.4916  0.2075
   33MOL    O59 2683   2.187   1.691   1.677 -0.0347  0.0694 -0.1596
   33MOL    H60 2684   2.308   1.554   1.594 -0.2009 -0.3950  0.5092
   33MOL    H61 2685   2.230   1.663   1.478  3.3010  1.1075 -1.5025
   33MOL    C62 2686   2.215   1.630   1.799 -0.2039  0.4365 -0.6961
   33MOL    O63 2687   2.334   1.671   1.853 -0.0776 -0.8357  0.3475
   33MOL    H64 2688   2.220   1.522   1.787 -0.4109  0.5294 -1.6513
   33MOL    H65 2689   2.131   1.653   1.865  1.2299  0.7447  1.0638
   33MOL    C66 2690   2.328   1.808   1.883  0.3830  0.4189 -0.3351
   33MOL    O67 2691   2.233   1.846   1.972  1.5739  0.0667 -0.3661
   33MOL    H68 2692   2.297   1.861   1.793  3.4617  2.1594 -0.4643
   33MOL    H69 2693   2.424   1.842   1.924  0.0896  1.1924 -0.2755
   33MOL    C70 2694   2.269   1.819   2.104 -0.1081  0.5520 -0.0562
   33MOL    O71 2695   2.372   1.894   2.154 -0.3796  0.0747  0.3259
   33MOL    H72 2696   2.287   1.712   2.103  1.5553  0.8191  0.3683
   33MOL    H73 2697   2.178   1.831   2.164  0.2701  0.9317  0.4472
   33MOL    C74 2698   2.323   2.029   2.165  0.3783  0.1331  0.5885
   33MOL    O75 2699   2.219   2.030   2.259 -0.7004 -0.0771 -0.0719
   33MOL    H76 2700   2.283   2.048   2.066  0.7459  0.6267  0.5342
   33MOL    H77 2701   2.408   2.096   2.181  0.1549 -0.0383  2.6285
   33MOL    C78 2702   2.270   2.061   2.383 -0.4838 -0.1719  0.4483
   33MOL    O79 2703   2.175   2.034   2.479  0.8699  0.0799 -0.2896
   33MOL    H80 2704   2.289   2.168   2.391 -0.1356 -0.3063  1.4195
   33MOL    H81 2705   2.365   2.015   2.409 -0.3676 -0.6892 -0.8484
   33MOL    H82 2706   2.177   1.939   2.485  1.5501  0.0596 -0.7672
   34MOL     C1 2707   0.477   2.853   2.056 -0.1911 -0.4157  0.0241
   34MOL     O2 2708   0.418   2.976   2.094 -0.0133 -0.4179 -0.6666
   34MOL     H3 2709   0.423   2.771   2.105  0.5661 -0.1621  1.3131
   34MOL     H4 2710   0.455   2.836   1.951 -0.5818  0.2163 -0.0030
   34MOL     H5 2711   0.585   2.850   2.069 -0.2425 -0.2308  0.5250
   34MOL     C6 2712   0.417   3.003   2.235  0.7606 -0.7995  0.5702
   34MOL     O7 2713   0.374   3.131   2.260 -0.5009 -0.4537 -0.4539
   34MOL     H8 2714   0.518   2.995   2.277  0.3751  0.2684  1.7306
   34MOL     H9 2715   0.349   2.935   2.285  0.7994 -0.4861  1.0570
   34MOL    C10 2716   0.244   3.150   2.218  0.6215  0.2479  0.0787
   34MOL    O11 2717   0.174   3.266   2.268 -0.3257 -0.3911  0.4859
   34MOL    H12 2718   0.189   3.062   2.253  0.3767  0.3708  0.0070
   34MOL    H13 2719   0.242   3.154   2.110 -1.2483  0.8493  0.1131
   34MOL    C14 2720   0.176   3.379   2.187  0.3390  0.3530 -0.2270
   34MOL    O15 2721   0.121   3.368   2.062  0.3908  0.0016 -0.3102
   34MOL    H16 2722   0.275   3.423   2.178  0.7545 -0.4979  0.2142
   34MOL    H17 2723   0.119   3.454   2.243  1.4554  0.5051  0.7230
   34MOL    C18 2724   0.150   3.476   1.975  0.3236 -0.4542 -0.1213
   34MOL    O19 2725   0.072   3.585   1.991  0.0933  0.6863 -0.2342
   34MOL    H20 2726   0.153   3.429   1.877 -2.1005  0.7986 -0.8478
   34MOL    H21 2727   0.245   3.522   2.000  0.5091 -0.7599 -0.2715
   34MOL    C22 2728   7.716   3.560   1.974 -0.5437 -0.8085  0.5265
   34MOL    O23 2729   7.635   3.626   2.069 -0.4394 -0.2287  0.4503
   34MOL    H24 2730   7.693   3.453   1.975 -2.1951 -0.4624  3.7381
   34MOL    H25 2731   7.699   3.600   1.874 -1.7667  1.1554  1.4996
   34MOL    C26 2732   7.632   3.766   2.035 -0.2125 -0.1852  0.1054
   34MOL    O27 2733   7.535   3.793   1.936  0.0282 -0.1978  1.0003
   34MOL    H28 2734   7.730   3.811   2.020  0.1439 -0.3452  1.7636
   34MOL    H29 2735   7.589   3.816   2.122 -2.0945 -0.1652 -0.8113
   34MOL    C30 2736   7.399   3.776   1.982  0.1710 -1.0718 -0.4831
   34MOL    O31 2737   7.365   3.862   2.083  0.0777  0.1460 -0.1313
   34MOL    H32 2738   7.397   3.675   2.024  1.4443 -0.6752  0.5497
   34MOL    H33 2739   7.320   3.779   1.907 -0.3717 -0.8357  0.0949
   34MOL    C34 2740   7.336   3.994   2.043 -0.9577  0.3090  0.1378
   34MOL    O35 2741   7.209   3.989   1.983 -0.7736  0.0096 -0.0088
   34MOL    H36 2742   7.405   4.028   1.966  0.1413 -1.2013  0.4334
   34MOL    H37 2743   7.334   4.066   2.125 -1.4587  3.4012 -2.4833
   34MOL    C38 2744   7.109   3.984   2.072  0.0855 -0.0630 -0.1457
   34MOL    O39 2745   7.112   4.096   2.155  0.0705 -0.0707 -0.8230
   34MOL    H40 2746   7.118   3.894   2.133  2.9194 -0.1127 -0.5917
   34MOL    H41 2747   7.021   3.971   2.009  0.7524  2.2667 -1.6083
   34MOL    C42 2748   7.056   4.208   2.099 -0.6711 -0.6109  0.3136
   34MOL    O43 2749   6.917   4.188   2.081  0.3359  0.2704 -0.3380
   34MOL    H44 2750   7.106   4.230   2.005  2.4915  2.1084  2.4773
   34MOL    H45 2751   7.057   4.296   2.163 -2.7183 -1.6509  1.8417
   34MOL    C46 2752   6.835   4.228   2.197 -0.1289  0.0352  0.6775
   34MOL    O47 2753   6.833   4.365   2.210  0.3424  0.0973 -0.0775
   34MOL    H48 2754   6.882   4.204   2.293  1.3393  2.2858  0.5676
   34MOL    H49 2755   6.738   4.181   2.182  0.2154 -0.6901  0.6846
   34MOL    C50 2756   6.721   4.416   2.142 -0.2918  0.2829  0.2416
   34MOL    O51 2757   6.718   4.553   2.147 -0.7154  0.1378 -0.2930
   34MOL    H52 2758   6.628   4.368   2.172  0.1965 -1.5691 -1.1081
   34MOL    H53 2759   6.718   4.389   2.036  1.8164  0.2824  0.1596
   34MOL    C54 2760   6.674   4.594   2.269  0.5952 -0.2309 -0.3180
   34MOL    O55 2761   6.537   4.559   2.290 -0.0242  0.7456 -0.4301
   34MOL    H56 2762   6.683   4.702   2.278  0.5860 -0.2284 -0.3373
   34MOL    H57 2763   6.742   4.560   2.348 -1.1745 -0.8212  1.0054
   34MOL    C58 2764   6.443   4.616   2.197  0.4128 -0.4208  0.1050
   34MOL    O59 2765   6.321   4.539   2.194  0.2496 -0.4745  0.1127
   34MOL    H60 2766   6.480   4.620   2.094 -1.4134 -1.7977 -0.6437
   34MOL    H61 2767   6.433   4.719   2.231 -0.7324 -0.3451 -0.4310
   34MOL    C62 2768   6.327   4.415   2.135 -0.0617  0.1163 -1.0906
   34MOL    O63 2769   6.356   4.414   2.000 -0.2014  0.3611 -0.2623
   34MOL    H64 2770   6.229   4.369   2.141  0.9296 -1.9640 -0.1284
   34MOL    H65 2771   6.401   4.359   2.193  0.6674  1.3067 -0.8512
   34MOL    C66 2772   6.261   4.453   1.907  0.2433  0.5983 -0.2190
   34MOL    O67 2773   6.160   4.363   1.892  0.3313  0.6407 -0.0463
   34MOL    H68 2774   6.303   4.464   1.807 -0.1950  0.2718 -0.4392
   34MOL    H69 2775   6.214   4.548   1.933 -1.3402 -0.6888  1.7353
   34MOL    C70 2776   6.203   4.246   1.829 -0.2796  0.0907  0.1828
   34MOL    O71 2777   6.097   4.194   1.757 -0.4232 -0.4340  0.6917
   34MOL    H72 2778   6.235   4.174   1.905 -0.3293 -1.0673 -0.8833
   34MOL    H73 2779   6.284   4.272   1.761 -0.9137  2.8577  0.4375
   34MOL    C74 2780   6.093   4.233   1.626 -0.5331 -0.1297 -0.2199
   34MOL    O75 2781   6.146   4.129   1.538 -0.1060  0.3941 -0.1250
   34MOL    H76 2782   6.149   4.322   1.598 -1.4159  0.6279  0.3543
   34MOL    H77 2783   5.989   4.255   1.600 -0.4130 -0.0686 -0.6447
   34MOL    C78 2784   6.060   4.022   1.509  0.3419  0.3633  0.3499
   34MOL    O79 2785   6.107   3.937   1.402  0.0070 -0.1329 -0.4597
   34MOL    H80 2786   5.965   4.056   1.467  1.3504  1.0847 -1.3980
   34MOL    H81 2787   6.037   3.965   1.599 -2.2071 -0.9235 -1.0684
   34MOL    H82 2788   6.168   3.866   1.419 -1.1279 -1.3976 -1.5240
   35MOL     C1 2789   1.172   4.790   2.030  0.2057 -0.0966 -0.0184
   35MOL     O2 2790   1.196   4.732   1.904 -0.0873 -0.2599  0.3139
   35MOL     H3 2791   1.207   4.893   2.031 -1.1507  0.4109 -2.2718
   35MOL     H4 2792   1.070   4.803   2.066  0.9802  0.5922  2.0619
   35MOL     H5 2793   1.219   4.735   2.112 -0.6181 -0.7215  0.0426
   35MOL     C6 2794   1.250   4.603   1.917 -0.8700  0.0089  0.5602
   35MOL     O7 2795   1.158   4.508   1.959 -0.0367  0.2365 -0.3408
   35MOL     H8 2796   1.345   4.607   1.970 -0.7581  1.7954  0.2444
   35MOL     H9 2797   1.269   4.576   1.814 -3.6077  0.3850 -0.0875
   35MOL    C10 2798   1.200   4.377   1.936 -0.3731 -1.4046 -0.6405
   35MOL    O11 2799   1.162   4.328   1.807  0.0391 -0.1122  0.6263
   35MOL    H12 2800   1.146   4.326   2.015 -0.6182 -0.8623 -0.4608
   35MOL    H13 2801   1.305   4.353   1.948 -0.5046 -1.0152  1.3714
   35MOL    C14 2802   1.024   4.322   1.799 -0.4671 -0.5282 -0.1790
   35MOL    O15 2803   0.988   4.202   1.869  0.0335  0.1639 -0.0728
   35MOL    H16 2804   0.993   4.312   1.695  1.1060  0.3427 -0.7538
   35MOL    H17 2805   0.973   4.407   1.843  0.4932  0.9333 -1.8586
   35MOL    C18 2806   1.031   4.083   1.801  0.7538 -0.7622 -0.8526
   35MOL    O19 2807   0.954   4.061   1.687  0.1363  0.1366  0.9276
   35MOL    H20 2808   1.041   3.999   1.871 -0.0634 -0.1536  0.0088
   35MOL    H21 2809   1.130   4.103   1.761 -0.2459 -1.4566 -3.7596
   35MOL    C22 2810   0.835   3.987   1.705 -0.3047  0.3851 -0.8029
   35MOL    O23 2811   0.838   3.863   1.640  0.4459 -0.1368 -0.7572
   35MOL    H24 2812   0.740   4.034   1.679 -0.5125 -0.7400 -2.1113
   35MOL    H25 2813   0.822   3.948   1.806 -1.4520 -1.7621 -1.7388
   35MOL    C26 2814   0.810   3.876   1.501 -0.4273  0.0708  0.1182
   35MOL    O27 2815   0.674   3.886   1.477 -0.0696 -0.2934  0.1127
   35MOL    H28 2816   0.840   3.786   1.447  1.2988 -0.8846  2.6080
   35MOL    H29 2817   0.860   3.965   1.461 -1.2840  0.8126  0.6949
   35MOL    C30 2818   0.590   3.774   1.494  0.2083  0.1847  0.0407
   35MOL    O31 2819   0.606   3.682   1.383  0.3475 -0.6327  0.6342
   35MOL    H32 2820   0.493   3.822   1.509 -0.0731 -0.1118 -0.8004
   35MOL    H33 2821   0.616   3.715   1.582  1.5822 -0.1924 -0.6139
   35MOL    C34 2822   0.541   3.729   1.275  0.1550 -0.4966 -0.2879
   35MOL    O35 2823   0.404   3.735   1.301 -0.0682  0.1121  0.3132
   35MOL    H36 2824   0.557   3.655   1.197 -0.1033 -0.0532 -0.7679
   35MOL    H37 2825   0.571   3.827   1.238 -0.5086 -1.0097 -2.2623
   35MOL    C38 2826   0.324   3.753   1.188  0.6186  0.2697  0.4565
   35MOL    O39 2827   0.332   3.643   1.108 -0.5466  0.5922  0.1138
   35MOL    H40 2828   0.345   3.842   1.130 -1.5281  1.4085  1.3926
   35MOL    H41 2829   0.221   3.766   1.220  0.9453  0.8395  1.2914
   35MOL    C42 2830   0.261   3.654   0.989  0.0282  0.3518  0.1255
   35MOL    O43 2831   0.303   3.765   0.910 -0.8111  0.0670 -0.1157
   35MOL    H44 2832   0.159   3.671   1.022 -0.1863  0.8790 -0.8004
   35MOL    H45 2833   0.263   3.556   0.942  2.5333 -0.2871  1.4293
   35MOL    C46 2834   0.430   3.749   0.853 -0.3289 -0.5852  0.1102
   35MOL    O47 2835   0.431   3.626   0.781  0.3355 -0.1201 -0.2954
   35MOL    H48 2836   0.504   3.728   0.930 -0.8224 -2.3821  0.1184
   35MOL    H49 2837   0.474   3.836   0.804  0.8591 -0.7363  0.8816
   35MOL    C50 2838   0.376   3.644   0.655 -0.1790  0.2078  0.0144
   35MOL    O51 2839   0.445   3.738   0.581  0.0821  0.3681 -0.4655
   35MOL    H52 2840   0.273   3.672   0.677 -1.0155 -1.3572 -1.8049
   35MOL    H53 2841   0.368   3.555   0.593  1.1150  0.2422 -0.2124
   35MOL    C54 2842   0.571   3.700   0.547 -0.0035 -0.5951 -0.0039
   35MOL    O55 2843   0.574   3.576   0.483  0.3000 -0.2740 -0.4009
   35MOL    H56 2844   0.640   3.698   0.631  0.0677 -2.6250 -0.0920
   35MOL    H57 2845   0.615   3.776   0.482 -1.5301  0.3960  0.0960
   35MOL    C58 2846   0.542   3.593   0.345  0.0640 -0.1020 -0.1411
   35MOL    O59 2847   0.640   3.670   0.277  0.0238  0.2523 -0.6025
   35MOL    H60 2848   0.458   3.660   0.328  0.3343  0.3261  0.1798
   35MOL    H61 2849   0.536   3.496   0.297  1.5251 -0.5145  0.4875
   35MOL    C62 2850   0.753   3.591   0.242  0.3446 -0.5933 -0.0415
   35MOL    O63 2851   0.718   3.499   0.146  0.3680 -0.4584  0.5268
   35MOL    H64 2852   0.789   3.529   0.324 -0.9684 -0.7314  0.4441
   35MOL    H65 2853   0.834   3.649   0.199 -0.4931 -0.1139 -0.9941
   35MOL    C66 2854   0.710   3.552   0.015  0.5357 -0.2310  0.1293
   35MOL    O67 2855   0.576   3.583   7.763 -0.4389  0.3217 -0.2699
   35MOL    H68 2856   0.741   3.480   7.723 -0.9156  1.9260 -2.6140
   35MOL    H69 2857   0.771   3.641   0.002  2.8628 -1.6822  0.7661
   35MOL    C70 2858   0.495   3.468   7.756 -0.5116 -0.0073  0.3177
   35MOL    O71 2859   0.371   3.484   7.715  0.4086  0.5079 -0.1523
   35MOL    H72 2860   0.480   3.433   0.075  0.1261 -1.6333 -0.1331
   35MOL    H73 2861   0.537   3.386   7.697  1.6114  2.0188 -1.0202
   35MOL    C74 2862   0.366   3.528   7.586  0.3171  0.2509  0.2947
   35MOL    O75 2863   0.396   3.427   7.496 -0.1010  0.7230  0.0939
   35MOL    H76 2864   0.426   3.617   7.570  1.5591 -0.2714  1.8144
   35MOL    H77 2865   0.260   3.548   7.568 -0.1169 -0.0470  2.3900
   35MOL    C78 2866   0.299   3.333   7.476 -0.3120  1.1098  0.0310
   35MOL    O79 2867   0.337   3.231   7.388 -0.4667  0.2193 -0.0643
   35MOL    H80 2868   0.206   3.364   7.427 -1.2478  1.3387  1.8993
   35MOL    H81 2869   0.268   3.293   7.573  2.3006  0.2478  0.5493
   35MOL    H82 2870   0.431   3.235   7.381 -0.5161 -0.6530 -1.4243
   36MOL     C1 2871   3.238   6.499   0.930 -0.3784  0.7634  0.0434
   36MOL     O2 2872   3.267   6.410   1.038  0.7228  0.1621 -0.2101
   36MOL     H3 2873   3.306   6.480   0.847 -1.1616 -1.4619 -0.1228
   36MOL     H4 2874   3.137   6.495   0.891 -0.0365 -2.5924 -0.6236
   36MOL     H5 2875   3.244   6.602   0.967 -1.2155  0.2066  1.8076
   36MOL     C6 2876   3.271   6.273   1.004  0.3571 -0.0173  0.1634
   36MOL     O7 2877   3.145   6.223   0.968 -0.2587 -0.2737 -0.0154
   36MOL     H8 2878   3.301   6.219   1.093 -2.9695 -0.9220  0.7682
   36MOL     H9 2879   3.346   6.265   0.925  0.3812 -2.4587  0.3971
   36MOL    C10 2880   3.046   6.221   1.066  0.1593 -0.2585 -0.3226
   36MOL    O11 2881   2.935   6.154   1.025  0.3891  0.0339  0.3856
   36MOL    H12 2882   3.019   6.318   1.109 -1.9451 -1.7851  1.9545
   36MOL    H13 2883   3.086   6.172   1.155 -0.0430 -0.2351 -0.2198
   36MOL    C14 2884   2.881   6.218   0.918 -0.0563 -0.0561  0.3537
   36MOL    O15 2885   2.831   6.345   0.954 -0.1407  0.0560  0.4405
   36MOL    H16 2886   2.811   6.153   0.865  0.1018 -0.4256  0.5993
   36MOL    H17 2887   2.960   6.238   0.846 -1.5537  0.7532 -1.1097
   36MOL    C18 2888   2.695   6.360   0.988 -0.4351 -0.7813 -0.2389
   36MOL    O19 2889   2.666   6.312   1.121  0.0012 -1.3597  0.3284
   36MOL    H20 2890   2.635   6.317   0.907  0.8013 -1.1114 -0.9904
   36MOL    H21 2891   2.674   6.467   0.988  2.9116 -0.0821  0.5731
   36MOL    C22 2892   2.740   6.380   1.218  0.0010 -0.0464  0.9100
   36MOL    O23 2893   2.658   6.484   1.252  0.0245  0.0966 -1.0063
   36MOL    H24 2894   2.832   6.423   1.180  0.1393  0.2105  1.5305
   36MOL    H25 2895   2.756   6.304   1.295 -0.4440 -2.2455 -1.1306
   36MOL    C26 2896   2.568   6.447   1.358 -0.4916 -0.0318  0.4412
   36MOL    O27 2897   2.628   6.457   1.481 -0.3611  0.0405  0.1970
   36MOL    H28 2898   2.526   6.348   1.337 -0.5295 -0.4856  2.5483
   36MOL    H29 2899   2.479   6.511   1.364 -0.2361  0.3652  0.0312
   36MOL    C30 2900   2.658   6.580   1.508  0.5818  0.4907 -0.1562
   36MOL    O31 2901   2.552   6.658   1.559  0.0407  0.3622 -0.1183
   36MOL    H32 2902   2.692   6.640   1.423 -0.4612  3.8533  1.6746
   36MOL    H33 2903   2.743   6.592   1.575  0.0264  1.4641  0.3927
   36MOL    C34 2904   2.502   6.618   1.683 -0.4130  0.0983  0.2601
   36MOL    O35 2905   2.389   6.691   1.716  0.9311  0.9396 -0.1211
   36MOL    H36 2906   2.580   6.634   1.758 -1.1483  0.5281  0.9322
   36MOL    H37 2907   2.470   6.514   1.682 -3.0916  0.8833  1.7473
   36MOL    C38 2908   2.405   6.820   1.765  0.9271 -0.7119 -0.0033
   36MOL    O39 2909   2.472   6.817   1.888 -0.1886 -0.2437 -0.1156
   36MOL    H40 2910   2.303   6.854   1.777  1.2125 -0.2917  1.2618
   36MOL    H41 2911   2.454   6.888   1.695  0.7308  0.9832  1.5021
   36MOL    C42 2912   2.398   6.761   1.990 -0.0628 -0.3722 -0.5369
   36MOL    O43 2913   2.289   6.842   2.032 -0.3166 -0.1981 -0.0020
   36MOL    H44 2914   2.462   6.743   2.076  0.0245 -1.3135 -0.7884
   36MOL    H45 2915   2.368   6.660   1.962  2.1392 -0.8428 -1.3214
   36MOL    C46 2916   2.332   6.953   2.102  0.3680 -0.2982  0.4159
   36MOL    O47 2917   2.397   6.927   2.218  0.3213  0.1041 -0.0753
   36MOL    H48 2918   2.242   7.012   2.119  1.8682  2.0459  0.5443
   36MOL    H49 2919   2.393   7.024   2.045 -1.0140  2.6723  2.5015
   36MOL    C50 2920   2.313   6.875   2.318  0.3271  0.4096 -0.4851
   36MOL    O51 2921   2.211   6.969   2.348  0.7217  0.4804 -0.0499
   36MOL    H52 2922   2.368   6.860   2.410  1.4921 -1.7289 -1.5070
   36MOL    H53 2923   2.272   6.779   2.285  0.3421  0.3331 -0.2818
   36MOL    C54 2924   2.249   7.094   2.397 -0.5442  0.5626 -0.1404
   36MOL    O55 2925   2.310   7.086   2.524  0.7451  0.2537  0.1394
   36MOL    H56 2926   2.166   7.165   2.398 -1.0646  0.0220 -2.3751
   36MOL    H57 2927   2.312   7.145   2.325 -0.8441  1.3131  0.1220
   36MOL    C58 2928   2.220   7.059   2.624 -0.0074  0.0864 -0.6564
   36MOL    O59 2929   2.190   6.922   2.637  0.4421 -0.5643  0.3410
   36MOL    H60 2930   2.129   7.116   2.606  1.8135  2.5450 -2.3362
   36MOL    H61 2931   2.270   7.083   2.718  0.6369  0.4045 -1.0734
   36MOL    C62 2932   2.294   6.846   2.688  0.5795 -0.5782  0.1597
   36MOL    O63 2933   2.319   6.873   2.831 -0.6823  0.3364 -0.0846
   36MOL    H64 2934   2.381   6.873   2.629  0.8459  0.9781  1.2353
   36MOL    H65 2935   2.268   6.741   2.672  1.0811 -0.4638 -1.4540
   36MOL    C66 2936   2.211   6.850   2.915  0.2906  0.0016  0.0799
   36MOL    O67 2937   2.170   6.718   2.914  0.3433 -0.3345  0.1038
   36MOL    H68 2938   2.121   6.895   2.873  0.1900 -1.0146 -0.8091
   36MOL    H69 2939   2.228   6.887   3.016  3.5726  2.5271 -1.3190
   36MOL    C70 2940   2.263   6.642   2.986 -0.5851 -0.8115 -0.1421
   36MOL    O71 2941   2.236   6.504   2.960  0.5305 -0.6893 -0.1341
   36MOL    H72 2942   2.254   6.661   3.093 -0.5663  0.8861 -0.4324
   36MOL    H73 2943   2.368   6.657   2.962 -0.6090 -0.8347 -0.2595
   36MOL    C74 2944   2.269   6.476   2.829 -0.0713 -0.4727  0.5836
   36MOL    O75 2945   2.247   6.340   2.803  0.1602  0.0399 -0.1037
   36MOL    H76 2946   2.369   6.495   2.789  0.4421 -1.3250  1.4453
   36MOL    H77 2947   2.193   6.527   2.768 -1.9140 -0.6614  2.6765
   36MOL    C78 2948   2.327   6.259   2.891 -0.3557  0.8997  0.2510
   36MOL    O79 2949   2.344   6.129   2.835 -0.2366 -1.0067 -0.4476
   36MOL    H80 2950   2.278   6.246   2.988 -0.6024  1.2554  0.1758
   36MOL    H81 2951   2.422   6.309   2.911  0.2424  0.0802 -0.5327
   36MOL    H82 2952   2.261   6.086   2.848 -0.5103 -0.1713  0.5916
   37MOL     C1 2953   4.425   0.218   3.464  0.1682  0.0263 -0.1062
   37MOL     O2 2954   4.425   0.361   3.481 -0.6752 -0.5047 -0.2871
   37MOL     H3 2955   4.333   0.178   3.507 -0.1555  1.4645  0.5749
   37MOL     H4 2956   4.422   0.186   3.360 -1.4889  2.3815 -0.8534
   37MOL     H5 2957   4.511   0.171   3.511  0.8036  1.9669  0.7199
   37MOL     C6 2958   4.521   0.424   3.389  1.0475  0.7280 -0.3218
   37MOL     O7 2959   4.629   0.467   3.466 -0.2455  0.8324 -0.6269
   37MOL     H8 2960   4.466   0.496   3.329 -0.2563  1.7734  2.0688
   37MOL     H9 2961   4.567   0.358   3.315 -0.5523  1.1410 -1.6996
   37MOL    C10 2962   4.584   0.585   3.532  0.0964  0.5369 -0.2135
   37MOL    O11 2963   4.607   0.699   3.456  0.3502 -0.1051 -0.2062
   37MOL    H12 2964   4.641   0.598   3.624  0.3309  0.5594 -0.3618
   37MOL    H13 2965   4.480   0.586   3.563  0.6429  0.0650  1.6760
   37MOL    C14 2966   4.736   0.726   3.420 -0.0936 -0.4583 -0.0582
   37MOL    O15 2967   4.796   0.794   3.524  0.9499  0.5530 -0.1024
   37MOL    H16 2968   4.735   0.792   3.334  2.7351  2.4252  2.0278
   37MOL    H17 2969   4.799   0.638   3.403  1.3036  0.2866  1.1554
   37MOL    C18 2970   4.777   0.935   3.521 -1.3252 -0.0966 -0.1818
   37MOL    O19 2971   4.842   0.990   3.406 -0.2104 -0.3520  0.3588
   37MOL    H20 2972   4.826   0.961   3.614 -1.7178  3.7539 -0.9514
   37MOL    H21 2973   4.676   0.975   3.533 -1.1811  0.0909  0.4177
   37MOL    C22 2974   4.905   1.112   3.434 -0.3096  0.1923 -0.6414
   37MOL    O23 2975   4.812   1.202   3.477 -0.0709 -0.9749 -0.5163
   37MOL    H24 2976   4.960   1.145   3.345 -0.8673  0.3922 -0.9121
   37MOL    H25 2977   4.973   1.072   3.509 -2.7141  0.6840  1.8653
   37MOL    C26 2978   4.726   1.250   3.381  0.0216 -0.8055 -0.9201
   37MOL    O27 2979   4.665   1.356   3.440 -0.0022 -0.2018 -0.1583
   37MOL    H28 2980   4.655   1.177   3.341 -0.3805 -0.0189 -1.6323
   37MOL    H29 2981   4.785   1.285   3.297 -0.4285  0.3138 -0.7698
   37MOL    C30 2982   4.590   1.438   3.358 -0.4861  0.5575  0.0352
   37MOL    O31 2983   4.672   1.508   3.267 -0.4944 -0.2506 -0.3312
   37MOL    H32 2984   4.530   1.512   3.410 -1.2601  1.3010 -1.8598
   37MOL    H33 2985   4.519   1.377   3.302  0.3799  1.0678 -1.6394
   37MOL    C34 2986   4.733   1.614   3.330 -0.0695 -0.6704  0.4250
   37MOL    O35 2987   4.861   1.633   3.278  0.4094  0.3921 -0.3579
   37MOL    H36 2988   4.747   1.605   3.437 -1.0729  0.6984  0.6806
   37MOL    H37 2989   4.678   1.705   3.306 -0.5048 -0.7004  1.3094
   37MOL    C38 2990   4.867   1.706   3.157 -0.1920 -0.5897  0.1565
   37MOL    O39 2991   4.856   1.842   3.171 -0.0457 -0.3292 -0.0576
   37MOL    H40 2992   4.784   1.675   3.093 -0.1098  2.5199 -1.5661
   37MOL    H41 2993   4.959   1.684   3.102  0.5634  1.4225  0.5651
   37MOL    C42 2994   4.982   1.893   3.210  0.6615 -0.1443  0.3522
   37MOL    O43 2995   5.054   1.916   3.097 -0.3262 -0.4848  0.7181
   37MOL    H44 2996   5.035   1.827   3.278 -1.3986 -1.9728  0.2315
   37MOL    H45 2997   4.967   1.994   3.248 -1.2016  0.6204 -2.2575
   37MOL    C46 2998   5.019   2.030   3.014  0.1077 -0.1294 -0.2460
   37MOL    O47 2999   5.128   2.115   2.996 -0.4023  0.1619 -0.1057
   37MOL    H48 3000   4.925   2.072   3.049 -0.8291 -0.8967 -1.8109
   37MOL    H49 3001   4.989   1.993   2.917  0.7179  0.0046 -0.4881
   37MOL    C50 3002   5.134   2.209   3.099  0.1601  0.9038 -0.1533
   37MOL    O51 3003   5.029   2.306   3.093  0.8856 -0.6345  0.3935
   37MOL    H52 3004   5.225   2.268   3.085 -1.0088  2.7457 -0.0676
   37MOL    H53 3005   5.143   2.153   3.193 -2.6697  1.7471  0.6545
   37MOL    C54 3006   5.052   2.396   2.988  0.4664  0.1115  0.3805
   37MOL    O55 3007   5.156   2.490   3.005 -0.3490  0.2981 -0.5683
   37MOL    H56 3008   4.961   2.453   2.968 -0.7929 -2.5395 -1.7225
   37MOL    H57 3009   5.056   2.335   2.898 -1.9696  2.6719 -1.5550
   37MOL    C58 3010   5.257   2.480   2.910  0.2969  0.1052 -0.4497
   37MOL    O59 3011   5.312   2.609   2.881  0.0300 -0.0566 -0.8281
   37MOL    H60 3012   5.230   2.452   2.808 -0.5982 -2.2769  0.4048
   37MOL    H61 3013   5.330   2.409   2.950 -0.5046 -1.4733 -1.7289
   37MOL    C62 3014   5.373   2.675   2.987 -0.8764 -0.4373 -1.0845
   37MOL    O63 3015   5.506   2.624   3.002 -0.8603 -0.1308 -0.0993
   37MOL    H64 3016   5.325   2.659   3.084  0.8066  0.5174 -0.0707
   37MOL    H65 3017   5.374   2.783   2.971 -1.6868 -0.5877 -2.2113
   37MOL    C66 3018   5.592   2.678   2.907  0.8116 -0.5290 -0.2334
   37MOL    O67 3019   5.711   2.612   2.909 -0.0540  0.2023 -0.5034
   37MOL    H68 3020   5.602   2.785   2.923 -1.5378 -0.5092  1.3201
   37MOL    H69 3021   5.545   2.668   2.809 -0.4968  1.2129  0.1883
   37MOL    C70 3022   5.771   2.626   3.032 -0.1592  0.3333 -0.3290
   37MOL    O71 3023   5.839   2.745   3.047  0.0782  0.2463  0.2491
   37MOL    H72 3024   5.846   2.546   3.035  1.6463  2.0093  0.8628
   37MOL    H73 3025   5.707   2.594   3.114 -0.9650  0.7729 -0.7910
   37MOL    C74 3026   5.939   2.744   2.953  0.0945 -0.4377  0.6649
   37MOL    O75 3027   6.046   2.660   2.995  0.0379  0.0885  0.6422
   37MOL    H76 3028   5.971   2.848   2.952 -0.0500 -0.3950 -1.1993
   37MOL    H77 3029   5.919   2.708   2.852  0.0202 -1.7117  1.1215
   37MOL    C78 3030   6.113   2.700   3.108  0.6991 -0.6605 -0.0975
   37MOL    O79 3031   6.218   2.619   3.126 -0.7082  0.1724 -0.1811
   37MOL    H80 3032   6.048   2.695   3.196  2.3067 -0.5575  1.1244
   37MOL    H81 3033   6.157   2.799   3.101  3.3249 -1.7639  0.0973
   37MOL    H82 3034   6.244   2.588   3.041 -0.3667  0.9960 -0.3779
   38MOL     C1 3035   4.285   1.577   6.944  0.3259 -0.4575  0.1947
   38MOL     O2 3036   4.223   1.689   6.885  0.4354  0.1306  0.0435
   38MOL     H3 3037   4.358   1.539   6.873  0.7988  1.0323 -0.1535
   38MOL     H4 3038   4.327   1.597   7.043 -0.5968  0.9515  0.3195
   38MOL     H5 3039   4.212   1.498   6.959  1.3832 -1.4428  0.2521
   38MOL     C6 3040   4.312   1.799   6.886  0.4221 -0.8964  1.0128
   38MOL     O7 3041   4.263   1.914   6.812 -0.4171  0.1755 -0.2022
   38MOL     H8 3042   4.411   1.782   6.844  0.1888 -1.9941  0.8996
   38MOL     H9 3043   4.323   1.831   6.990 -1.3693 -0.1089  0.9754
   38MOL    C10 3044   4.133   1.949   6.855  0.2578 -0.4194  0.2976
   38MOL    O11 3045   4.131   2.086   6.862  0.4413 -0.2832 -0.6619
   38MOL    H12 3046   4.108   1.911   6.954 -1.2686  0.6899  0.3547
   38MOL    H13 3047   4.058   1.894   6.798 -1.4655 -0.4881  2.5703
   38MOL    C14 3048   4.113   2.149   6.733 -1.0293  0.7354  0.3202
   38MOL    O15 3049   3.989   2.122   6.680 -0.3428 -0.3257 -0.1106
   38MOL    H16 3050   4.183   2.132   6.651 -3.4325  0.4256 -1.7253
   38MOL    H17 3051   4.123   2.254   6.760  3.8317  0.3813  0.3277
   38MOL    C18 3052   3.963   2.186   6.559  0.3451 -0.4231 -0.5892
   38MOL    O19 3053   3.903   2.308   6.583 -0.3395 -0.4698 -0.1450
   38MOL    H20 3054   3.883   2.127   6.513 -0.5235 -0.5608  1.0439
   38MOL    H21 3055   4.048   2.184   6.491  0.9642 -1.7327  0.1924
   38MOL    C22 3056   3.774   2.297   6.629 -0.1478  0.5120 -0.3786
   38MOL    O23 3057   3.678   2.323   6.528 -0.5113 -0.1355 -0.2883
   38MOL    H24 3058   3.757   2.371   6.706 -0.5440  1.1945 -1.1123
   38MOL    H25 3059   3.745   2.202   6.673 -1.8287  0.6822 -1.0795
   38MOL    C26 3060   3.679   2.460   6.493 -0.7587  0.4601 -0.6965
   38MOL    O27 3061   3.593   2.523   6.580  0.1064  0.6196 -0.4407
   38MOL    H28 3062   3.630   2.469   6.396 -0.7234  1.2749 -0.6412
   38MOL    H29 3063   3.775   2.511   6.496 -1.6158  2.1848 -1.6559
   38MOL    C30 3064   3.556   2.654   6.534 -0.2965  0.0374  0.3128
   38MOL    O31 3065   3.454   2.636   6.443  0.5008  0.1412  0.6613
   38MOL    H32 3066   3.637   2.696   6.476 -0.7191  0.8715  0.3077
   38MOL    H33 3067   3.534   2.719   6.619 -1.6565 -0.7087  0.5573
   38MOL    C34 3068   3.326   2.632   6.497  0.0497 -0.4209 -0.6844
   38MOL    O35 3069   3.275   2.765   6.524 -0.9829 -0.1109 -0.3976
   38MOL    H36 3070   3.326   2.567   6.584 -2.4241  2.2157  1.4169
   38MOL    H37 3071   3.266   2.569   6.431 -0.3320 -0.3046 -0.4542
   38MOL    C38 3072   3.223   2.773   6.653  0.2757 -0.1057 -0.2003
   38MOL    O39 3073   3.316   2.789   6.757 -0.6010 -0.3904 -0.3318
   38MOL    H40 3074   3.160   2.688   6.680  1.4251 -1.8009 -2.6726
   38MOL    H41 3075   3.169   2.868   6.652  0.9574  0.2829 -2.3940
   38MOL    C42 3076   3.265   2.839   6.879  0.0622 -0.3004  0.0900
   38MOL    O43 3077   3.147   2.766   6.916 -0.7571 -0.4099  0.3812
   38MOL    H44 3078   3.239   2.944   6.869  2.6258  0.2646 -1.1629
   38MOL    H45 3079   3.341   2.835   6.957 -0.8455 -0.9182  0.9521
   38MOL    C46 3080   3.110   2.808   7.046  0.5253 -0.1434 -0.0666
   38MOL    O47 3081   3.220   2.792   7.136 -0.0166  0.5712  0.2327
   38MOL    H48 3082   3.020   2.760   7.084 -0.8660  1.3202 -1.4758
   38MOL    H49 3083   3.086   2.913   7.030 -3.0860 -0.8935 -0.0292
   38MOL    C50 3084   3.244   2.664   7.172  0.2560 -0.0241 -0.0454
   38MOL    O51 3085   3.173   2.632   7.289  0.1006  0.9815 -0.6248
   38MOL    H52 3086   3.353   2.665   7.178  0.3414  0.0163 -1.4792
   38MOL    H53 3087   3.215   2.594   7.094  1.2576 -0.7092  0.1903
   38MOL    C54 3088   3.224   2.696   7.403  0.3005  0.1281  0.8790
   38MOL    O55 3089   3.348   2.652   7.435 -0.0178 -0.7718 -0.0398
   38MOL    H56 3090   3.153   2.683   7.484 -0.4443  1.9017  0.5529
   38MOL    H57 3091   3.228   2.804   7.385  0.2185 -0.2043 -1.2719
   38MOL    C58 3092   3.354   2.518   7.492  0.0278  0.5849 -0.4017
   38MOL    O59 3093   3.327   2.523   7.624  0.1124 -0.2703 -0.3915
   38MOL    H60 3094   3.454   2.477   7.479  0.7118  1.5389  1.6198
   38MOL    H61 3095   3.281   2.451   7.445 -2.0694  1.6843  1.2053
   38MOL    C62 3096   3.341   2.401   7.689  0.6692  0.8318 -0.0565
   38MOL    O63 3097   3.480   2.373   7.703  0.4344 -0.1475  0.2231
   38MOL    H64 3098   3.288   2.319   7.639 -1.5405  0.6234  2.4510
   38MOL    H65 3099   3.287   2.416   7.783  1.3222  2.0561  0.1215
   38MOL    C66 3100   3.491   2.246   7.772  0.2313 -0.4447  0.0580
   38MOL    O67 3101   3.437   2.136   7.703 -0.2565  0.0330  0.0294
   38MOL    H68 3102   3.447   2.252   0.088 -0.8727 -2.3160 -0.2803
   38MOL    H69 3103   3.599   2.235   0.001  0.2118 -0.3787  0.2860
   38MOL    C70 3104   3.527   2.095   7.603  0.2667 -0.6387  0.5826
   38MOL    O71 3105   3.478   1.980   7.538 -0.4755  0.0461  0.1621
   38MOL    H72 3106   3.621   2.073   7.654  1.7447  2.3431 -0.7360
   38MOL    H73 3107   3.554   2.178   7.538  2.2953 -0.0071  2.1666
   38MOL    C74 3108   3.539   1.950   7.417  0.6408 -0.4052 -0.6303
   38MOL    O75 3109   3.551   2.054   7.330  0.5752  0.2339  0.3131
   38MOL    H76 3110   3.486   1.862   7.382 -2.1595  1.6548 -1.7234
   38MOL    H77 3111   3.639   1.924   7.454  0.2773 -0.6057  0.2359
   38MOL    C78 3112   3.422   2.117   7.302 -0.3616  0.2987  0.0686
   38MOL    O79 3113   3.435   2.213   7.202 -0.2648  0.1793 -0.2241
   38MOL    H80 3114   3.384   2.162   7.394 -1.6318 -1.3118  0.3626
   38MOL    H81 3115   3.342   2.049   7.274 -1.2156  0.9091  1.0144
   38MOL    H82 3116   3.411   2.173   7.120  0.4281  1.0534 -0.8683
   39MOL     C1 3117   1.655   3.982   3.547  0.2608 -0.1577  0.8061
   39MOL     O2 3118   1.617   3.847   3.573 -0.4607 -0.1065  0.5913
   39MOL     H3 3119   1.654   4.031   3.645  0.3374 -0.6317  1.0431
   39MOL     H4 3120   1.749   3.997   3.494  0.3412 -0.4100  0.8779
   39MOL     H5 3121   1.577   4.033   3.490  0.0480  1.1397  2.2304
   39MOL     C6 3122   1.630   3.773   3.450 -0.2097 -0.6450 -0.5145
   39MOL     O7 3123   1.758   3.741   3.418 -0.1153  0.1432  0.1788
   39MOL     H8 3124   1.579   3.828   3.370 -1.2513 -2.3249 -1.0199
   39MOL     H9 3125   1.573   3.680   3.453  0.1535 -0.9005 -1.4302
   39MOL    C10 3126   1.823   3.653   3.507  0.2265  0.0688 -0.3452
   39MOL    O11 3127   1.761   3.528   3.526  0.4331  0.4355 -0.6722
   39MOL    H12 3128   1.853   3.700   3.601  2.0435 -1.6107 -0.0672
   39MOL    H13 3129   1.921   3.646   3.461 -0.2316 -1.3521 -1.1306
   39MOL    C14 3130   1.744   3.454   3.410  0.3250  0.4364  0.3404
   39MOL    O15 3131   1.856   3.444   3.329 -0.0245  0.0746  0.3006
   39MOL    H16 3132   1.664   3.498   3.350 -0.6431 -0.3073  1.0604
   39MOL    H17 3133   1.705   3.355   3.433  0.9360  0.1313  0.0886
   39MOL    C18 3134   1.940   3.338   3.367 -0.2474 -0.2061 -0.1031
   39MOL    O19 3135   2.052   3.314   3.290 -0.0455  0.0959 -0.7981
   39MOL    H20 3136   1.883   3.245   3.367  0.9106 -0.9155 -0.0053
   39MOL    H21 3137   1.973   3.351   3.470  1.4591  0.9072 -0.7658
   39MOL    C22 3138   2.154   3.400   3.313 -0.3490 -0.5765  0.5449
   39MOL    O23 3139   2.242   3.352   3.406  0.5100  0.6601  0.1672
   39MOL    H24 3140   2.123   3.499   3.346 -0.2391 -0.2870 -0.2152
   39MOL    H25 3141   2.202   3.405   3.215  2.1964 -0.4702  1.7685
   39MOL    C26 3142   2.305   3.235   3.369 -0.1104  0.0043 -0.1785
   39MOL    O27 3143   2.366   3.168   3.479  0.3561 -0.0879 -0.1185
   39MOL    H28 3144   2.381   3.279   3.304 -0.4544 -0.1307 -0.6737
   39MOL    H29 3145   2.239   3.167   3.316 -0.4221 -0.8632  1.2903
   39MOL    C30 3146   2.473   3.233   3.537 -0.4052 -0.4199 -0.1723
   39MOL    O31 3147   2.588   3.225   3.461  0.6407 -0.4542  0.3166
   39MOL    H32 3148   2.489   3.198   3.639 -0.5824 -0.0842 -0.0315
   39MOL    H33 3149   2.448   3.339   3.545  0.8588 -0.0294 -1.1933
   39MOL    C34 3150   2.631   3.097   3.449  0.0717  0.5108  0.0603
   39MOL    O35 3151   2.691   3.051   3.560 -0.5367 -0.7899 -0.3661
   39MOL    H36 3152   2.695   3.084   3.362 -1.3085 -0.3752 -0.8335
   39MOL    H37 3153   2.550   3.031   3.420 -1.0562  1.9204 -0.0273
   39MOL    C38 3154   2.828   3.062   3.552 -0.5826  0.5347 -0.0077
   39MOL    O39 3155   2.883   2.962   3.468 -0.1573 -0.2107  0.0225
   39MOL    H40 3156   2.866   3.065   3.655 -1.7283  2.7663  0.3957
   39MOL    H41 3157   2.844   3.163   3.516  0.6030 -0.1421 -1.3973
   39MOL    C42 3158   2.866   2.828   3.516  0.3422  0.1065  0.0292
   39MOL    O43 3159   2.922   2.736   3.441 -0.1805  0.2109  0.5560
   39MOL    H44 3160   2.757   2.820   3.520  0.3682  0.1112  0.7310
   39MOL    H45 3161   2.899   2.815   3.619 -0.4329 -2.4765 -0.0150
   39MOL    C46 3162   3.053   2.710   3.479  0.5210  0.3886  0.5374
   39MOL    O47 3163   3.064   2.620   3.579 -0.4401 -0.4542  0.1412
   39MOL    H48 3164   3.097   2.807   3.499 -2.4809  1.8636  0.2392
   39MOL    H49 3165   3.101   2.669   3.390 -0.8967  1.6131 -0.8050
   39MOL    C50 3166   3.010   2.502   3.543  0.4180 -0.0836 -0.6304
   39MOL    O51 3167   3.090   2.432   3.450  0.4142 -0.3815  0.5904
   39MOL    H52 3168   2.915   2.518   3.492  0.5993 -0.2070 -1.0087
   39MOL    H53 3169   2.980   2.438   3.626  0.8915  0.2051 -0.2336
   39MOL    C54 3170   3.212   2.383   3.504 -0.3019 -0.5296  0.6478
   39MOL    O55 3171   3.191   2.293   3.602  0.4628 -0.3729  0.3849
   39MOL    H56 3172   3.260   2.471   3.545 -2.0612 -0.6493  3.0836
   39MOL    H57 3173   3.266   2.336   3.422 -0.2013 -0.0458  0.4371
   39MOL    C58 3174   3.127   2.177   3.554 -0.6387 -0.2464  0.4703
   39MOL    O59 3175   3.199   2.117   3.454  0.0379  0.0711  0.0018
   39MOL    H60 3176   3.030   2.198   3.510 -0.2090  1.1605  0.1403
   39MOL    H61 3177   3.115   2.098   3.628 -1.2416 -1.2351 -0.6887
   39MOL    C62 3178   3.324   2.066   3.507 -0.1156  0.3168  0.1658
   39MOL    O63 3179   3.314   1.925   3.510 -0.2424  0.2557  0.2646
   39MOL    H64 3180   3.355   2.112   3.601 -3.4103 -0.8703  1.9041
   39MOL    H65 3181   3.400   2.090   3.433  1.4651 -0.2676  1.5859
   39MOL    C66 3182   3.335   1.869   3.382  0.2256  0.1322  0.4849
   39MOL    O67 3183   3.466   1.875   3.337  0.4319 -0.3762  0.2310
   39MOL    H68 3184   3.271   1.928   3.316 -0.2013 -0.3995  0.4195
   39MOL    H69 3185   3.308   1.764   3.374  1.3630 -0.0775 -1.0227
   39MOL    C70 3186   3.556   1.791   3.417 -0.5053 -0.3454 -0.4860
   39MOL    O71 3187   3.680   1.772   3.352  0.4665 -0.5515 -0.3710
   39MOL    H72 3188   3.510   1.694   3.432 -3.2561  0.7567 -1.3190
   39MOL    H73 3189   3.558   1.844   3.512 -2.4435 -1.0107 -0.0657
   39MOL    C74 3190   3.778   1.770   3.443 -0.0004 -0.2131 -0.1859
   39MOL    O75 3191   3.892   1.779   3.377 -0.0478  0.1732  0.6115
   39MOL    H76 3192   3.777   1.667   3.479 -3.1140  0.0421  0.6094
   39MOL    H77 3193   3.763   1.839   3.526  2.6509  1.3777 -0.9613
   39MOL    C78 3194   3.914   1.914   3.339 -0.2578 -0.0578 -0.1673
   39MOL    O79 3195   4.029   1.916   3.255  0.4469 -0.2083  0.1886
   39MOL    H80 3196   3.939   1.967   3.431 -0.2830 -2.1632  1.0871
   39MOL    H81 3197   3.838   1.967   3.281  0.9151  0.0642 -1.6128
   39MOL    H82 3198   4.010   1.861   3.181  0.8647  0.3004 -0.2998
   40MOL     C1 3199   7.304   2.088   3.575 -0.5790  0.1177 -0.4180
   40MOL     O2 3200   7.339   1.992   3.675 -0.0379  0.4248 -0.1857
   40MOL     H3 3201   7.389   2.154   3.556  1.0570 -2.2562 -1.6993
   40MOL     H4 3202   7.262   2.044   3.484 -1.2009  0.3991 -0.2664
   40MOL     H5 3203   7.226   2.151   3.616 -1.5802 -0.5336 -1.3023
   40MOL     C6 3204   7.235   1.903   3.707 -1.0469  0.1668 -0.4911
   40MOL     O7 3205   7.220   1.792   3.619  0.1092  0.1049  0.4722
   40MOL     H8 3206   7.132   1.939   3.703 -1.2096  0.2213  2.8543
   40MOL     H9 3207   7.254   1.885   3.812  0.1062  1.8463 -0.3885
   40MOL    C10 3208   7.143   1.688   3.676  0.0321 -0.2295 -0.4319
   40MOL    O11 3209   7.176   1.658   3.807  0.1407  0.3009 -0.4815
   40MOL    H12 3210   7.155   1.601   3.612  1.0251 -0.9250  0.6851
   40MOL    H13 3211   7.038   1.719   3.678  0.9162  2.9346  0.6021
   40MOL    C14 3212   7.303   1.607   3.817  0.0592  0.8606 -0.5068
   40MOL    O15 3213   7.306   1.471   3.802  0.1462 -0.1719  0.1960
   40MOL    H16 3214   7.336   1.637   3.916 -2.0907 -0.7405  0.7438
   40MOL    H17 3215   7.366   1.644   3.736 -0.5482 -0.0300 -1.4020
   40MOL    C18 3216   7.240   1.398   3.906 -0.4101  0.0938 -0.1693
   40MOL    O19 3217   7.333   1.378   4.011 -0.0978 -0.0885  0.3065
   40MOL    H20 3218   7.203   1.302   3.872 -0.7073 -0.1389  0.8060
   40MOL    H21 3219   7.147   1.444   3.940 -0.9026 -0.7147 -0.4119
   40MOL    C22 3220   7.427   1.277   3.990 -0.4320  0.3984  0.3544
   40MOL    O23 3221   7.356   1.155   3.983 -0.2000  0.5148  0.1353
   40MOL    H24 3222   7.497   1.283   4.073 -0.2437 -2.3656  0.4392
   40MOL    H25 3223   7.492   1.289   3.903  0.4119  0.2437  0.9617
   40MOL    C26 3224   7.322   1.111   4.111  0.3049  0.2945  0.1589
   40MOL    O27 3225   7.430   1.074   4.186  0.3394 -0.4951  0.1312
   40MOL    H28 3226   7.263   1.019   4.104  1.6593 -0.6895  1.5056
   40MOL    H29 3227   7.263   1.184   4.166 -0.1602  0.4522 -0.5423
   40MOL    C30 3228   7.518   0.986   4.136 -0.5035  0.0817 -0.4592
   40MOL    O31 3229   7.599   0.936   4.240  0.3272  0.5606 -0.2235
   40MOL    H32 3230   7.572   1.030   4.052  0.4067 -0.1137  0.0245
   40MOL    H33 3231   7.465   0.902   4.092  4.3545 -2.9403 -0.9078
   40MOL    C34 3232   7.713   0.878   4.185  0.1440 -0.1727 -1.1162
   40MOL    O35 3233   0.027   0.976   4.163  0.1028 -0.7367 -0.3363
   40MOL    H36 3234   7.688   0.841   4.086 -0.5556  0.2912 -1.1119
   40MOL    H37 3235   7.755   0.804   4.253 -0.1622  0.9752  0.3408
   40MOL    C38 3236   0.093   1.019   4.281  0.1676  0.3204  0.4133
   40MOL    O39 3237   0.190   0.924   4.327  0.4616  0.0850  0.0083
   40MOL    H40 3238   0.010   1.050   4.345 -1.5591 -0.9185 -1.1821
   40MOL    H41 3239   0.147   1.113   4.265 -1.2309  1.3829  1.7414
   40MOL    C42 3240   0.291   0.913   4.231 -0.4034  0.5432  0.0063
   40MOL    O43 3241   0.413   0.950   4.285  0.0165 -0.2258  0.0749
   40MOL    H44 3242   0.272   0.973   4.142 -1.3320  2.3663  1.4000
   40MOL    H45 3243   0.306   0.817   4.182 -0.7977  1.5351 -2.1291
   40MOL    C46 3244   0.417   1.084   4.336 -0.6082  1.0780  0.1320
   40MOL    O47 3245   0.407   1.181   4.233  0.0210  0.6181 -0.2994
   40MOL    H48 3246   0.518   1.092   4.374  0.1455  0.9657 -1.7910
   40MOL    H49 3247   0.342   1.103   4.413 -2.9884  0.5552 -1.9886
   40MOL    C50 3248   0.532   1.189   4.155 -0.0917 -0.3338  0.0320
   40MOL    O51 3249   0.632   1.251   4.233  0.3116  0.0431  0.1153
   40MOL    H52 3250   0.522   1.244   4.061  2.0354 -0.1536 -0.1073
   40MOL    H53 3251   0.567   1.087   4.144  1.1168  0.0015  0.6243
   40MOL    C54 3252   0.612   1.389   4.254  0.4222  0.1361  0.4707
   40MOL    O55 3253   0.665   1.428   4.377 -0.0657 -0.8584  0.4628
   40MOL    H56 3254   0.506   1.411   4.246 -0.0679 -1.2529  2.6237
   40MOL    H57 3255   0.661   1.431   4.166  0.0508 -1.2089 -0.3962
   40MOL    C58 3256   0.806   1.423   4.389  0.5623 -0.1308 -0.2975
   40MOL    O59 3257   0.861   1.541   4.339 -0.0244 -0.4452  0.3992
   40MOL    H60 3258   0.842   1.333   4.339  0.0106 -1.4782  1.6489
   40MOL    H61 3259   0.835   1.406   4.492  2.0193 -2.0934 -1.0136
   40MOL    C62 3260   0.846   1.656   4.417 -0.2623 -0.7086 -0.2393
   40MOL    O63 3261   0.895   1.644   4.545  0.1658 -0.0380 -0.2903
   40MOL    H64 3262   0.746   1.699   4.419 -0.9595 -2.2501 -0.8999
   40MOL    H65 3263   0.914   1.716   4.356 -0.8985 -1.0120 -1.2598
   40MOL    C66 3264   1.002   1.734   4.579  0.1656  0.7448  0.0565
   40MOL    O67 3265   0.987   1.868   4.545 -0.1895  0.8226 -0.3114
   40MOL    H68 3266   1.093   1.692   4.537  0.7302  1.7443  0.2779
   40MOL    H69 3267   1.012   1.722   4.687 -0.9324  0.0256  0.0870
   40MOL    C70 3268   0.876   1.933   4.607 -1.1204 -0.2747  0.0915
   40MOL    O71 3269   0.919   2.062   4.644  0.0009  0.0086 -0.7389
   40MOL    H72 3270   0.856   1.891   4.705 -1.4002 -2.0365 -0.7097
   40MOL    H73 3271   0.788   1.930   4.542  0.2514  0.7201 -1.8716
   40MOL    C74 3272   0.999   2.056   4.758  0.2048  0.1244 -0.0016
   40MOL    O75 3273   0.921   2.054   4.870 -0.3677  0.3038  0.2736
   40MOL    H76 3274   1.066   2.142   4.751 -1.9147  1.9135  1.1478
   40MOL    H77 3275   1.063   1.968   4.769 -0.0945 -0.3779 -2.0346
   40MOL    C78 3276   0.898   2.184   4.916 -0.6241  0.0401  0.2252
   40MOL    O79 3277   0.809   2.179   5.020 -0.0708  0.5028 -0.1754
   40MOL    H80 3278   0.844   2.236   4.837 -1.5536 -0.5848  0.4487
   40MOL    H81 3279   0.987   2.235   4.954 -0.4136 -0.6615  0.6808
   40MOL    H82 3280   0.857   2.147   5.095 -3.6973  0.6828  2.3624
   41MOL     C1 3281   4.043   1.455   0.712  0.3584 -0.3023 -0.0942
   41MOL     O2 3282   4.020   1.569   0.795 -0.2592  0.0366 -0.7630
   41MOL     H3 3283   4.146   1.435   0.683  0.4447 -0.2238  0.1544
   41MOL     H4 3284   4.008   1.361   0.754  0.5111  0.3340  1.5061
   41MOL     H5 3285   3.989   1.472   0.619  1.4000  0.2886 -0.6075
   41MOL     C6 3286   4.109   1.575   0.900  0.5353  0.2114  0.1883
   41MOL     O7 3287   4.092   1.459   0.973  0.0187  0.1240 -0.2711
   41MOL     H8 3288   4.088   1.663   0.960  0.9357  0.3545  0.1149
   41MOL     H9 3289   4.211   1.572   0.861  1.4882 -2.0195  2.7132
   41MOL    C10 3290   3.975   1.459   1.051  0.0449  0.0237 -0.0935
   41MOL    O11 3291   3.969   1.332   1.114 -0.5339  0.4337 -0.3401
   41MOL    H12 3292   3.881   1.484   1.002 -0.2038 -3.3096 -1.4196
   41MOL    H13 3293   4.000   1.535   1.125  0.6695 -2.2023  2.0241
   41MOL    C14 3294   3.900   1.242   1.037 -0.4716 -0.1368 -0.6561
   41MOL    O15 3295   3.762   1.264   1.034 -0.4084  0.2954 -0.1727
   41MOL    H16 3296   3.928   1.151   1.091  1.7549  0.6065 -0.4773
   41MOL    H17 3297   3.943   1.227   0.938 -2.3005 -3.0326 -1.0707
   41MOL    C18 3298   3.709   1.255   1.161 -0.5089  1.1031  0.2537
   41MOL    O19 3299   3.729   1.122   1.216 -0.0311  0.1840  0.5611
   41MOL    H20 3300   3.602   1.274   1.155 -0.9636 -1.8489 -2.3205
   41MOL    H21 3301   3.755   1.326   1.229 -2.3291  1.2146  1.4065
   41MOL    C22 3302   3.635   1.097   1.317 -0.6259  0.6879  0.0016
   41MOL    O23 3303   3.513   1.069   1.265  0.0647  0.1823  0.1402
   41MOL    H24 3304   3.640   1.184   1.383 -0.4557  0.3427  0.4453
   41MOL    H25 3305   3.665   1.014   1.381  0.6649  0.4239 -0.9304
   41MOL    C26 3306   3.491   0.933   1.227 -0.0710 -0.8282 -0.1180
   41MOL    O27 3307   3.452   0.854   1.330  0.1778  0.0065  0.8158
   41MOL    H28 3308   3.579   0.886   1.183  0.9597  0.1292  0.9064
   41MOL    H29 3309   3.420   0.926   1.144  0.6853  2.5148 -1.1218
   41MOL    C30 3310   3.331   0.889   1.383  0.3269  0.0787  0.0436
   41MOL    O31 3311   3.235   0.884   1.296  0.2707  0.2544  0.0808
   41MOL    H32 3312   3.333   0.991   1.420 -2.2885  0.0118  0.4496
   41MOL    H33 3313   3.308   0.828   1.470 -1.6142  2.8667  1.5483
   41MOL    C34 3314   3.175   0.761   1.291 -0.2489 -0.4641  0.1000
   41MOL    O35 3315   3.099   0.739   1.412  0.0954  0.9522 -0.1263
   41MOL    H36 3316   3.245   0.677   1.291  0.8977  0.4743  1.5818
   41MOL    H37 3317   3.102   0.761   1.211 -3.2107 -2.4739  2.6869
   41MOL    C38 3318   2.995   0.835   1.426 -0.0635 -0.6890 -0.6257
   41MOL    O39 3319   2.890   0.806   1.342 -0.1263 -0.4837  0.2213
   41MOL    H40 3320   3.032   0.931   1.390 -0.6852  0.5968  2.0049
   41MOL    H41 3321   2.960   0.838   1.530  2.3923  0.3908  0.2018
   41MOL    C42 3322   2.792   0.896   1.365  0.6257 -0.5816 -0.6132
   41MOL    O43 3323   2.696   0.836   1.440 -0.7506 -0.2494  0.1153
   41MOL    H44 3324   2.759   0.927   1.267  0.4516  2.8294  0.4771
   41MOL    H45 3325   2.833   0.984   1.414 -0.2141 -1.1131  1.0851
   41MOL    C46 3326   2.604   0.933   1.488 -0.3691  0.2143  0.0506
   41MOL    O47 3327   2.560   1.019   1.387 -0.1032  0.2317 -0.4788
   41MOL    H48 3328   2.664   0.983   1.564  1.0137 -1.6993  0.2493
   41MOL    H49 3329   2.528   0.872   1.536 -0.3022 -1.9530 -2.5508
   41MOL    C50 3330   2.473   0.954   1.299  0.5803 -0.6726 -0.0143
   41MOL    O51 3331   2.349   0.936   1.353  0.4679 -0.4626 -0.0726
   41MOL    H52 3332   2.526   0.869   1.257  2.1868  0.7031 -0.8399
   41MOL    H53 3333   2.457   1.021   1.214 -0.1606  0.2752  0.8609
   41MOL    C54 3334   2.275   0.839   1.288 -0.5224  0.3970 -0.0015
   41MOL    O55 3335   2.340   0.716   1.306 -0.0898 -0.2684  0.2280
   41MOL    H56 3336   2.260   0.863   1.183  0.8449  2.1503  0.1848
   41MOL    H57 3337   2.178   0.830   1.337  0.0792 -1.5970  0.9297
   41MOL    C58 3338   2.316   0.662   1.429 -0.7050  0.2030  0.6569
   41MOL    O59 3339   2.179   0.626   1.426 -0.4762  0.3229  0.0330
   41MOL    H60 3340   2.341   0.728   1.512  2.0818  0.0281 -0.0076
   41MOL    H61 3341   2.388   0.583   1.445 -1.9344 -0.6896  1.9094
   41MOL    C62 3342   2.165   0.502   1.370  0.0842 -0.0640 -0.3096
   41MOL    O63 3343   2.031   0.458   1.372 -0.2825  0.4572  0.2254
   41MOL    H64 3344   2.226   0.435   1.431  1.9459  0.3908 -1.6348
   41MOL    H65 3345   2.206   0.484   1.271  1.2341 -3.6611  0.7518
   41MOL    C66 3346   1.956   0.500   1.256 -0.0729  0.2417 -0.4753
   41MOL    O67 3347   2.007   0.426   1.145  0.0225 -0.0627  0.5736
   41MOL    H68 3348   1.981   0.604   1.236 -0.8380  0.2938 -1.1966
   41MOL    H69 3349   1.850   0.475   1.265  0.6587 -3.0212 -0.2574
   41MOL    C70 3350   1.933   0.310   1.111 -0.1933  0.0937 -0.2196
   41MOL    O71 3351   1.807   0.347   1.068  0.0517  0.4133  0.0212
   41MOL    H72 3352   1.928   0.245   1.198  2.8834 -0.6703 -0.5578
   41MOL    H73 3353   2.003   0.273   1.037 -1.6504  0.5043 -1.8194
   41MOL    C74 3354   1.814   0.375   0.934  0.7722 -0.3203  0.6913
   41MOL    O75 3355   1.878   0.494   0.905  0.6009 -0.6164  0.1199
   41MOL    H76 3356   1.715   0.380   0.888  1.2251 -2.3644 -0.5486
   41MOL    H77 3357   1.851   0.293   0.871 -0.7892 -0.8001  0.3709
   41MOL    C78 3358   1.803   0.605   0.950  0.2510 -0.5128  1.1367
   41MOL    O79 3359   1.877   0.727   0.941 -0.3092  0.7227 -0.1136
   41MOL    H80 3360   1.766   0.601   1.053  1.5185  2.9699  1.7831
   41MOL    H81 3361   1.720   0.619   0.880  0.9516 -0.9579  0.2056
   41MOL    H82 3362   1.874   0.755   0.851  2.6701  2.3306  0.2333
   42MOL     C1 3363   4.275   0.478   1.644  0.3551  0.2009 -0.2077
   42MOL     O2 3364   4.213   0.581   1.576 -0.0141  0.2359 -0.1425
   42MOL     H3 3365   4.250   0.472   1.750 -0.8640  1.3684 -0.4070
   42MOL     H4 3366   4.239   0.392   1.588 -0.0347  1.5451 -2.0631
   42MOL     H5 3367   4.382   0.495   1.635  0.3204  2.2683  2.3627
   42MOL     C6 3368   4.222   0.700   1.647 -0.2814  1.0090  0.0876
   42MOL     O7 3369   4.348   0.761   1.612 -0.3427  0.7274  0.1662
   42MOL     H8 3370   4.214   0.681   1.754  2.0864  3.7807  0.8099
   42MOL     H9 3371   4.147   0.771   1.612  0.4139  0.8656 -1.7389
   42MOL    C10 3372   4.346   0.845   1.502  0.3339 -0.6881 -0.2918
   42MOL    O11 3373   4.466   0.894   1.468  0.1957 -0.3095  0.4425
   42MOL    H12 3374   4.285   0.928   1.540 -1.0380 -1.4102 -0.8600
   42MOL    H13 3375   4.284   0.803   1.422 -1.1481  0.3739  0.2669
   42MOL    C14 3376   4.528   0.822   1.369 -0.0396 -0.6067  0.0891
   42MOL    O15 3377   4.616   0.906   1.298 -0.3219 -0.1401 -0.0871
   42MOL    H16 3378   4.459   0.786   1.292  0.1884  0.4518 -0.6321
   42MOL    H17 3379   4.587   0.744   1.416  0.2949 -0.4605 -0.0795
   42MOL    C18 3380   4.552   0.992   1.222  0.5245 -1.1615  0.5385
   42MOL    O19 3381   4.649   1.034   1.128  0.6036 -0.0138  0.2158
   42MOL    H20 3382   4.510   1.073   1.281  1.5564  0.0453 -0.3520
   42MOL    H21 3383   4.470   0.946   1.168  0.2215  0.7618 -0.6889
   42MOL    C22 3384   4.723   1.143   1.181 -1.1047 -0.4413 -0.0782
   42MOL    O23 3385   4.655   1.269   1.176 -0.1477  0.2532 -0.6873
   42MOL    H24 3386   4.815   1.159   1.124 -0.1829 -0.7580  1.2961
   42MOL    H25 3387   4.741   1.112   1.284  0.7937  2.0999  0.4053
   42MOL    C26 3388   4.645   1.306   1.039  0.5399 -0.0225 -0.2697
   42MOL    O27 3389   4.518   1.363   1.020  0.4984  0.1748 -0.1885
   42MOL    H28 3390   4.644   1.219   0.973  0.5028 -0.8021  0.7518
   42MOL    H29 3391   4.731   1.367   1.012 -0.9936  2.4263  0.2112
   42MOL    C30 3392   4.406   1.280   1.049 -0.0739 -0.2671  0.5608
   42MOL    O31 3393   4.389   1.192   0.945  0.1978 -0.4263 -0.2360
   42MOL    H32 3394   4.318   1.345   1.054 -0.3912 -0.5492 -1.1029
   42MOL    H33 3395   4.420   1.211   1.133 -1.6756 -2.6253 -1.0591
   42MOL    C34 3396   4.335   1.248   0.829 -0.2275  0.6109  0.1506
   42MOL    O35 3397   4.345   1.151   0.719 -0.4389  0.6039 -0.4956
   42MOL    H36 3398   4.380   1.346   0.813  1.0792  0.3336  1.9300
   42MOL    H37 3399   4.227   1.256   0.847 -0.5305 -0.5062 -1.0930
   42MOL    C38 3400   4.465   1.168   0.656  0.5135  0.2799  0.3322
   42MOL    O39 3401   4.490   1.296   0.607  0.2316 -0.1051 -0.2038
   42MOL    H40 3402   4.474   1.083   0.587 -0.6333  0.8441 -0.5263
   42MOL    H41 3403   4.546   1.157   0.728 -0.8857 -3.3364  1.4501
   42MOL    C42 3404   4.487   1.300   0.466  0.5217 -0.4659  0.1296
   42MOL    O43 3405   4.365   1.316   0.402  0.4037  0.9723  0.0915
   42MOL    H44 3406   4.503   1.201   0.423  2.7746 -0.1928  0.2754
   42MOL    H45 3407   4.558   1.375   0.433  0.1613  0.1099  0.6466
   42MOL    C46 3408   4.305   1.442   0.419 -0.7016  0.2628 -0.0272
   42MOL    O47 3409   4.325   1.537   0.320  0.4460 -0.4703  0.2768
   42MOL    H48 3410   4.333   1.494   0.511 -0.3945  0.7982 -0.4172
   42MOL    H49 3411   4.199   1.420   0.423 -1.5622  4.0137 -0.3855
   42MOL    C50 3412   4.241   1.512   0.212  0.0555 -0.2717 -0.5180
   42MOL    O51 3413   4.122   1.576   0.241 -0.0276  0.5548 -0.0140
   42MOL    H52 3414   4.215   1.408   0.195 -0.7165 -0.1129 -0.2941
   42MOL    H53 3415   4.274   1.566   0.123  2.8535 -0.6459  0.2441
   42MOL    C54 3416   4.131   1.714   0.248  0.0010  0.3815  0.1008
   42MOL    O55 3417   4.202   1.765   0.354 -0.1925 -0.0529 -0.4551
   42MOL    H56 3418   4.029   1.752   0.248 -0.6874 -1.4116  0.9101
   42MOL    H57 3419   4.179   1.752   0.158 -1.7243 -1.0967 -1.5140
   42MOL    C58 3420   4.139   1.751   0.477 -0.4586  0.4404  0.0819
   42MOL    O59 3421   4.225   1.791   0.579 -0.1116  0.2523  0.4906
   42MOL    H60 3422   4.107   1.648   0.495  0.2841  0.3631  0.9888
   42MOL    H61 3423   4.046   1.808   0.469 -0.9238 -0.7328 -3.4066
   42MOL    C62 3424   4.224   1.927   0.603 -0.1348 -0.2299  0.5283
   42MOL    O63 3425   4.100   1.975   0.655  0.1829 -0.0842 -0.1914
   42MOL    H64 3426   4.250   1.974   0.508 -2.0385 -0.5989 -0.2119
   42MOL    H65 3427   4.289   1.955   0.685  2.0019 -1.0861 -0.8336
   42MOL    C66 3428   4.073   1.926   0.784 -0.4849  0.1960 -0.1653
   42MOL    O67 3429   4.142   1.982   0.890  0.1565  0.0296 -0.1588
   42MOL    H68 3430   4.097   1.821   0.802 -0.9210  0.3849  1.5756
   42MOL    H69 3431   3.966   1.932   0.805 -1.0644 -3.0407 -1.8919
   42MOL    C70 3432   4.113   2.113   0.904 -0.4462 -1.0021 -0.7638
   42MOL    O71 3433   4.000   2.141   0.975  0.3156 -0.2696  0.2063
   42MOL    H72 3434   4.104   2.168   0.810 -2.9592  1.8086  1.0383
   42MOL    H73 3435   4.201   2.158   0.950 -0.4237 -1.3612 -0.4483
   42MOL    C74 3436   4.020   2.124   1.113  0.1845 -0.1225  0.3640
   42MOL    O75 3437   4.094   2.221   1.188  0.4332  0.3304  0.0625
   42MOL    H76 3438   4.071   2.028   1.122 -1.1687 -1.1452 -2.4873
   42MOL    H77 3439   3.923   2.102   1.158 -1.0345  2.5920 -0.8476
   42MOL    C78 3440   4.026   2.343   1.190 -0.0789 -0.1141  0.6935
   42MOL    O79 3441   4.101   2.440   1.254 -0.6727  0.1929  0.5035
   42MOL    H80 3442   3.927   2.339   1.235  0.0381  1.1111  1.0614
   42MOL    H81 3443   4.007   2.381   1.090  0.0234 -1.0879  0.2896
   42MOL    H82 3444   4.186   2.422   1.216 -1.9619  1.1215 -3.0027
   43MOL     C1 3445   4.404   0.133   2.126  0.6755 -0.3569  0.0454
   43MOL     O2 3446   4.318   0.150   2.015 -0.7243 -0.1099  0.2936
   43MOL     H3 3447   4.471   0.216   2.147 -0.9918  1.5457 -1.9533
   43MOL     H4 3448   4.348   0.126   2.219 -1.6677 -1.3769 -1.3837
   43MOL     H5 3449   4.462   0.041   2.119  2.4990  0.5777  2.4454
   43MOL     C6 3450   4.247   0.267   2.022 -0.4673  0.5839 -0.1730
   43MOL     O7 3451   4.140   0.264   2.116 -0.3084  0.7786  0.3666
   43MOL     H8 3452   4.204   0.302   1.928 -2.5128 -2.3639 -0.3940
   43MOL     H9 3453   4.315   0.351   2.040  2.4006 -2.2214  2.8828
   43MOL    C10 3454   4.049   0.165   2.078 -0.1010 -0.0406 -0.6170
   43MOL    O11 3455   3.966   0.129   2.177  0.6383  0.0999 -0.6648
   43MOL    H12 3456   4.094   0.068   2.060 -0.8543 -0.2155 -1.6272
   43MOL    H13 3457   3.994   0.195   1.988  0.3147 -0.7368 -1.1033
   43MOL    C14 3458   3.886   0.234   2.217 -0.5277  0.3206  0.5214
   43MOL    O15 3459   3.798   0.268   2.118 -0.0606 -0.0397  0.1558
   43MOL    H16 3460   3.944   0.321   2.250  2.1491 -0.8764 -0.8860
   43MOL    H17 3461   3.823   0.197   2.298 -2.8215  1.0902 -0.8570
   43MOL    C18 3462   3.724   0.380   2.154  0.5619 -0.3908 -0.5630
   43MOL    O19 3463   3.800   0.504   2.141 -0.4345  0.1941  0.0960
   43MOL    H20 3464   3.685   0.374   2.256  0.2709 -1.1590 -0.7187
   43MOL    H21 3465   3.629   0.373   2.102  0.0793 -0.2080  0.2765
   43MOL    C22 3466   3.748   0.580   2.026  0.4167  0.7596  0.0821
   43MOL    O23 3467   3.781   0.529   1.900 -0.1223  0.1251  0.2012
   43MOL    H24 3468   3.776   0.685   2.016 -0.6037  0.7901 -2.8670
   43MOL    H25 3469   3.642   0.600   2.038  0.4832  1.6486 -0.7769
   43MOL    C26 3470   3.917   0.515   1.875 -0.1831 -0.6785 -0.3698
   43MOL    O27 3471   3.945   0.513   1.743  0.2123  0.4076 -0.3851
   43MOL    H28 3472   3.965   0.437   1.935  0.6134 -1.8305 -2.4674
   43MOL    H29 3473   3.961   0.610   1.906 -2.5580  1.1913 -2.5829
   43MOL    C30 3474   3.930   0.391   1.677 -0.1926  0.9653  0.9235
   43MOL    O31 3475   4.009   0.298   1.731 -0.0118  0.2257 -0.1280
   43MOL    H32 3476   3.957   0.404   1.572 -1.0835 -0.3852  0.5111
   43MOL    H33 3477   3.823   0.369   1.670  0.5366 -2.9369  1.0355
   43MOL    C34 3478   3.977   0.170   1.695 -0.1540 -0.0664  0.5895
   43MOL    O35 3479   4.078   0.075   1.715 -0.1656 -0.2277  0.0812
   43MOL    H36 3480   3.934   0.164   1.595  0.6115  0.7647  0.2018
   43MOL    H37 3481   3.895   0.146   1.762  0.1102 -0.1850  0.8695
   43MOL    C38 3482   4.192   0.081   1.639 -0.6734  0.4870 -0.1284
   43MOL    O39 3483   4.238   7.736   1.616  0.1626 -0.2917  0.3004
   43MOL    H40 3484   4.272   0.145   1.675  1.3426 -3.0552  1.8789
   43MOL    H41 3485   4.163   0.121   1.542 -1.0531  1.0631  0.2201
   43MOL    C42 3486   4.301   7.684   1.727 -0.2335  0.0939 -0.5137
   43MOL    O43 3487   4.344   7.556   1.701 -0.1520 -0.0136  0.2602
   43MOL    H44 3488   4.237   7.702   1.813  2.1215  2.6430  0.7889
   43MOL    H45 3489   4.397   7.733   1.739 -0.7974  1.2556 -0.6801
   43MOL    C46 3490   4.248   7.459   1.703  0.3174 -0.3779 -1.0106
   43MOL    O47 3491   4.243   7.395   1.827  0.2738 -0.1546  0.4349
   43MOL    H48 3492   4.280   7.397   1.619  0.7462 -2.2738  0.5312
   43MOL    H49 3493   4.156   7.508   1.669 -0.6103 -0.7280  0.9450
   43MOL    C50 3494   4.114   7.389   1.876  0.1258  0.0302  0.1200
   43MOL    O51 3495   4.105   7.302   1.985 -0.1486 -0.2754 -0.4283
   43MOL    H52 3496   4.054   7.343   1.797 -1.1376  1.2041  0.3794
   43MOL    H53 3497   4.065   7.484   1.898  0.4281  0.7181 -2.0770
   43MOL    C54 3498   4.190   7.337   2.091 -0.6851 -0.9887  0.0671
   43MOL    O55 3499   4.161   7.464   2.142 -0.2952 -0.0431  0.6713
   43MOL    H56 3500   4.294   7.315   2.070 -0.5114 -0.7667  0.6773
   43MOL    H57 3501   4.163   7.270   2.173  1.3542 -1.9851 -0.0412
   43MOL    C58 3502   4.263   7.560   2.127 -0.2576  0.1325  0.2038
   43MOL    O59 3503   4.386   7.521   2.203  0.4769 -0.2428  0.0500
   43MOL    H60 3504   4.224   7.655   2.164 -0.4217 -0.2215  0.9427
   43MOL    H61 3505   4.289   7.561   2.021  1.8380  1.5954  0.7104
   43MOL    C62 3506   4.367   7.557   2.342 -0.1743  0.3318  0.0531
   43MOL    O63 3507   4.358   7.694   2.366 -0.7450  0.0112  0.2352
   43MOL    H64 3508   4.450   7.516   2.400  0.3262 -0.7009 -1.3663
   43MOL    H65 3509   4.277   7.509   2.383 -0.1278  0.9325  0.8627
   43MOL    C66 3510   4.364   7.721   2.505 -0.0927  0.8404  0.6930
   43MOL    O67 3511   4.253   7.667   2.571  0.7467  0.1173 -0.2568
   43MOL    H68 3512   4.381   0.043   2.525  1.6588  0.6696  0.1384
   43MOL    H69 3513   4.450   7.665   2.538  0.4831 -0.6741 -3.1746
   43MOL    C70 3514   4.134   7.749   2.552  0.0917  0.2220 -0.8932
   43MOL    O71 3515   4.096   0.024   2.677 -0.8250  0.9181 -0.6297
   43MOL    H72 3516   4.060   7.671   2.535  0.7285 -0.1942 -1.7646
   43MOL    H73 3517   4.137   0.034   2.467 -1.5125 -0.1515 -1.2746
   43MOL    C74 3518   3.966   0.048   2.698  0.1870  0.6346 -0.1634
   43MOL    O75 3519   3.915   0.139   2.607  0.8341  0.2270  0.3642
   43MOL    H76 3520   3.943   0.096   2.794 -0.8834 -1.8021  0.8494
   43MOL    H77 3521   3.907   7.740   2.707  1.5088 -0.0721  1.5975
   43MOL    C78 3522   3.970   0.268   2.604  1.1963 -0.3208 -0.2413
   43MOL    O79 3523   3.884   0.357   2.538 -0.7496 -0.4151 -0.7259
   43MOL    H80 3524   4.063   0.259   2.547  0.4116 -0.4217 -1.5077
   43MOL    H81 3525   3.990   0.309   2.703  2.6327  0.6397 -0.9216
   43MOL    H82 3526   3.832   0.401   2.603 -1.4844 -0.1635 -1.4832
   44MOL     C1 3527   4.825   7.539   0.566 -0.0544 -1.0910 -0.6513
   44MOL     O2 3528   4.852   7.632   0.463  0.2826  0.4113 -0.1531
   44MOL     H3 3529   4.882   7.560   0.657 -1.4239  0.1945 -0.0825
   44MOL     H4 3530   4.719   7.542   0.591  0.3570 -1.0057  1.1959
   44MOL     H5 3531   4.839   7.438   0.528 -0.9143 -0.2381 -3.2992
   44MOL     C6 3532   4.826   7.765   0.495 -0.7169 -0.8978  0.2892
   44MOL     O7 3533   4.942   0.031   0.558  0.2769  0.3467  0.0290
   44MOL     H8 3534   4.729   7.768   0.544 -1.1655 -2.8189 -0.4597
   44MOL     H9 3535   4.802   0.038   0.405  1.8438  0.0149  0.1296
   44MOL    C10 3536   4.924   0.168   0.583  0.5989  0.1736  0.5891
   44MOL    O11 3537   4.930   0.237   0.456 -0.0823  0.0917 -0.8457
   44MOL    H12 3538   4.993   0.210   0.657  2.7236 -1.5193 -0.3750
   44MOL    H13 3539   4.826   0.186   0.626  1.1285  1.1961  1.3882
   44MOL    C14 3540   5.062   0.238   0.406  0.3765 -0.1052 -1.3496
   44MOL    O15 3541   5.138   0.338   0.470 -0.5799 -0.3841  0.6086
   44MOL    H16 3542   5.058   0.283   0.306 -0.4486 -0.5442 -1.5084
   44MOL    H17 3543   5.090   0.133   0.400  0.3305 -0.0398 -3.2447
   44MOL    C18 3544   5.277   0.330   0.452 -0.4732  1.1776 -0.5484
   44MOL    O19 3545   5.329   0.231   0.532  0.2440  0.5804 -0.2373
   44MOL    H20 3546   5.329   0.424   0.469  0.0300  1.3824 -3.0976
   44MOL    H21 3547   5.293   0.307   0.347 -2.0106 -0.3369 -0.4784
   44MOL    C22 3548   5.468   0.229   0.509 -0.4364  0.4891 -0.3005
   44MOL    O23 3549   5.501   0.163   0.397 -0.4511  0.1095 -0.2239
   44MOL    H24 3550   5.518   0.186   0.596 -2.5520  1.4249  1.4311
   44MOL    H25 3551   5.508   0.331   0.507  0.8347  0.0839  2.3467
   44MOL    C26 3552   5.480   0.022   0.404  0.0342  0.1124  1.1868
   44MOL    O27 3553   5.503   7.743   0.279 -0.1914 -0.5952  0.0090
   44MOL    H28 3554   5.376   0.001   0.431  0.0583  0.0403  1.2243
   44MOL    H29 3555   5.542   7.756   0.479  1.2519 -0.9805 -0.4972
   44MOL    C30 3556   5.416   0.003   0.180 -0.5728  0.0722  0.2192
   44MOL    O31 3557   5.284   7.773   0.208  0.2377 -0.3478  0.0937
   44MOL    H32 3558   5.436   7.733   0.088 -2.3101 -2.2845  1.1492
   44MOL    H33 3559   5.447   0.104   0.157  2.9775 -1.2714 -1.2365
   44MOL    C34 3560   5.204   0.064   0.121 -0.4664 -0.0050 -0.0498
   44MOL    O35 3561   5.071   0.049   0.151 -0.2428  0.8615 -0.2586
   44MOL    H36 3562   5.235   0.050   0.017 -0.1332 -1.1543  0.2076
   44MOL    H37 3563   5.228   0.165   0.156  0.6562 -0.8672  1.7147
   44MOL    C38 3564   5.011   7.720   0.082  0.2736  0.8293 -0.0750
   44MOL    O39 3565   4.928   7.763   7.761 -0.3045 -0.2997  0.2560
   44MOL    H40 3566   4.939   7.682   0.155  0.0799 -0.6898 -1.0484
   44MOL    H41 3567   5.080   7.640   0.054  0.3225  0.9587 -0.3285
   44MOL    C42 3568   5.006   0.033   7.655 -0.1108  0.7113  0.0044
   44MOL    O43 3569   5.095   7.719   7.597  0.3831 -0.2730 -0.1044
   44MOL    H44 3570   5.058   0.123   7.689 -1.8278  1.1553  1.5506
   44MOL    H45 3571   4.926   0.064   7.588 -1.1525  0.4911  1.1368
   44MOL    C46 3572   5.038   7.612   7.537  0.4510  0.0515 -0.3720
   44MOL    O47 3573   5.023   7.616   7.394 -0.1918  0.2833  0.3242
   44MOL    H48 3574   4.938   7.598   7.577  1.0966 -0.0409  1.2586
   44MOL    H49 3575   5.093   7.518   7.547 -2.1852 -1.4545  0.4334
   44MOL    C50 3576   5.144   7.643   7.329  0.4953 -0.0039  0.1284
   44MOL    O51 3577   5.218   7.532   7.321  0.2671  0.0784 -0.3680
   44MOL    H52 3578   5.201   7.723   7.376 -0.9204  1.5195 -0.6814
   44MOL    H53 3579   5.119   7.671   7.226  0.3035  0.0543  0.1911
   44MOL    C54 3580   5.355   7.550   7.311 -0.3251 -0.1695  0.0056
   44MOL    O55 3581   5.384   7.606   7.182  0.2063  0.5093 -0.1386
   44MOL    H56 3582   5.406   7.454   7.314  0.2934  0.2057  2.0773
   44MOL    H57 3583   5.405   7.599   7.395  0.3787 -0.4948 -0.2166
   44MOL    C58 3584   5.361   7.525   7.074  0.0782  0.4175  0.1059
   44MOL    O59 3585   5.469   7.424   7.064  0.5014 -0.0369 -0.0296
   44MOL    H60 3586   5.373   7.584   6.983 -2.5174  0.5390 -0.1887
   44MOL    H61 3587   5.265   7.474   7.083  0.4530 -0.0156  1.7788
   44MOL    C62 3588   5.419   7.297   7.074  0.1827  0.7741  0.3103
   44MOL    O63 3589   5.347   7.265   6.955  0.2525  0.5079  0.3126
   44MOL    H64 3590   5.358   7.276   7.163  1.1337  1.3250  1.1032
   44MOL    H65 3591   5.496   7.220   7.076  0.9426  1.5361  0.8658
   44MOL    C66 3592   5.441   7.264   6.843 -0.1953  0.1056  0.5261
   44MOL    O67 3593   5.544   7.168   6.856 -0.0908  0.5796  0.1751
   44MOL    H68 3594   5.489   7.361   6.827  3.4534 -1.3156  2.1891
   44MOL    H69 3595   5.384   7.231   6.757  0.3435 -0.8470  0.5243
   44MOL    C70 3596   5.634   7.166   6.748 -0.1260 -0.2627  0.1324
   44MOL    O71 3597   5.722   7.279   6.752 -0.4482 -0.1565 -0.3477
   44MOL    H72 3598   5.588   7.161   6.649  0.5480  0.5981 -0.2345
   44MOL    H73 3599   5.700   7.082   6.770 -1.9590 -1.8225 -0.2425
   44MOL    C74 3600   5.795   7.290   6.873  0.1329  0.5959 -0.6061
   44MOL    O75 3601   5.892   7.395   6.864  0.5725  0.2195  0.2310
   44MOL    H76 3602   5.857   7.206   6.903 -1.3654 -0.8213 -1.3728
   44MOL    H77 3603   5.729   7.304   6.959  2.0412 -1.0449  1.1774
   44MOL    C78 3604   5.997   7.365   6.778 -0.4521  0.0103 -0.6112
   44MOL    O79 3605   6.062   7.484   6.741  0.5927  0.4839 -0.2333
   44MOL    H80 3606   5.973   7.314   6.685 -0.2680 -1.4605  0.1394
   44MOL    H81 3607   6.072   7.307   6.833 -0.0312  1.4220  0.3443
   44MOL    H82 3608   6.021   7.512   6.660 -1.0077  0.1212  0.4401
   45MOL     C1 3609   1.857   3.117   3.661  0.3909 -0.3204  0.5998
   45MOL     O2 3610   1.955   3.023   3.621  0.1955 -0.4029 -0.0368
   45MOL     H3 3611   1.777   3.076   3.722  1.3454 -0.4539  1.7741
   45MOL     H4 3612   1.900   3.207   3.706 -0.2405  0.3205 -0.0602
   45MOL     H5 3613   1.798   3.151   3.576  0.1181  1.3641  1.4372
   45MOL     C6 3614   1.911   2.906   3.552 -0.7079 -0.7619  0.3323
   45MOL     O7 3615   1.897   2.930   3.416  0.1648 -0.0819  0.2270
   45MOL     H8 3616   1.811   2.870   3.577 -1.5788  1.4373  0.1126
   45MOL     H9 3617   1.976   2.819   3.561 -0.1012 -0.3464  0.0060
   45MOL    C10 3618   2.017   2.948   3.351  0.1365 -0.0991 -0.9055
   45MOL    O11 3619   2.054   2.829   3.286  0.7985  0.8371 -0.1244
   45MOL    H12 3620   2.093   2.981   3.422 -1.1507  0.4727  0.2258
   45MOL    H13 3621   1.995   3.028   3.280  1.3153  0.7060 -0.3655
   45MOL    C14 3622   1.969   2.791   3.184 -0.0284 -0.4417  0.1245
   45MOL    O15 3623   2.038   2.700   3.103  0.3148  0.0956  0.2953
   45MOL    H16 3624   1.950   2.884   3.130 -0.8379  0.0865  1.3103
   45MOL    H17 3625   1.877   2.744   3.217  0.9039 -1.2205  1.6508
   45MOL    C18 3626   2.059   2.578   3.168 -0.0402 -0.1589 -0.4710
   45MOL    O19 3627   2.006   2.470   3.089  0.3518 -0.6791 -0.0351
   45MOL    H20 3628   2.027   2.564   3.271 -1.8311 -0.0805 -0.9947
   45MOL    H21 3629   2.167   2.562   3.167  0.2358  1.1663  2.0783
   45MOL    C22 3630   1.870   2.437   3.113 -0.0671  0.3084  0.1864
   45MOL    O23 3631   1.840   2.409   3.241  0.3038  0.1159  0.2713
   45MOL    H24 3632   1.824   2.374   3.037  1.2148 -0.6402  0.1883
   45MOL    H25 3633   1.810   2.527   3.096 -2.3179 -0.9789  1.0009
   45MOL    C26 3634   1.829   2.269   3.271  0.0957  0.2719 -0.7028
   45MOL    O27 3635   1.718   2.213   3.200 -0.1778 -0.6143 -0.1103
   45MOL    H28 3636   1.819   2.255   3.378 -0.2652 -0.0866 -0.7822
   45MOL    H29 3637   1.922   2.214   3.252  1.3320  1.5857  1.3659
   45MOL    C30 3638   1.598   2.256   3.250 -0.1944 -0.3146 -0.0357
   45MOL    O31 3639   1.568   2.182   3.359 -0.1192  0.0949  0.1556
   45MOL    H32 3640   1.524   2.249   3.171 -0.6658 -0.7553  0.4469
   45MOL    H33 3641   1.602   2.362   3.273  1.0288 -0.0962 -1.1937
   45MOL    C34 3642   1.436   2.200   3.401 -0.1926  0.3666  0.1711
   45MOL    O35 3643   1.421   2.317   3.467 -0.1076 -0.1335 -0.3048
   45MOL    H36 3644   1.403   2.113   3.458 -2.1969 -0.1452 -1.6880
   45MOL    H37 3645   1.372   2.204   3.312 -0.4038 -1.0193  0.2528
   45MOL    C38 3646   1.469   2.303   3.600 -0.1978  0.5212  0.3829
   45MOL    O39 3647   1.388   2.219   3.685  0.4720  0.5556 -0.5645
   45MOL    H40 3648   1.481   2.398   3.652  1.9124 -0.5409  1.9067
   45MOL    H41 3649   1.572   2.268   3.592 -0.0187  0.5584  2.3580
   45MOL    C42 3650   1.271   2.276   3.732  0.0478 -0.1151  0.8840
   45MOL    O43 3651   1.299   2.371   3.835 -0.0237  0.0150 -0.0322
   45MOL    H44 3652   1.192   2.206   3.761 -0.0576 -0.5455 -0.3890
   45MOL    H45 3653   1.228   2.322   3.643 -0.6642 -2.1668  0.1425
   45MOL    C46 3654   1.288   2.306   3.957 -0.1662 -0.0714  0.0956
   45MOL    O47 3655   1.157   2.275   3.990  0.2588  0.2860 -0.3860
   45MOL    H48 3656   1.324   2.372   4.036 -0.9586  0.3404  0.1188
   45MOL    H49 3657   1.354   2.219   3.963  1.2414  0.9780 -0.0584
   45MOL    C50 3658   1.076   2.383   3.999  0.5161 -0.3221 -0.5095
   45MOL    O51 3659   0.957   2.335   4.041 -0.3186 -0.2559  0.3407
   45MOL    H52 3660   1.065   2.437   3.905  0.1449 -1.4862 -1.1422
   45MOL    H53 3661   1.118   2.435   4.085  3.4486 -2.2069 -0.7269
   45MOL    C54 3662   0.872   2.297   3.939  0.0388  0.0092  0.0623
   45MOL    O55 3663   0.796   2.402   3.896  0.0660  0.0036  0.1512
   45MOL    H56 3664   0.816   2.217   3.989  2.3331  0.3294  3.3138
   45MOL    H57 3665   0.919   2.255   3.850 -2.0685  2.0766 -2.0962
   45MOL    C58 3666   0.683   2.425   3.970 -0.6137  0.4657  0.2289
   45MOL    O59 3667   0.600   2.315   3.995 -0.0008  0.3212  0.2913
   45MOL    H60 3668   0.635   2.513   3.926 -0.5756  1.2592  1.7389
   45MOL    H61 3669   0.717   2.458   4.069  1.6999  4.0936 -1.6693
   45MOL    C62 3670   0.516   2.279   3.889 -0.6123 -0.5417  0.2107
   45MOL    O63 3671   0.406   2.365   3.887 -0.2182  0.0211  0.3376
   45MOL    H64 3672   0.486   2.177   3.913  2.3011 -1.3301  0.6985
   45MOL    H65 3673   0.576   2.273   3.799 -0.8901 -3.6001  0.1852
   45MOL    C66 3674   0.325   2.355   3.774 -0.3502  0.8303  0.6269
   45MOL    O67 3675   0.378   2.414   3.660  0.3771  0.9261  1.2376
   45MOL    H68 3676   0.223   2.385   3.800 -0.9750 -1.2298  0.6625
   45MOL    H69 3677   0.310   2.248   3.755 -0.2499  1.0605 -0.8641
   45MOL    C70 3678   0.372   2.557   3.673 -0.5172 -0.6166  0.1973
   45MOL    O71 3679   0.254   2.604   3.623  0.1330  0.3350  0.1420
   45MOL    H72 3680   0.455   2.587   3.610 -0.3872  0.8993  1.0430
   45MOL    H73 3681   0.385   2.592   3.776 -0.2654 -0.2225  0.0304
   45MOL    C74 3682   0.238   2.741   3.638 -0.4406 -0.6452 -0.0834
   45MOL    O75 3683   0.330   2.818   3.574  0.1173  0.1721 -0.0914
   45MOL    H76 3684   0.243   2.780   3.740 -1.9197 -0.5226 -0.0503
   45MOL    H77 3685   0.134   2.760   3.614 -0.0016  0.0593 -1.4861
   45MOL    C78 3686   0.311   2.810   3.437  0.6149  0.1579  0.3758
   45MOL    O79 3687   0.382   2.914   3.368 -0.1626 -0.7886  1.1181
   45MOL    H80 3688   0.206   2.816   3.408  1.4123  3.6639 -2.2535
   45MOL    H81 3689   0.347   2.711   3.411  0.6856 -0.3930  2.5004
   45MOL    H82 3690   0.473   2.890   3.371  0.2225  0.6659  1.4187
   46MOL     C1 3691   0.185   1.396   6.066  0.4170 -0.2196 -0.5247
   46MOL     O2 3692   0.108   1.300   5.996  0.0303 -0.8686 -0.1854
   46MOL     H3 3693   0.114   1.472   6.096  1.0961 -1.1500  3.7991
   46MOL     H4 3694   0.228   1.361   6.160 -3.9156  2.4010  2.6128
   46MOL     H5 3695   0.263   1.422   5.994  2.6666  3.4086  3.0100
   46MOL     C6 3696   0.158   1.171   6.004  0.0630 -0.0239 -0.6128
   46MOL     O7 3697   0.166   1.134   6.139 -0.1564  0.2877 -0.0501
   46MOL     H8 3698   0.255   1.148   5.960  0.2857  1.7230 -1.0778
   46MOL     H9 3699   0.087   1.104   5.956  0.1250 -0.4810 -0.0727
   46MOL    C10 3700   0.203   1.003   6.158  0.3523 -0.2483  0.3801
   46MOL    O11 3701   0.126   0.906   6.096 -0.1581 -0.0509  0.0614
   46MOL    H12 3702   0.208   0.987   6.266  0.1699 -0.7329  0.3199
   46MOL    H13 3703   0.303   0.979   6.122 -0.1954  0.7012 -1.8252
   46MOL    C14 3704   7.782   0.890   6.142  0.3282 -0.1523 -0.0427
   46MOL    O15 3705   7.777   0.821   6.259  0.2186  0.1111  0.4168
   46MOL    H16 3706   7.733   0.835   6.061  2.4277  0.0981 -1.5467
   46MOL    H17 3707   7.732   0.986   6.142  0.9456  0.1738 -0.4330
   46MOL    C18 3708   0.053   0.695   6.256  0.3378  0.5506 -0.3219
   46MOL    O19 3709   7.778   0.598   6.164  0.1724 -0.0194  0.6539
   46MOL    H20 3710   0.055   0.661   6.359 -0.1062  1.8777  0.1413
   46MOL    H21 3711   0.159   0.716   6.243  0.5173  0.4375  0.9113
   46MOL    C22 3712   0.068   0.482   6.140 -0.1524  0.0118 -0.0153
   46MOL    O23 3713   0.074   0.400   6.253  0.2633  0.0162 -0.4133
   46MOL    H24 3714   0.172   0.506   6.118 -0.0545  1.0186  1.4264
   46MOL    H25 3715   0.022   0.419   6.064 -2.1245 -1.0682  2.0104
   46MOL    C26 3716   7.743   0.337   6.278  0.5320 -0.3007 -0.4150
   46MOL    O27 3717   7.724   0.226   6.201 -0.6939  0.3529 -0.0580
   46MOL    H28 3718   7.665   0.413   6.270  1.4108  0.6197 -0.2877
   46MOL    H29 3719   7.738   0.309   6.384 -1.5068 -1.5608 -0.8045
   46MOL    C30 3720   7.591   0.180   6.213 -1.4528 -0.4266  0.0803
   46MOL    O31 3721   7.599   0.055   6.162  0.3723  0.0574 -0.1020
   46MOL    H32 3722   7.523   0.243   6.155 -1.5299 -1.6741 -1.2113
   46MOL    H33 3723   7.553   0.185   6.315  0.4984  2.3524  0.7490
   46MOL    C34 3724   7.656   7.753   6.262 -0.1658  0.5156  0.3581
   46MOL    O35 3725   7.568   7.706   6.356  0.7204  0.3972 -0.4281
   46MOL    H36 3726   7.735   0.016   6.321 -0.4445  0.2478  0.9477
   46MOL    H37 3727   7.699   7.673   6.203 -1.3453  0.4741 -0.4698
   46MOL    C38 3728   7.507   7.582   6.313 -0.5076 -0.5887  0.4568
   46MOL    O39 3729   7.405   7.546   6.398 -0.4215  0.3065  0.4909
   46MOL    H40 3730   7.585   7.507   6.304 -0.4788 -0.6833  1.3944
   46MOL    H41 3731   7.460   7.602   6.216 -0.8393 -2.3319  0.2442
   46MOL    C42 3732   7.441   7.512   6.528  0.0399 -0.0237  0.9074
   46MOL    O43 3733   7.476   7.378   6.529  0.3589  0.2342  0.1609
   46MOL    H44 3734   7.354   7.531   6.591  0.3041 -2.0332  1.8864
   46MOL    H45 3735   7.522   7.577   6.561  1.5752 -0.4801 -1.7519
   46MOL    C46 3736   7.372   7.283   6.509 -0.0694 -0.1024  1.0683
   46MOL    O47 3737   7.333   7.283   6.376 -0.3934  0.7884 -0.2392
   46MOL    H48 3738   7.285   7.301   6.572 -2.0782 -0.0953 -1.5976
   46MOL    H49 3739   7.414   7.187   6.540  0.3444 -0.3714 -0.2720
   46MOL    C50 3740   7.413   7.200   6.296  0.1732  0.2140  0.6570
   46MOL    O51 3741   7.400   7.240   6.163  0.5812  0.0329  0.8172
   46MOL    H52 3742   7.413   7.095   6.323 -0.9477  0.0822  0.1901
   46MOL    H53 3743   7.519   7.223   6.308  0.4674 -0.8161  0.0285
   46MOL    C54 3744   7.286   7.165   6.110 -0.5927 -0.6655 -0.2210
   46MOL    O55 3745   7.312   7.028   6.109  0.5268  0.4703 -0.4338
   46MOL    H56 3746   7.286   7.196   6.005  1.6806 -1.1051 -0.3812
   46MOL    H57 3747   7.195   7.198   6.160 -1.0462 -2.3327  0.0823
   46MOL    C58 3748   7.406   6.989   6.025  0.6766 -0.1124  0.0692
   46MOL    O59 3749   7.367   6.998   5.892  1.0352 -0.0568  0.2260
   46MOL    H60 3750   7.414   6.881   6.040  2.6798  0.2837  2.1593
   46MOL    H61 3751   7.500   7.044   6.032 -0.1691  1.1289  1.8106
   46MOL    C62 3752   7.442   6.919   5.808 -0.6675 -0.2687  0.2145
   46MOL    O63 3753   7.568   6.980   5.787 -0.2532  0.3390  0.3385
   46MOL    H64 3754   7.382   6.905   5.718  0.1686 -2.1533 -0.0991
   46MOL    H65 3755   7.469   6.821   5.849  0.2400 -0.0195  0.2156
   46MOL    C66 3756   7.557   7.082   5.692  0.6391  0.5175  0.1944
   46MOL    O67 3757   7.562   7.030   5.562 -0.4949  0.1156 -0.0627
   46MOL    H68 3758   7.643   7.148   5.708  0.9222 -0.1193  1.4015
   46MOL    H69 3759   7.466   7.141   5.697 -0.7739 -1.6299  0.5763
   46MOL    C70 3760   7.676   6.947   5.537 -0.9294  0.8215 -0.1833
   46MOL    O71 3761   7.680   6.900   5.406  0.3832  0.2501  0.3904
   46MOL    H72 3762   7.675   6.864   5.608  4.0400  2.2451  1.7688
   46MOL    H73 3763   7.771   6.995   5.557  0.7152 -2.0626 -0.8499
   46MOL    C74 3764   7.750   6.990   5.325 -0.1601  0.3873  0.1528
   46MOL    O75 3765   0.103   6.974   5.326 -0.1789  0.3052  0.1824
   46MOL    H76 3766   7.727   7.095   5.345  2.3937  1.6047 -2.8105
   46MOL    H77 3767   7.708   6.970   5.226  0.0149 -1.0450  0.3665
   46MOL    C78 3768   0.147   6.866   5.271 -0.5120  0.1912  0.2392
   46MOL    O79 3769   0.286   6.864   5.286 -0.2645 -0.1567  0.0233
   46MOL    H80 3770   0.122   6.855   5.165 -0.5260  0.9917  0.1540
   46MOL    H81 3771   0.102   6.779   5.319 -0.9078 -0.1338 -0.7113
   46MOL    H82 3772   0.301   6.831   5.373  0.3843  2.4890  0.9670
   47MOL     C1 3773   2.162   6.541   4.768 -0.3131  0.1578  0.7751
   47MOL     O2 3774   2.036   6.552   4.701  0.0992 -0.5437 -0.0984
   47MOL     H3 3775   2.161   6.572   4.873  0.6616 -1.1660  1.1782
   47MOL     H4 3776   2.195   6.437   4.768 -0.0548  0.2163 -1.0090
   47MOL     H5 3777   2.237   6.599   4.715  1.6595 -0.7190  2.5346
   47MOL     C6 3778   1.934   6.493   4.773 -0.6058  0.2801  0.1017
   47MOL     O7 3779   1.857   6.585   4.845 -0.1014  0.4842 -0.7378
   47MOL     H8 3780   1.969   6.410   4.835  0.8950  1.0111  0.2555
   47MOL     H9 3781   1.870   6.446   4.698 -2.6372  1.4945  1.0378
   47MOL    C10 3782   1.789   6.669   4.754  0.0630  0.3968 -0.5297
   47MOL    O11 3783   1.710   6.753   4.822 -0.4199 -0.6092 -0.1727
   47MOL    H12 3784   1.738   6.596   4.691 -1.9993  0.8012  0.6030
   47MOL    H13 3785   1.855   6.728   4.691 -0.9050  0.6017 -1.3680
   47MOL    C14 3786   1.591   6.710   4.873  0.1907  0.5372 -0.1889
   47MOL    O15 3787   1.507   6.665   4.766  0.1298 -0.2679 -0.0090
   47MOL    H16 3788   1.537   6.782   4.934  0.0056 -0.8880  1.3897
   47MOL    H17 3789   1.613   6.627   4.941 -1.2551 -1.0583 -1.6185
   47MOL    C18 3790   1.411   6.565   4.808 -0.7864 -1.2093  0.1876
   47MOL    O19 3791   1.466   6.442   4.839 -0.2540  0.0259 -0.0688
   47MOL    H20 3792   1.343   6.554   4.724 -0.4050 -1.2610 -0.1152
   47MOL    H21 3793   1.360   6.607   4.895  1.5470 -0.5051  1.2509
   47MOL    C22 3794   1.414   6.386   4.954  0.7093  0.2061  0.6778
   47MOL    O23 3795   1.286   6.340   4.934 -1.0899 -0.5789 -0.5197
   47MOL    H24 3796   1.425   6.463   5.032 -1.7396  0.3811  0.8880
   47MOL    H25 3797   1.483   6.303   4.964  1.2650  0.3843 -1.5344
   47MOL    C26 3798   1.276   6.225   4.858 -0.8593  0.3953 -0.1074
   47MOL    O27 3799   1.281   6.114   4.936  0.1599  0.1415  0.6603
   47MOL    H28 3800   1.344   6.222   4.773  0.9688 -2.9758  1.3861
   47MOL    H29 3801   1.174   6.206   4.825 -0.7435 -2.0941  0.8686
   47MOL    C30 3802   1.352   6.004   4.885 -0.0504 -0.8554 -0.1562
   47MOL    O31 3803   1.488   6.031   4.870  0.0737  0.2932  0.2796
   47MOL    H32 3804   1.315   5.990   4.783 -0.6403 -1.9629  0.1977
   47MOL    H33 3805   1.330   5.920   4.951 -0.8634 -0.9075 -0.4876
   47MOL    C34 3806   1.568   6.008   4.984  0.3826 -0.8413  0.7013
   47MOL    O35 3807   1.702   6.025   4.961 -0.1616  0.2111  0.3548
   47MOL    H36 3808   1.566   5.900   5.003  0.9950 -1.0424 -0.3496
   47MOL    H37 3809   1.522   6.061   5.067 -0.8388 -1.1024  0.2043
   47MOL    C38 3810   1.754   6.154   4.964  0.0240 -0.4503  0.7080
   47MOL    O39 3811   1.759   6.197   5.104  0.1949 -0.2263 -0.0533
   47MOL    H40 3812   1.683   6.216   4.910  0.0011 -0.7671  0.3775
   47MOL    H41 3813   1.848   6.167   4.912 -0.5824  0.5876 -0.1489
   47MOL    C42 3814   1.868   6.141   5.168  0.1299 -0.9776  0.1560
   47MOL    O43 3815   1.984   6.206   5.125  0.2395  0.3512 -0.0648
   47MOL    H44 3816   1.881   6.034   5.150 -1.2342 -1.6174  2.7601
   47MOL    H45 3817   1.851   6.159   5.274  0.0909 -0.7134  0.1043
   47MOL    C46 3818   2.022   6.308   5.211  0.0808  0.2358  0.1086
   47MOL    O47 3819   2.072   6.253   5.329  0.2290 -0.3095  0.0821
   47MOL    H48 3820   1.933   6.366   5.235 -1.1451 -0.3053 -2.9042
   47MOL    H49 3821   2.093   6.368   5.155  0.8569 -1.1761 -0.4508
   47MOL    C50 3822   2.208   6.225   5.314 -0.5334  0.6597 -0.3702
   47MOL    O51 3823   2.282   6.344   5.318 -0.0493  0.1806  0.1771
   47MOL    H52 3824   2.214   6.153   5.233 -0.7782  0.3718 -0.1339
   47MOL    H53 3825   2.242   6.166   5.399  1.9958 -0.2242 -1.9737
   47MOL    C54 3826   2.398   6.326   5.249 -0.1928 -0.5976 -0.0310
   47MOL    O55 3827   2.493   6.264   5.327  0.5488 -0.0611 -0.1256
   47MOL    H56 3828   2.438   6.424   5.225 -1.5915  0.6329  2.5523
   47MOL    H57 3829   2.400   6.273   5.154 -0.0443 -0.8397  0.1059
   47MOL    C58 3830   2.541   6.336   5.433 -0.0384 -0.7175  0.2252
   47MOL    O59 3831   2.611   6.454   5.395 -0.4136  0.0943 -0.2035
   47MOL    H60 3832   2.621   6.278   5.481  0.5089 -0.7266 -0.6865
   47MOL    H61 3833   2.465   6.346   5.510  1.8500  1.4336  1.8676
   47MOL    C62 3834   2.738   6.432   5.342  0.5934  0.1594  0.0168
   47MOL    O63 3835   2.785   6.549   5.281 -0.0540 -0.1937  0.7070
   47MOL    H64 3836   2.736   6.353   5.266  1.6941  0.4655 -0.3412
   47MOL    H65 3837   2.799   6.402   5.427 -0.8665 -0.0132  1.0149
   47MOL    C66 3838   2.734   6.568   5.153  0.3747 -0.6564  0.0858
   47MOL    O67 3839   2.790   6.479   5.064  0.0705 -0.3011  0.5674
   47MOL    H68 3840   2.738   6.670   5.117 -0.0615 -0.5619  0.3028
   47MOL    H69 3841   2.628   6.544   5.154  0.7278 -2.3256  1.0849
   47MOL    C70 3842   2.924   6.518   5.045  0.7599 -0.0626 -0.2273
   47MOL    O71 3843   2.935   6.640   4.979 -0.3411 -0.2191 -0.0771
   47MOL    H72 3844   2.986   6.443   4.996 -0.4661 -1.1686 -0.1058
   47MOL    H73 3845   2.986   6.537   5.133  0.8475 -4.1508  0.7113
   47MOL    C74 3846   2.903   6.621   4.845  0.3294  0.3658 -0.5737
   47MOL    O75 3847   3.016   6.569   4.776 -0.6157  0.0655  0.4463
   47MOL    H76 3848   2.860   6.710   4.801  0.9664  0.9323 -0.0550
   47MOL    H77 3849   2.823   6.547   4.832  2.4342 -1.9512 -0.7718
   47MOL    C78 3850   3.077   6.662   4.695 -0.0367 -0.1675 -0.1945
   47MOL    O79 3851   3.192   6.609   4.630 -0.3643  0.8405  0.5670
   47MOL    H80 3852   3.103   6.757   4.741 -0.0881  0.1913 -0.8865
   47MOL    H81 3853   3.009   6.678   4.611  1.7431  0.1745 -1.6137
   47MOL    H82 3854   3.264   6.594   4.690  0.6001  0.8192 -0.5766
   48MOL     C1 3855   2.718   1.937   2.272 -0.2005  0.1218  0.7145
   48MOL     O2 3856   2.762   1.833   2.353 -0.0943 -0.2278 -0.0527
   48MOL     H3 3857   2.754   2.030   2.316  1.0296  0.3412 -0.6997
   48MOL     H4 3858   2.757   1.921   2.171  0.1424  0.7070  0.7466
   48MOL     H5 3859   2.609   1.934   2.275 -0.3009 -1.7703 -2.4553
   48MOL     C6 3860   2.739   1.843   2.489  0.5843  0.5056  0.0897
   48MOL     O7 3861   2.599   1.836   2.526  0.3641  0.3818  0.8423
   48MOL     H8 3862   2.772   1.943   2.516  1.0260 -0.2628  2.5216
   48MOL     H9 3863   2.797   1.770   2.546 -3.1452 -1.3743  1.6470
   48MOL    C10 3864   2.553   1.701   2.546  0.3282 -0.1093  0.0180
   48MOL    O11 3865   2.423   1.692   2.570  0.1224 -0.3307  0.5717
   48MOL    H12 3866   2.600   1.655   2.633 -0.3701  0.6561  0.8079
   48MOL    H13 3867   2.579   1.645   2.456 -0.4823  1.6959 -1.3665
   48MOL    C14 3868   2.347   1.705   2.455 -0.2831 -0.4353 -0.9328
   48MOL    O15 3869   2.222   1.753   2.496  0.0321 -0.6708  0.0202
   48MOL    H16 3870   2.330   1.612   2.400 -0.8332  0.5661 -2.4820
   48MOL    H17 3871   2.385   1.786   2.394  2.0040  0.5798  1.7289
   48MOL    C18 3872   2.150   1.655   2.561 -0.3999 -0.1646 -0.2479
   48MOL    O19 3873   2.122   1.547   2.473  0.5789  0.1560 -0.0467
   48MOL    H20 3874   2.062   1.710   2.594  0.1540  1.6697 -1.6649
   48MOL    H21 3875   2.206   1.616   2.646 -1.3133  2.1950  1.4890
   48MOL    C22 3876   2.017   1.577   2.384 -0.1799 -0.4412 -0.4888
   48MOL    O23 3877   1.897   1.577   2.450 -0.7119 -0.4524 -0.4736
   48MOL    H24 3878   2.023   1.509   2.299  1.7724 -0.0322 -0.6898
   48MOL    H25 3879   2.030   1.676   2.341  2.4879 -0.7155 -0.3780
   48MOL    C26 3880   1.842   1.456   2.438  0.2490 -0.2862 -0.5761
   48MOL    O27 3881   1.790   1.425   2.310 -0.4558 -0.3811 -0.2187
   48MOL    H28 3882   1.761   1.449   2.511 -1.3461 -1.6074 -2.4308
   48MOL    H29 3883   1.911   1.375   2.461 -0.3964 -0.7539 -0.2761
   48MOL    C30 3884   1.679   1.494   2.284  0.2999 -0.0693  0.2500
   48MOL    O31 3885   1.578   1.433   2.354  0.5311 -0.6219 -0.3414
   48MOL    H32 3886   1.662   1.506   2.177 -2.3134 -0.3070  0.5994
   48MOL    H33 3887   1.691   1.598   2.317 -0.0370 -0.4898  1.7695
   48MOL    C34 3888   1.531   1.311   2.300  0.2595 -0.5362  0.6048
   48MOL    O35 3889   1.449   1.333   2.184  0.0569  0.1300  0.4430
   48MOL    H36 3890   1.478   1.263   2.383  1.9419 -3.7062 -0.0727
   48MOL    H37 3891   1.614   1.251   2.264  1.0208  1.3870 -0.9392
   48MOL    C38 3892   1.329   1.395   2.216  0.4859  0.2842 -0.0838
   48MOL    O39 3893   1.226   1.319   2.165  0.2968 -0.7626  0.1562
   48MOL    H40 3894   1.332   1.497   2.180  0.5588  0.4208  0.3071
   48MOL    H41 3895   1.317   1.408   2.324  0.9578  1.5261 -0.1845
   48MOL    C42 3896   1.208   1.342   2.030 -0.3777 -0.2569 -0.0221
   48MOL    O43 3897   1.136   1.463   2.006  0.1780  0.2306 -0.6515
   48MOL    H44 3898   1.155   1.256   1.989 -0.3710 -1.1460  1.7804
   48MOL    H45 3899   1.301   1.359   1.976  1.3729  1.5921  3.4035
   48MOL    C46 3900   1.029   1.449   1.921  0.0724 -0.6340  0.2346
   48MOL    O47 3901   0.985   1.579   1.891  0.4613 -0.1565  0.2153
   48MOL    H48 3902   0.948   1.397   1.972  0.8565  0.3608  2.5321
   48MOL    H49 3903   1.055   1.414   1.821  0.5331  0.0142  0.1250
   48MOL    C50 3904   0.858   1.587   1.824 -0.0571  0.3285  0.1518
   48MOL    O51 3905   0.872   1.535   1.691 -0.1228 -0.5419 -0.5466
   48MOL    H52 3906   0.827   1.691   1.813  0.1856  0.5838  1.7927
   48MOL    H53 3907   0.773   1.544   1.876  2.1442 -1.6517  2.2233
   48MOL    C54 3908   0.763   1.561   1.616 -0.0310  0.7239 -0.2217
   48MOL    O55 3909   0.761   1.694   1.578 -0.4988 -0.0716 -0.3725
   48MOL    H56 3910   0.674   1.546   1.677  0.2832  0.8158  0.2554
   48MOL    H57 3911   0.763   1.491   1.532  0.6518 -0.7037  0.9412
   48MOL    C58 3912   0.855   1.723   1.479  0.1618  0.4913  0.1428
   48MOL    O59 3913   0.819   1.672   1.351 -0.3598 -0.3250  0.5600
   48MOL    H60 3914   0.955   1.702   1.519  0.4366  1.4984 -0.0090
   48MOL    H61 3915   0.846   1.831   1.466 -1.2383  0.3000 -0.5381
   48MOL    C62 3916   0.892   1.714   1.242 -0.0002 -0.0098 -0.8982
   48MOL    O63 3917   1.023   1.666   1.249  0.6723  0.1364  0.2104
   48MOL    H64 3918   0.891   1.823   1.240  2.4051  0.0582  0.1497
   48MOL    H65 3919   0.850   1.690   1.144 -1.9237  0.3535 -0.1911
   48MOL    C66 3920   1.036   1.535   1.202 -0.1577 -0.4301  0.0135
   48MOL    O67 3921   0.967   1.436   1.277 -0.3014  0.0379  0.3236
   48MOL    H68 3922   1.143   1.519   1.201  0.1778  1.6472 -0.3923
   48MOL    H69 3923   0.995   1.531   1.101 -2.2195  2.5359  0.6379
   48MOL    C70 3924   1.031   1.416   1.399 -0.2340 -0.3574  0.2318
   48MOL    O71 3925   1.146   1.338   1.385 -0.2263 -0.1679 -0.3114
   48MOL    H72 3926   0.958   1.363   1.461 -0.4093 -0.5928 -0.1754
   48MOL    H73 3927   1.052   1.515   1.438  0.2257 -0.8296  1.2156
   48MOL    C74 3928   1.213   1.289   1.502 -0.2273 -0.5200 -0.4110
   48MOL    O75 3929   1.143   1.188   1.562  0.0791  0.0563 -0.4573
   48MOL    H76 3930   1.225   1.375   1.567  0.4373 -0.0900 -1.0986
   48MOL    H77 3931   1.301   1.244   1.457 -0.9093 -2.2768 -0.0264
   48MOL    C78 3932   1.226   1.114   1.646  0.3398  0.3211  0.2697
   48MOL    O79 3933   1.164   1.022   1.725  0.4534 -0.1480  0.4360
   48MOL    H80 3934   1.279   1.173   1.721 -0.3855  1.8081 -0.3680
   48MOL    H81 3935   1.300   1.061   1.586 -0.9665 -1.0951 -0.1112
   48MOL    H82 3936   1.121   0.961   1.667 -0.9977  1.0172  0.2535
   49MOL     C1 3937   3.761   5.102   6.663 -0.5295  0.2310 -0.7455
   49MOL     O2 3938   3.666   5.185   6.723 -0.1332  0.0728 -0.2214
   49MOL     H3 3939   3.756   5.098   6.554 -0.9602  0.7585 -0.7440
   49MOL     H4 3940   3.864   5.137   6.677 -0.9105  0.3227  2.0358
   49MOL     H5 3941   3.756   4.998   6.695 -0.4992  0.4390 -0.0564
   49MOL     C6 3942   3.537   5.156   6.688 -0.1522 -0.9485 -0.2798
   49MOL     O7 3943   3.496   5.030   6.720 -0.1058  0.6254  0.1921
   49MOL     H8 3944   3.542   5.179   6.582 -0.1629  2.7863  0.4884
   49MOL     H9 3945   3.466   5.233   6.717 -0.6324 -0.9957 -1.2809
   49MOL    C10 3946   3.460   5.019   6.859 -0.1220 -0.4235 -0.4322
   49MOL    O11 3947   3.351   5.100   6.888  0.2511  0.0547 -0.4293
   49MOL    H12 3948   3.541   5.058   6.920 -0.1047 -0.8980 -0.1488
   49MOL    H13 3949   3.442   4.917   6.891  0.3156 -0.7187 -1.1421
   49MOL    C14 3950   3.231   5.046   6.854  0.1651 -0.2407 -0.3917
   49MOL    O15 3951   3.192   4.929   6.915 -0.2311  1.1152 -0.1126
   49MOL    H16 3952   3.230   5.018   6.749 -1.3344 -0.4761 -0.3252
   49MOL    H17 3953   3.163   5.128   6.875 -0.5526 -0.8804 -0.1709
   49MOL    C18 3954   3.198   4.931   7.056 -0.3856 -0.6622 -0.0915
   49MOL    O19 3955   3.077   4.973   7.116  0.2897 -0.0631  0.3053
   49MOL    H20 3956   3.277   4.989   7.103 -1.0771  1.8578 -1.9259
   49MOL    H21 3957   3.217   4.830   7.092 -3.3566 -1.5890 -0.9805
   49MOL    C22 3958   2.968   4.895   7.071  0.0060  0.3519  0.4181
   49MOL    O23 3959   2.962   4.765   7.122 -0.2390  0.1642 -0.5645
   49MOL    H24 3960   2.971   4.877   6.964 -1.3964 -0.8599  0.5674
   49MOL    H25 3961   2.874   4.947   7.089 -0.0937 -0.2045  1.5870
   49MOL    C26 3962   2.952   4.769   7.264  0.0048  0.0170 -0.1449
   49MOL    O27 3963   2.985   4.639   7.320 -0.1252 -0.2258  0.1778
   49MOL    H28 3964   2.851   4.788   7.300  0.1960 -1.8109  1.4464
   49MOL    H29 3965   3.017   4.839   7.316  1.0611 -0.3087 -1.0015
   49MOL    C30 3966   3.118   4.600   7.298  0.3178  0.1824  0.3951
   49MOL    O31 3967   3.193   4.625   7.413  0.3298 -0.2596 -0.3342
   49MOL    H32 3968   3.153   4.661   7.214  0.7234 -0.2370  0.2634
   49MOL    H33 3969   3.122   4.492   7.286  1.3467  0.7159 -5.8453
   49MOL    C34 3970   3.130   4.580   7.521 -0.8347 -0.5470 -0.4393
   49MOL    O35 3971   3.220   4.582   7.622  0.1023 -0.2102  0.2787
   49MOL    H36 3972   3.083   4.484   7.501 -0.0018 -0.6892 -1.7407
   49MOL    H37 3973   3.055   4.654   7.549 -1.0646 -1.8781  2.7560
   49MOL    C38 3974   3.160   4.589   7.751  0.3251  0.8505 -0.3763
   49MOL    O39 3975   3.102   4.462   7.774 -0.4903  0.0431  0.6415
   49MOL    H40 3976   3.092   4.674   7.758 -1.2786 -0.5970  2.2315
   49MOL    H41 3977   3.237   4.602   0.043  0.3924  1.2831 -0.5178
   49MOL    C42 3978   3.190   4.372   0.051 -0.2385 -0.3469 -0.5292
   49MOL    O43 3979   3.211   4.405   0.185 -0.3867 -0.5180  0.1101
   49MOL    H44 3980   3.283   4.377   7.778 -0.0641 -1.5368 -0.3586
   49MOL    H45 3981   3.159   4.268   0.048  4.1627 -1.9183  3.1001
   49MOL    C46 3982   3.096   4.384   0.265  0.2740 -0.4579  0.5537
   49MOL    O47 3983   3.090   4.248   0.304 -0.5154 -0.6924  0.8105
   49MOL    H48 3984   3.009   4.416   0.209  1.9773  1.7097 -0.9397
   49MOL    H49 3985   3.102   4.450   0.351 -2.0379 -1.5152  1.5587
   49MOL    C50 3986   3.187   4.219   0.405 -0.2063  0.0001  0.2719
   49MOL    O51 3987   3.167   4.088   0.447  0.4734  0.0149  0.0572
   49MOL    H52 3988   3.169   4.276   0.496  0.4215 -0.8188  0.9212
   49MOL    H53 3989   3.290   4.231   0.370  0.5707 -0.0698  2.4636
   49MOL    C54 3990   3.196   3.993   0.351 -0.2887  0.1367 -0.2799
   49MOL    O55 3991   3.321   3.945   0.360  0.2861  0.0776 -0.0178
   49MOL    H56 3992   3.180   4.026   0.249  1.0989  1.1748 -0.1757
   49MOL    H57 3993   3.129   3.909   0.369  1.8220 -1.1670  1.8733
   49MOL    C58 3994   3.335   3.829   0.285  0.5598  0.0910  0.4484
   49MOL    O59 3995   3.285   3.723   0.361 -0.3988  0.0727  0.3110
   49MOL    H60 3996   3.442   3.816   0.265  0.4382  0.1671 -0.2638
   49MOL    H61 3997   3.288   3.838   0.187  0.2352  1.5478  0.7279
   49MOL    C62 3998   3.368   3.684   0.463  0.1984 -0.7610 -0.3318
   49MOL    O63 3999   3.482   3.625   0.414 -0.1978  0.1299  0.2223
   49MOL    H64 4000   3.310   3.612   0.521  1.6922 -1.1186  0.7633
   49MOL    H65 4001   3.394   3.773   0.520  0.3888 -0.0775 -1.4600
   49MOL    C66 4002   3.465   3.498   0.368  0.2342 -0.2367 -0.7408
   49MOL    O67 4003   3.423   3.416   0.475 -0.2206 -0.2697  0.6831
   49MOL    H68 4004   3.553   3.458   0.317  0.0792  2.7490 -3.5079
   49MOL    H69 4005   3.382   3.503   0.297 -1.1618 -2.2618  0.6844
   49MOL    C70 4006   3.522   3.382   0.562  0.5331 -0.0890  0.0845
   49MOL    O71 4007   3.471   3.312   0.672 -0.0849 -0.2384 -0.4263
   49MOL    H72 4008   3.588   3.467   0.583 -0.6789  1.5071 -2.2890
   49MOL    H73 4009   3.595   3.310   0.527 -0.8499 -1.3006 -0.3279
   49MOL    C74 4010   3.420   3.399   0.766 -0.2821 -0.3083  0.2663
   49MOL    O75 4011   3.526   3.451   0.842  0.4641 -0.0684  0.4582
   49MOL    H76 4012   3.345   3.349   0.826 -0.1114 -1.1774 -0.2278
   49MOL    H77 4013   3.363   3.478   0.718  0.2588 -0.8637 -1.3679
   49MOL    C78 4014   3.597   3.344   0.904 -0.3807  0.8579 -0.4794
   49MOL    O79 4015   3.703   3.396   0.985 -0.1743  0.2561  0.4107
   49MOL    H80 4016   3.635   3.273   0.831  2.9121  1.8502  0.1743
   49MOL    H81 4017   3.529   3.293   0.972  2.0218 -0.1352  1.2678
   49MOL    H82 4018   3.771   3.438   0.935  1.7128 -0.7352  2.0653
   50MOL     C1 4019   2.386   2.822   7.547 -0.0600  0.7708 -1.1515
   50MOL     O2 4020   2.518   2.758   7.556 -0.1515 -0.4017 -0.0220
   50MOL     H3 4021   2.346   2.844   7.646 -0.8553  1.2644 -1.5852
   50MOL     H4 4022   2.396   2.918   7.496 -0.5936  2.6898  2.1579
   50MOL     H5 4023   2.320   2.760   7.487  0.5042  0.0647 -1.0526
   50MOL     C6 4024   2.520   2.635   7.612  0.0649  0.4793  0.3209
   50MOL     O7 4025   2.461   2.537   7.528  0.7394 -0.5198 -0.2885
   50MOL     H8 4026   2.484   2.636   7.715  2.1504  0.4857  1.0818
   50MOL     H9 4027   2.626   2.609   7.615  0.0925 -0.3487 -4.4379
   50MOL    C10 4028   2.547   2.518   7.418  0.7278 -0.2163  0.6092
   50MOL    O11 4029   2.493   2.442   7.319  0.5864 -0.7518 -0.4853
   50MOL    H12 4030   2.639   2.469   7.451  0.2718 -2.7097 -1.5965
   50MOL    H13 4031   2.576   2.609   7.366  1.0966 -0.5167  0.2842
   50MOL    C14 4032   2.415   2.511   7.235  0.2268 -0.7930 -0.4744
   50MOL    O15 4033   2.483   2.599   7.152 -0.3011 -0.7312  0.2402
   50MOL    H16 4034   2.346   2.578   7.286  0.8947 -1.1013  0.8434
   50MOL    H17 4035   2.359   2.433   7.183 -0.7956  0.5497 -1.4509
   50MOL    C18 4036   2.503   2.551   7.026  0.8268 -0.0463  0.6748
   50MOL    O19 4037   2.383   2.547   6.953 -0.4248  0.3612  0.1028
   50MOL    H20 4038   2.549   2.452   7.030  0.3002 -0.4265 -1.9343
   50MOL    H21 4039   2.569   2.624   6.980 -1.0361  1.2720  0.0690
   50MOL    C22 4040   2.345   2.671   6.911  0.1542 -0.0016  0.6221
   50MOL    O23 4041   2.231   2.665   6.835  0.2386  0.2074  0.4884
   50MOL    H24 4042   2.421   2.722   6.852  0.1741  1.0761  1.5637
   50MOL    H25 4043   2.317   2.730   6.998 -0.2578 -0.3255  0.7136
   50MOL    C26 4044   2.247   2.615   6.708  0.4973 -0.1215 -0.0105
   50MOL    O27 4045   2.316   2.710   6.630 -0.0961 -0.9913  0.4981
   50MOL    H28 4046   2.151   2.592   6.662  1.8274 -6.5323  0.0658
   50MOL    H29 4047   2.304   2.523   6.705 -0.1389 -0.5209  0.1492
   50MOL    C30 4048   2.236   2.788   6.551 -0.5272 -0.8343 -0.0524
   50MOL    O31 4049   2.194   2.702   6.454  0.0262 -0.5888  0.0775
   50MOL    H32 4050   2.300   2.866   6.510 -0.6045 -0.3226  0.7934
   50MOL    H33 4051   2.157   2.824   6.616 -0.4467 -0.1122 -0.3523
   50MOL    C34 4052   2.177   2.764   6.327  0.3823 -0.5390 -0.3140
   50MOL    O35 4053   2.091   2.875   6.338  0.2539  0.2585 -0.0310
   50MOL    H36 4054   2.150   2.689   6.253 -0.2289 -2.0915  1.4439
   50MOL    H37 4055   2.268   2.816   6.296 -0.4246 -1.1884 -3.9625
   50MOL    C38 4056   1.959   2.840   6.352  0.8441 -0.2128  0.1090
   50MOL    O39 4057   1.897   2.767   6.255 -0.3588 -0.3215 -0.0280
   50MOL    H40 4058   1.907   2.934   6.370  1.0018 -0.0499 -0.2725
   50MOL    H41 4059   1.949   2.801   6.453 -0.1883  0.9822  0.4709
   50MOL    C42 4060   1.774   2.719   6.293  0.1726 -1.2458  0.0204
   50MOL    O43 4061   1.770   2.608   6.378 -0.3491 -0.0045  0.0399
   50MOL    H44 4062   1.729   2.691   6.198 -0.1203 -2.3726  0.4909
   50MOL    H45 4063   1.716   2.805   6.325  0.4364 -0.5806 -1.2304
   50MOL    C46 4064   1.826   2.497   6.319  0.0732 -0.6021  1.0141
   50MOL    O47 4065   1.726   2.453   6.225  0.2603  0.3195 -0.0928
   50MOL    H48 4066   1.843   2.420   6.393  0.3727  0.0408  1.6166
   50MOL    H49 4067   1.921   2.513   6.268 -0.3776 -0.4326  0.2051
   50MOL    C50 4068   1.774   2.344   6.147  0.6036 -0.4363 -0.4177
   50MOL    O51 4069   1.901   2.375   6.088  0.0591 -0.6073  0.2414
   50MOL    H52 4070   1.702   2.312   6.072  2.7099 -3.4646 -1.2012
   50MOL    H53 4071   1.786   2.262   6.218 -1.2518 -1.6328 -1.4669
   50MOL    C54 4072   1.883   2.473   5.997  0.4931 -0.4266  0.1824
   50MOL    O55 4073   1.821   2.423   5.884 -0.7212  0.3398  0.0783
   50MOL    H56 4074   1.986   2.506   5.985  0.4516 -0.2858  0.2102
   50MOL    H57 4075   1.815   2.551   6.031  0.1877 -0.4635 -0.3450
   50MOL    C58 4076   1.850   2.488   5.767  0.2252  0.4617  0.5903
   50MOL    O59 4077   1.986   2.473   5.732  0.5309 -0.1020 -0.8271
   50MOL    H60 4078   1.832   2.595   5.776 -0.5377  0.0688  5.0781
   50MOL    H61 4079   1.784   2.451   5.688  1.4758  0.8010 -0.6239
   50MOL    C62 4080   2.004   2.360   5.644 -0.0727  0.4119 -0.2318
   50MOL    O63 4081   1.993   2.408   5.509 -0.2134 -0.1449  0.1926
   50MOL    H64 4082   1.942   2.273   5.668 -1.8028  1.3410 -1.1793
   50MOL    H65 4083   2.104   2.320   5.660  0.1257  0.9316 -0.1768
   50MOL    C66 4084   2.100   2.487   5.477  0.3944 -0.5622  0.8135
   50MOL    O67 4085   2.080   2.567   5.365  0.2643 -0.3932 -0.2799
   50MOL    H68 4086   2.184   2.425   5.446 -0.0558 -0.6092 -0.3472
   50MOL    H69 4087   2.137   2.547   5.560  1.7267  0.7898 -0.7322
   50MOL    C70 4088   2.021   2.698   5.405 -0.2776  0.0771  0.6803
   50MOL    O71 4089   2.104   2.776   5.490 -0.4021  0.1106 -0.1617
   50MOL    H72 4090   1.924   2.680   5.452 -1.2618  1.3009 -0.8227
   50MOL    H73 4091   2.005   2.760   5.316  1.2024 -1.1544 -0.4680
   50MOL    C74 4092   2.235   2.775   5.440  0.1554 -0.6077 -0.0298
   50MOL    O75 4093   2.308   2.852   5.530  0.6037 -0.0197  0.1681
   50MOL    H76 4094   2.241   2.811   5.338  0.1572  0.4027  0.3283
   50MOL    H77 4095   2.286   2.679   5.434  0.1804 -0.6490  0.7910
   50MOL    C78 4096   2.306   2.988   5.507 -0.1206 -0.4167 -0.1098
   50MOL    O79 4097   2.412   3.050   5.574  0.5299  0.1656 -0.2864
   50MOL    H80 4098   2.207   3.024   5.534 -0.3218 -1.9835  1.3903
   50MOL    H81 4099   2.325   3.004   5.401 -5.0270 -0.8879 -1.1879
   50MOL    H82 4100   2.494   3.032   5.532  2.0682 -0.9897  2.9971
   51MOL     C1 4101   4.299   7.299   5.516  0.2715  0.0800  0.2088
   51MOL     O2 4102   4.433   7.265   5.564 -0.5729  0.0639  0.3606
   51MOL     H3 4103   4.239   7.215   5.484  0.5281  0.0779 -0.2754
   51MOL     H4 4104   4.239   7.341   5.597  2.0151  0.2470  1.4654
   51MOL     H5 4105   4.300   7.382   5.446  1.9253  0.9466  1.2049
   51MOL     C6 4106   4.496   7.360   5.642  0.6195  0.8248  0.1368
   51MOL     O7 4107   4.422   7.370   5.760 -0.3155 -0.0159  0.0145
   51MOL     H8 4108   4.503   7.457   5.593  3.2688  0.3690 -0.4176
   51MOL     H9 4109   4.602   7.344   5.657  0.4519 -0.3500  0.1416
   51MOL    C10 4110   4.434   7.263   5.850 -0.3719  0.4018  0.1210
   51MOL    O11 4111   4.527   7.290   5.948 -0.0299 -0.4279 -0.9203
   51MOL    H12 4112   4.475   7.174   5.802 -1.3608  0.6850 -1.2811
   51MOL    H13 4113   4.333   7.244   5.886 -1.4121  0.8147 -2.4577
   51MOL    C14 4114   4.477   7.393   6.028 -0.2211 -0.3652 -0.0051
   51MOL    O15 4115   4.411   7.337   6.142  0.2459 -0.5136  0.2880
   51MOL    H16 4116   4.399   7.452   5.979 -0.2029  0.4694  0.9653
   51MOL    H17 4117   4.553   7.468   6.049  1.2666 -2.1857  1.3425
   51MOL    C18 4118   4.500   7.282   6.233  0.3396 -0.3447  0.4566
   51MOL    O19 4119   4.443   7.271   6.360  0.0177 -0.2005  0.0268
   51MOL    H20 4120   4.594   7.336   6.225 -0.7054  1.4192 -0.2336
   51MOL    H21 4121   4.531   7.185   6.193 -0.4717 -0.3584 -0.1653
   51MOL    C22 4122   4.436   7.399   6.411  0.3768 -0.1678 -0.7482
   51MOL    O23 4123   4.562   7.448   6.460  0.2408  0.0056  0.2687
   51MOL    H24 4124   4.367   7.395   6.496  1.6722  0.3866  0.3441
   51MOL    H25 4125   4.385   7.467   6.343 -2.3735 -2.3694 -0.9835
   51MOL    C26 4126   4.607   7.371   6.568 -0.0348  0.5318  0.7059
   51MOL    O27 4127   4.521   7.385   6.676 -0.2110  0.2670  0.5247
   51MOL    H28 4128   4.703   7.411   6.601  0.3146  0.5655 -0.3382
   51MOL    H29 4129   4.620   7.265   6.546  1.8619  1.2781 -1.9649
   51MOL    C30 4130   4.532   7.509   6.737  0.3958  0.8239  0.3724
   51MOL    O31 4131   4.445   7.525   6.850  0.0537  0.4542  0.7425
   51MOL    H32 4132   4.518   7.582   6.658  0.8446  1.7177  1.1182
   51MOL    H33 4133   4.636   7.515   6.769  1.1058  0.1342 -1.7208
   51MOL    C34 4134   4.313   7.523   6.806  0.1079 -0.5791  0.9088
   51MOL    O35 4135   4.287   7.616   6.716  0.9760 -0.6983 -0.1588
   51MOL    H36 4136   4.247   7.543   6.891  0.2072  0.9844  0.6265
   51MOL    H37 4137   4.288   7.427   6.760 -1.8522  0.6758 -0.7232
   51MOL    C38 4138   4.304   7.743   6.765  0.7310 -0.5077  0.2724
   51MOL    O39 4139   4.206   0.002   6.853 -0.4218  0.3353  0.0587
   51MOL    H40 4140   4.306   0.023   6.677 -2.2927  0.6113  0.9679
   51MOL    H41 4141   4.395   7.753   6.824  0.6417 -2.5055  0.7965
   51MOL    C42 4142   4.076   7.781   6.798  0.0982 -0.3743  0.5883
   51MOL    O43 4143   4.048   0.074   6.686  0.3932  0.4334  0.3041
   51MOL    H44 4144   4.015   0.034   6.880 -0.8047 -1.2026  0.3023
   51MOL    H45 4145   4.050   7.676   6.782 -0.0734 -0.1426 -0.7567
   51MOL    C46 4146   3.968   0.181   6.709 -0.6507 -0.2298 -0.4505
   51MOL    O47 4147   3.848   0.144   6.770  0.2577 -0.4987  0.1403
   51MOL    H48 4148   3.940   0.220   6.611 -0.5976 -2.5905 -1.4457
   51MOL    H49 4149   4.020   0.248   6.777 -1.3090  1.4710 -1.5612
   51MOL    C50 4150   3.763   0.255   6.785  0.5700 -0.1269  0.0655
   51MOL    O51 4151   3.830   0.354   6.853 -0.6578 -0.0603 -0.5062
   51MOL    H52 4152   3.681   0.227   6.850 -1.1874 -0.3307 -2.1699
   51MOL    H53 4153   3.721   0.291   6.691 -2.3378 -0.9070  1.0218
   51MOL    C54 4154   3.775   0.480   6.853 -0.4606  0.0383  0.6303
   51MOL    O55 4155   3.784   0.537   6.727  0.9964 -0.4253  0.3275
   51MOL    H56 4156   3.819   0.537   6.935 -0.7516 -0.3580  1.0632
   51MOL    H57 4157   3.668   0.470   6.868 -0.0418 -2.8261  1.8884
   51MOL    C58 4158   3.901   0.619   6.714  0.8963  0.3195  0.0135
   51MOL    O59 4159   3.883   0.745   6.782 -0.2493  0.2610  0.1228
   51MOL    H60 4160   3.913   0.650   6.610  0.4572 -0.2805 -0.2183
   51MOL    H61 4161   3.988   0.571   6.759  1.4822  3.6503  2.6360
   51MOL    C62 4162   3.935   0.863   6.716  0.6819  0.4498  0.4764
   51MOL    O63 4163   4.076   0.866   6.722  0.3303 -0.7451 -0.7639
   51MOL    H64 4164   3.891   0.957   6.746  0.2625  0.6862 -0.8308
   51MOL    H65 4165   3.908   0.857   6.610  0.0381  0.3616  0.6447
   51MOL    C66 4166   4.123   0.894   6.848  0.1370  0.0762  0.1358
   51MOL    O67 4167   4.260   0.888   6.838 -0.0183 -0.4628 -0.1887
   51MOL    H68 4168   4.089   0.825   6.924 -0.3045  1.0507  0.8433
   51MOL    H69 4169   4.081   0.986   6.888 -1.3888 -0.8618  0.7237
   51MOL    C70 4170   4.320   0.754   6.838  0.0644 -0.5391  0.4271
   51MOL    O71 4171   4.304   0.679   6.956 -0.0658 -0.1486  0.4629
   51MOL    H72 4172   4.427   0.774   6.838  0.1935 -0.9823  3.4316
   51MOL    H73 4173   4.291   0.700   6.748 -1.8073  1.4573 -0.2392
   51MOL    C74 4174   4.332   0.744   7.076 -0.2798  0.2092  0.5729
   51MOL    O75 4175   4.373   0.650   7.169 -0.1460 -0.1231 -0.4712
   51MOL    H76 4176   4.251   0.804   7.117  0.6866  1.1603  1.1096
   51MOL    H77 4177   4.418   0.811   7.069  0.4619 -0.6943  0.8730
   51MOL    C78 4178   4.499   0.589   7.149  0.0972 -0.1477 -0.3781
   51MOL    O79 4179   4.585   0.616   7.257  1.1348  0.5440  0.3403
   51MOL    H80 4180   4.544   0.622   7.056  1.9542 -1.2404  0.1106
   51MOL    H81 4181   4.495   0.480   7.148  1.8720 -0.2860  1.9853
   51MOL    H82 4182   4.542   0.587   7.336 -0.6382  1.2443 -0.3198
   52MOL     C1 4183   6.121   2.912   3.959 -0.3968 -0.5205  0.1421
   52MOL     O2 4184   6.252   2.856   3.986 -0.5339 -0.1377 -0.2985
   52MOL     H3 4185   6.108   2.999   3.895  0.0525 -1.3845 -1.1435
   52MOL     H4 4186   6.070   2.823   3.922  0.5312 -2.1751  2.6559
   52MOL     H5 4187   6.070   2.935   4.053 -1.0259 -1.5414  0.0572
   52MOL     C6 4188   6.327   2.922   4.081 -0.3902 -0.1174  0.7690
   52MOL     O7 4189   6.265   2.961   4.195  0.2077 -0.6281  0.2759
   52MOL     H8 4190   6.367   3.012   4.035  0.2767 -0.4422  0.7045
   52MOL     H9 4191   6.409   2.853   4.100  0.6376  0.8665 -0.0209
   52MOL    C10 4192   6.240   2.862   4.282 -0.0431  0.6629  0.1177
   52MOL    O11 4193   6.355   2.835   4.351  0.2156  0.8691  0.0694
   52MOL    H12 4194   6.192   2.774   4.239  0.6690  0.5692 -0.5096
   52MOL    H13 4195   6.157   2.888   4.348 -0.3843 -1.4850  0.5891
   52MOL    C14 4196   6.404   2.942   4.429  0.1511  0.2095 -0.4980
   52MOL    O15 4197   6.479   2.879   4.533 -0.0943  0.2678  0.1087
   52MOL    H16 4198   6.322   3.001   4.471  0.2373 -0.6921  0.9800
   52MOL    H17 4199   6.465   3.003   4.363  2.6115 -2.5714 -0.9030
   52MOL    C18 4200   6.605   2.836   4.494  0.0886  0.1637 -0.4860
   52MOL    O19 4201   6.690   2.948   4.482 -1.4337  0.1724 -0.0276
   52MOL    H20 4202   6.585   2.780   4.403 -1.3898  0.9642 -0.6756
   52MOL    H21 4203   6.639   2.767   4.570 -1.4446  0.4064  0.4452
   52MOL    C22 4204   6.753   2.986   4.606  0.1008 -0.1511 -0.4778
   52MOL    O23 4205   6.864   2.902   4.634 -0.0320 -0.4460  0.4750
   52MOL    H24 4206   6.673   2.984   4.680 -1.0880 -0.8086 -1.7565
   52MOL    H25 4207   6.783   3.090   4.597 -1.4069  0.3560  0.1063
   52MOL    C26 4208   6.962   2.931   4.537 -0.4423 -0.8028 -0.3214
   52MOL    O27 4209   7.084   2.891   4.581 -0.0609 -0.1734 -0.1632
   52MOL    H28 4210   6.985   3.033   4.508 -1.7446 -0.3306  0.2569
   52MOL    H29 4211   6.942   2.884   4.441 -3.4497 -0.1983 -0.0483
   52MOL    C30 4212   7.093   2.755   4.599 -0.5509 -0.2917 -0.4066
   52MOL    O31 4213   7.073   2.689   4.477 -0.4931  0.8717 -0.1973
   52MOL    H32 4214   7.015   2.718   4.665 -1.1379  0.6344 -0.5708
   52MOL    H33 4215   7.187   2.730   4.648 -1.5736  2.6982  3.3346
   52MOL    C34 4216   7.187   2.683   4.405 -0.2544 -1.0254  0.3652
   52MOL    O35 4217   7.288   2.607   4.464 -0.0293 -0.5918 -0.7318
   52MOL    H36 4218   7.228   2.782   4.383 -0.4648 -1.2859 -1.2774
   52MOL    H37 4219   7.147   2.638   4.314 -1.8386  0.7705  0.1103
   52MOL    C38 4220   7.412   2.667   4.466  0.2429  0.2775  0.4834
   52MOL    O39 4221   7.494   2.585   4.545 -0.1643 -0.0144 -0.4852
   52MOL    H40 4222   7.396   2.760   4.519 -0.6798 -0.4345  1.4591
   52MOL    H41 4223   7.458   2.685   4.368 -0.6986 -0.9291 -0.2027
   52MOL    C42 4224   7.554   2.482   4.475  0.0512  0.8839  0.1604
   52MOL    O43 4225   7.662   2.529   4.399  0.2479  0.4677  0.5377
   52MOL    H44 4226   7.488   2.437   4.401 -1.2302  1.6267  0.8330
   52MOL    H45 4227   7.579   2.402   4.544 -3.9739 -1.3978 -0.8464
   52MOL    C46 4228   0.004   2.530   4.463 -0.0426  0.2474 -0.1027
   52MOL    O47 4229   0.095   2.569   4.369 -0.2499 -0.1249 -0.7187
   52MOL    H48 4230   0.028   2.436   4.511  0.9237 -0.0522 -1.1682
   52MOL    H49 4231   7.781   2.604   4.544 -2.0205 -0.4695  0.4161
   52MOL    C50 4232   0.115   2.475   4.269  0.0867 -0.3130 -0.0457
   52MOL    O51 4233   0.189   2.366   4.306  0.1827 -0.4495 -0.6843
   52MOL    H52 4234   0.170   2.522   4.188 -1.3174  0.1473 -0.7401
   52MOL    H53 4235   0.024   2.429   4.231  0.9307 -2.1572  0.0767
   52MOL    C54 4236   0.308   2.393   4.365 -0.5582  0.0205  0.0691
   52MOL    O55 4237   0.367   2.278   4.403 -0.5789 -0.0113  0.3753
   52MOL    H56 4238   0.290   2.449   4.457 -0.4609  0.4521 -0.1707
   52MOL    H57 4239   0.371   2.445   4.292  1.7049  1.2224  2.7933
   52MOL    C58 4240   0.450   2.230   4.307  0.0915 -0.1462 -0.5404
   52MOL    O59 4241   0.585   2.270   4.331 -0.3349  0.2370 -0.1294
   52MOL    H60 4242   0.426   2.250   4.202 -1.6643  1.4912  0.1489
   52MOL    H61 4243   0.439   2.122   4.323  1.0050 -0.5042 -2.1899
   52MOL    C62 4244   0.634   2.252   4.460  0.3285  0.7206 -0.4035
   52MOL    O63 4245   0.744   2.343   4.482  0.3904  0.3315  0.0722
   52MOL    H64 4246   0.678   2.153   4.475 -2.4768 -0.1226  2.7642
   52MOL    H65 4247   0.557   2.269   4.535  1.3206  0.3178  0.7216
   52MOL    C66 4248   0.704   2.481   4.480  0.4690 -0.3914  0.0268
   52MOL    O67 4249   0.809   2.570   4.487  0.7090  0.7349  0.2829
   52MOL    H68 4250   0.652   2.498   4.574 -0.0966 -0.1838 -0.3184
   52MOL    H69 4251   0.629   2.507   4.405  1.8817 -2.2248 -2.1092
   52MOL    C70 4252   0.877   2.567   4.369 -1.0226 -0.5479 -0.1937
   52MOL    O71 4253   0.841   2.659   4.279  0.0628  0.1190  0.7853
   52MOL    H72 4254   0.868   2.473   4.315  0.9632  0.0737 -1.7131
   52MOL    H73 4255   0.982   2.588   4.393 -1.8216  1.5507  1.5635
   52MOL    C74 4256   0.857   2.792   4.322  0.3066  1.0891  0.4986
   52MOL    O75 4257   0.850   2.878   4.211 -0.2220 -0.1638 -0.2214
   52MOL    H76 4258   0.962   2.799   4.350  0.0292  2.0365  1.3189
   52MOL    H77 4259   0.800   2.814   4.412  0.5333 -0.8782  1.1481
   52MOL    C78 4260   0.939   2.828   4.111 -0.0954 -0.2089 -0.0217
   52MOL    O79 4261   0.966   2.925   4.012  0.2392 -0.6672  0.2141
   52MOL    H80 4262   0.896   2.740   4.065 -2.5332 -0.7354  3.1193
   52MOL    H81 4263   1.030   2.794   4.160  0.1486  0.5342  0.0534
   52MOL    H82 4264   0.891   2.920   3.955  0.2963  0.4530  0.0306
   53MOL     C1 4265   0.107   1.269   1.006 -0.1940 -0.5473 -0.3795
   53MOL     O2 4266   0.028   1.257   0.885 -0.4427  0.2128  0.0393
   53MOL     H3 4267   0.043   1.299   1.089  0.0803  2.5325 -1.2395
   53MOL     H4 4268   0.170   1.182   1.027  3.0403  1.1973 -2.4033
   53MOL     H5 4269   0.177   1.348   0.979 -0.4705 -0.8714 -2.1350
   53MOL     C6 4270   7.743   1.365   0.836 -0.7940  0.0658  0.0056
   53MOL     O7 4271   0.049   1.471   0.832  0.4438  1.0328  0.5834
   53MOL     H8 4272   7.667   1.395   0.908 -1.9618  0.5121 -1.3927
   53MOL     H9 4273   7.705   1.349   0.735 -2.1230 -0.8853  0.6323
   53MOL    C10 4274   0.125   1.463   0.718  0.1563  0.0167  0.3573
   53MOL    O11 4275   0.053   1.518   0.606 -0.1437  0.1421 -0.0833
   53MOL    H12 4276   0.159   1.363   0.693 -0.7630 -0.1780 -0.1345
   53MOL    H13 4277   0.208   1.533   0.723 -1.3851  1.9064  0.3884
   53MOL    C14 4278   0.121   1.520   0.482  0.3844  0.0338  0.5836
   53MOL    O15 4279   0.151   1.383   0.451  0.2294 -0.0246  0.0441
   53MOL    H16 4280   0.204   1.588   0.498  0.7046 -0.2938  0.3152
   53MOL    H17 4281   0.060   1.557   0.400  2.0097  2.6364  0.5007
   53MOL    C18 4282   0.053   1.301   0.399 -0.1326  0.4014  0.2423
   53MOL    O19 4283   0.012   1.343   0.268  0.2765 -0.0636 -0.6461
   53MOL    H20 4284   7.749   1.306   0.463  0.1428 -1.5157  0.8187
   53MOL    H21 4285   0.075   1.194   0.394  0.5878  0.6220 -1.7691
   53MOL    C22 4286   0.101   1.330   0.163  0.1920 -0.3594  0.5056
   53MOL    O23 4287   0.040   1.356   0.043  0.0055 -0.5982  0.0978
   53MOL    H24 4288   0.143   1.229   0.174  1.7640  0.3258  0.9834
   53MOL    H25 4289   0.175   1.408   0.179  0.7796 -0.8918  0.3987
   53MOL    C26 4290   7.724   1.261   0.015 -0.0015  0.1709  0.1077
   53MOL    O27 4291   7.662   1.296   7.684  0.4935 -0.3556  0.5860
   53MOL    H28 4292   7.647   1.250   0.092 -0.6402  0.8048 -0.4382
   53MOL    H29 4293   7.758   1.160   7.781 -0.6297 -0.2809  1.3950
   53MOL    C30 4294   7.554   1.384   7.706 -1.0418  0.1087  0.0782
   53MOL    O31 4295   7.440   1.313   7.737 -0.8673  0.2541 -0.1811
   53MOL    H32 4296   7.546   1.444   7.615  0.4843 -1.4004 -1.0734
   53MOL    H33 4297   7.584   1.457   7.781  1.7268 -1.9576  1.0395
   53MOL    C34 4298   7.335   1.327   7.643  0.3406  0.5411 -0.6134
   53MOL    O35 4299   7.370   1.254   7.531 -1.0857 -0.3236 -0.1047
   53MOL    H36 4300   7.337   1.432   7.614 -1.6786  0.4101 -1.2706
   53MOL    H37 4301   7.236   1.312   7.685  0.5225  0.8437 -0.0698
   53MOL    C38 4302   7.298   1.135   7.520 -0.5881  0.1913 -0.0957
   53MOL    O39 4303   7.344   1.072   7.408  0.6997 -0.4245  0.0498
   53MOL    H40 4304   7.193   1.159   7.504 -0.1448  2.7257  0.5124
   53MOL    H41 4305   7.315   1.075   7.610  0.9195  1.3081  0.3815
   53MOL    C42 4306   7.446   0.984   7.436  0.4470 -0.9468 -0.1585
   53MOL    O43 4307   7.402   0.866   7.495  0.3129  0.1943 -0.3559
   53MOL    H44 4308   7.523   1.041   7.489  0.2592 -1.6526  0.8812
   53MOL    H45 4309   7.512   0.959   7.353 -0.0234 -0.0550 -0.8034
   53MOL    C46 4310   7.333   0.790   7.408  0.7860 -0.1546  0.0483
   53MOL    O47 4311   7.423   0.728   7.319 -0.2294 -0.2405 -0.1339
   53MOL    H48 4312   7.261   0.843   7.347 -1.6584 -1.3807  1.7939
   53MOL    H49 4313   7.276   0.717   7.465  0.4496 -0.4785 -0.6941
   53MOL    C50 4314   7.475   0.614   7.378  0.5474 -0.3703  0.1292
   53MOL    O51 4315   7.580   0.571   7.296  0.2392 -0.0784  0.0106
   53MOL    H52 4316   7.399   0.537   7.392  0.4131 -0.2414  0.1046
   53MOL    H53 4317   7.507   0.632   7.481  1.3334 -1.3531  0.0739
   53MOL    C54 4318   7.698   0.649   7.328  1.1686  0.2792  0.7902
   53MOL    O55 4319   7.753   0.612   7.459 -0.6684 -0.4523 -0.3984
   53MOL    H56 4320   7.674   0.755   7.330  3.6264  0.9147 -0.8912
   53MOL    H57 4321   7.771   0.637   7.248 -1.5548  1.6243 -2.0079
   53MOL    C58 4322   0.024   0.486   7.461  0.8085 -0.3998 -0.5593
   53MOL    O59 4323   7.714   0.391   7.430 -0.2975  0.1328  0.4415
   53MOL    H60 4324   0.076   0.471   7.556 -0.0427 -2.2748 -0.3661
   53MOL    H61 4325   0.094   0.494   7.377 -1.7687  2.9147 -2.5170
   53MOL    C62 4326   7.627   0.367   7.534  0.0233 -0.4011  0.0372
   53MOL    O63 4327   7.692   0.300   7.635 -0.0654  0.5878  0.4153
   53MOL    H64 4328   7.541   0.309   7.498 -0.9199  1.2095 -0.3689
   53MOL    H65 4329   7.571   0.451   7.574 -2.0372 -0.1363 -3.2606
   53MOL    C66 4330   7.728   0.170   7.604 -0.4983  0.3774  0.6296
   53MOL    O67 4331   7.698   0.081   7.708  0.1199  0.1952  0.3806
   53MOL    H68 4332   0.053   0.172   7.608 -0.4705 -0.4278  0.3473
   53MOL    H69 4333   7.683   0.126   7.515  2.9834 -0.6397 -0.7260
   53MOL    C70 4334   7.564   0.051   7.726  0.2417 -0.2247  0.0004
   53MOL    O71 4335   7.532   7.743   7.628  0.3059 -0.2365 -0.1001
   53MOL    H72 4336   7.506   0.142   7.711 -1.0044 -1.4523 -2.9755
   53MOL    H73 4337   7.548   0.006   0.040  1.1749  1.6493  1.0518
   53MOL    C74 4338   7.578   7.608   7.654  0.2157 -0.5038 -0.6846
   53MOL    O75 4339   7.487   7.527   7.729  0.3628  0.3928 -0.3759
   53MOL    H76 4340   7.677   7.610   7.700  0.4389  0.0859 -1.1784
   53MOL    H77 4341   7.598   7.556   7.561  0.1079  0.0681 -1.0305
   53MOL    C78 4342   7.363   7.513   7.670 -0.4305 -0.3787  0.8860
   53MOL    O79 4343   7.274   7.431   7.735 -0.4465  0.1953  0.0118
   53MOL    H80 4344   7.382   7.474   7.570  0.2166 -0.7674  1.1586
   53MOL    H81 4345   7.314   7.608   7.651 -2.4643 -1.1506  2.0693
   53MOL    H82 4346   7.259   7.465   0.038 -0.2899  0.2102  0.0334
   54MOL     C1 4347   6.491   2.881   6.612  0.2364  0.1265  0.1633
   54MOL     O2 4348   6.527   2.977   6.515 -0.1162  0.3091 -0.1489
   54MOL     H3 4349   6.571   2.809   6.629  0.9332  0.9449  0.4029
   54MOL     H4 4350   6.476   2.933   6.707 -1.4657 -1.1423  0.6076
   54MOL     H5 4351   6.398   2.829   6.591  1.8355 -2.9985  0.5591
   54MOL     C6 4352   6.558   2.915   6.398 -0.7201  0.1055  0.2771
   54MOL     O7 4353   6.452   2.889   6.313  0.1284  0.4984  0.4099
   54MOL     H8 4354   6.625   2.829   6.408  0.7473  1.0981 -0.7392
   54MOL     H9 4355   6.622   2.988   6.349  1.7617 -1.2398  1.3708
   54MOL    C10 4356   6.487   2.884   6.178 -0.6519  0.7404 -0.5105
   54MOL    O11 4357   6.587   2.791   6.145 -0.5766  0.0247  0.1422
   54MOL    H12 4358   6.505   2.987   6.148 -0.6314  1.3376  1.4693
   54MOL    H13 4359   6.394   2.845   6.136 -1.1581  0.1621  1.1001
   54MOL    C14 4360   6.544   2.656   6.148 -0.1853  0.0986 -0.0834
   54MOL    O15 4361   6.458   2.632   6.036  0.2205 -0.0453  0.5200
   54MOL    H16 4362   6.484   2.631   6.235 -0.7601  0.8362 -0.2646
   54MOL    H17 4363   6.632   2.593   6.132  0.1414  0.1989  1.2412
   54MOL    C18 4364   6.529   2.602   5.926 -0.0282  0.0272  0.7363
   54MOL    O19 4365   6.440   2.598   5.813 -0.0199 -0.0431 -0.3338
   54MOL    H20 4366   6.590   2.511   5.925  1.2555  0.8874 -0.6138
   54MOL    H21 4367   6.596   2.686   5.911  0.6334 -1.0354 -2.7761
   54MOL    C22 4368   6.373   2.472   5.805  0.2123 -0.2692  0.3446
   54MOL    O23 4369   6.472   2.373   5.766 -0.2509  0.5993 -0.2307
   54MOL    H24 4370   6.299   2.492   5.727  0.1593 -0.9488  0.2204
   54MOL    H25 4371   6.328   2.455   5.903 -0.9478 -0.0362 -0.1320
   54MOL    C26 4372   6.524   2.401   5.639 -0.9725  0.0941 -0.3113
   54MOL    O27 4373   6.432   2.342   5.549 -0.0059 -0.4149  0.2425
   54MOL    H28 4374   6.627   2.366   5.633 -0.8456  0.2145  1.0295
   54MOL    H29 4375   6.526   2.507   5.616  2.4143 -0.2274 -1.7498
   54MOL    C30 4376   6.441   2.206   5.532 -0.0243 -0.9467 -0.1965
   54MOL    O31 4377   6.566   2.171   5.493  0.0804  0.2798 -0.4854
   54MOL    H32 4378   6.361   2.169   5.468  1.9148 -0.3404 -3.0729
   54MOL    H33 4379   6.433   2.159   5.630 -4.0432  0.4241  0.1964
   54MOL    C34 4380   6.586   2.185   5.356 -0.1246  0.2526  0.3432
   54MOL    O35 4381   6.506   2.096   5.282 -0.5892  0.4382  0.4898
   54MOL    H36 4382   6.691   2.167   5.334 -0.6396 -0.4408 -1.6596
   54MOL    H37 4383   6.567   2.289   5.330 -0.8917 -0.0567 -0.3479
   54MOL    C38 4384   6.544   1.958   5.291  0.1810 -0.5117 -0.4425
   54MOL    O39 4385   6.662   1.922   5.219 -0.1211 -0.1054 -0.3876
   54MOL    H40 4386   6.467   1.896   5.245  0.1537  0.7883 -2.1708
   54MOL    H41 4387   6.547   1.930   5.396 -0.4521 -1.2672 -0.6282
   54MOL    C42 4388   6.678   1.783   5.207  0.7663 -0.6132  0.0587
   54MOL    O43 4389   6.785   1.752   5.124 -0.6988  0.7516  0.3685
   54MOL    H44 4390   6.587   1.742   5.164  0.4050  0.2376 -0.0152
   54MOL    H45 4391   6.687   1.733   5.303 -3.5957 -1.4917  0.1148
   54MOL    C46 4392   6.898   1.782   5.188 -0.6153  0.2673  0.1248
   54MOL    O47 4393   6.931   1.698   5.297  0.4883 -0.2550 -0.2596
   54MOL    H48 4394   6.893   1.885   5.222  1.5016  0.9407 -1.5209
   54MOL    H49 4395   6.967   1.772   5.104 -2.5805 -1.0082 -1.3717
   54MOL    C50 4396   6.950   1.563   5.270  0.1764 -0.2435  0.2885
   54MOL    O51 4397   6.969   1.488   5.388 -0.1840 -0.2615  0.7870
   54MOL    H52 4398   7.038   1.545   5.209  1.5444 -2.3477  2.7586
   54MOL    H53 4399   6.859   1.517   5.231 -1.0070 -0.4791  3.1679
   54MOL    C54 4400   6.858   1.487   5.474  0.2469  0.0912 -0.0332
   54MOL    O55 4401   6.771   1.384   5.449  0.1847 -0.5043  0.4628
   54MOL    H56 4402   6.796   1.576   5.464 -0.1198 -0.1341  0.2378
   54MOL    H57 4403   6.890   1.476   5.577  0.5870 -0.2432 -0.1766
   54MOL    C58 4404   6.830   1.266   5.497 -0.2130  0.4857 -0.0649
   54MOL    O59 4405   6.837   1.260   5.633 -0.1147  0.1297 -0.3678
   54MOL    H60 4406   6.932   1.259   5.459  0.3056 -0.6403  1.5099
   54MOL    H61 4407   6.767   1.187   5.456 -1.3412  0.2508  2.0855
   54MOL    C62 4408   6.709   1.257   5.687  0.0250  0.4855 -0.4515
   54MOL    O63 4409   6.717   1.262   5.823 -0.2313  0.4235  0.3018
   54MOL    H64 4410   6.644   1.173   5.661 -0.9284  1.3458 -0.8773
   54MOL    H65 4411   6.662   1.353   5.665 -0.1353 -0.0231 -2.4864
   54MOL    C66 4412   6.791   1.166   5.888  0.5975  0.3575  0.0956
   54MOL    O67 4413   6.743   1.042   5.863 -0.3373  0.2394  0.2959
   54MOL    H68 4414   6.777   1.191   5.993  1.1114  2.8544 -0.3933
   54MOL    H69 4415   6.899   1.170   5.873  1.1828 -1.6957  3.3230
   54MOL    C70 4416   6.626   1.007   5.930 -0.4817 -0.2228 -0.4853
   54MOL    O71 4417   6.650   0.977   6.066 -0.8220 -0.0915  0.0834
   54MOL    H72 4418   6.578   0.924   5.879 -1.0976  0.2752 -0.7287
   54MOL    H73 4419   6.558   1.090   5.912  2.9135  2.2076 -2.7859
   54MOL    C74 4420   6.535   0.939   6.129 -0.3180  0.0020 -0.2666
   54MOL    O75 4421   6.464   0.832   6.071  0.1920  0.6117  0.8695
   54MOL    H76 4422   6.470   1.026   6.136 -1.5286 -0.9851  0.9002
   54MOL    H77 4423   6.568   0.908   6.228  1.0884 -0.4153 -0.8554
   54MOL    C78 4424   6.526   0.708   6.068  0.4497  0.1070 -0.2353
   54MOL    O79 4425   6.436   0.603   6.036 -0.1387 -0.4977  0.2442
   54MOL    H80 4426   6.568   0.668   6.160  3.0393 -2.0365 -2.2439
   54MOL    H81 4427   6.605   0.710   5.992 -0.1328  3.2095 -0.8288
   54MOL    H82 4428   6.394   0.630   5.956  0.2268 -0.8397 -0.0653
   55MOL     C1 4429   2.765   3.868   6.784 -0.0742 -0.0344  0.0730
   55MOL     O2 4430   2.739   3.979   6.871  0.3997 -0.3939  0.2150
   55MOL     H3 4431   2.696   3.785   6.795 -0.0736 -0.0093  0.2555
   55MOL     H4 4432   2.775   3.893   6.678  1.0908  0.4865  0.2943
   55MOL     H5 4433   2.861   3.822   6.806 -0.9857 -3.4436 -2.7254
   55MOL     C6 4434   2.727   3.937   7.006 -0.5308  0.2235  0.6906
   55MOL     O7 4435   2.606   3.869   7.034  0.2204  0.1798  0.4920
   55MOL     H8 4436   2.728   4.033   7.058 -0.0828  0.0217  1.0577
   55MOL     H9 4437   2.814   3.879   7.039  1.1839  2.2103 -0.2133
   55MOL    C10 4438   2.508   3.959   7.055 -0.0976 -0.0647 -0.1089
   55MOL    O11 4439   2.518   4.017   7.177 -0.0851 -0.5680  0.7025
   55MOL    H12 4440   2.416   3.901   7.053  0.1274 -0.4459  0.7193
   55MOL    H13 4441   2.501   4.029   6.971 -1.3270  0.9150  0.7873
   55MOL    C14 4442   2.405   4.094   7.199  0.9612  0.0523  0.7351
   55MOL    O15 4443   2.427   4.223   7.152 -0.0064 -0.3816 -0.0780
   55MOL    H16 4444   2.384   4.098   7.306  0.0162 -2.2509  0.6630
   55MOL    H17 4445   2.317   4.049   7.152  1.9314 -1.0825  0.0012
   55MOL    C18 4446   2.324   4.311   7.176  0.2103 -0.1680 -0.1370
   55MOL    O19 4447   2.218   4.290   7.077 -0.7345 -0.0983  0.4241
   55MOL    H20 4448   2.361   4.414   7.178  0.8084 -0.3736 -0.7408
   55MOL    H21 4449   2.291   4.283   7.276  0.3863  0.9968  0.2614
   55MOL    C22 4450   2.243   4.339   6.949 -0.2263  0.0437  0.9199
   55MOL    O23 4451   2.244   4.481   6.951  0.3299 -0.0215  0.2925
   55MOL    H24 4452   2.172   4.290   6.883  1.5188 -1.1777 -0.0895
   55MOL    H25 4453   2.336   4.292   6.918  0.2321  0.3176  1.8463
   55MOL    C26 4454   2.299   4.536   6.842  0.5150 -0.2093 -0.4667
   55MOL    O27 4455   2.226   4.512   6.724 -0.5839 -0.3095 -0.4695
   55MOL    H28 4456   2.400   4.496   6.829  0.6058 -0.6845  1.5761
   55MOL    H29 4457   2.295   4.641   6.870 -0.0505 -1.3301  3.9706
   55MOL    C30 4458   2.275   4.592   6.624  0.0989 -0.1467  0.0665
   55MOL    O31 4459   2.400   4.553   6.572  0.0462  0.1488  0.6601
   55MOL    H32 4460   2.281   4.696   6.654 -0.1920  0.1532 -0.8746
   55MOL    H33 4461   2.205   4.587   6.540  0.6866  1.3455 -0.5321
   55MOL    C34 4462   2.407   4.429   6.505 -0.1918 -0.1978 -0.1290
   55MOL    O35 4463   2.468   4.328   6.581 -0.0162 -0.1055  0.5446
   55MOL    H36 4464   2.452   4.437   6.406 -0.5052  0.2236 -0.2416
   55MOL    H37 4465   2.305   4.398   6.481 -0.0100 -0.0558 -1.0849
   55MOL    C38 4466   2.608   4.336   6.588  0.1229  0.1091 -0.2533
   55MOL    O39 4467   2.664   4.222   6.640  0.3410  0.1642 -0.1619
   55MOL    H40 4468   2.645   4.427   6.635  0.8772 -0.3393  0.0184
   55MOL    H41 4469   2.652   4.340   6.489  0.3413 -2.0962 -0.2624
   55MOL    C42 4470   2.795   4.251   6.688 -0.1607 -0.4877  0.2551
   55MOL    O43 4471   2.896   4.286   6.597  0.1551 -0.3920 -0.1195
   55MOL    H44 4472   2.841   4.167   6.741 -0.6347 -0.5609  0.5483
   55MOL    H45 4473   2.796   4.330   6.763  0.1534  1.3385 -1.6413
   55MOL    C46 4474   2.929   4.191   6.502 -0.3668  0.2802  0.0898
   55MOL    O47 4475   3.029   4.104   6.545 -0.3267 -0.2252  0.1616
   55MOL    H48 4476   2.959   4.247   6.413  3.4884 -0.5412  0.7811
   55MOL    H49 4477   2.846   4.129   6.470  0.4203 -1.8866  2.0408
   55MOL    C50 4478   3.158   4.155   6.561 -0.3434  0.8427  0.4427
   55MOL    O51 4479   3.216   4.199   6.448 -0.0716  0.1220  0.3038
   55MOL    H52 4480   3.225   4.090   6.618 -0.6489 -0.4816 -0.6976
   55MOL    H53 4481   3.146   4.248   6.617 -1.4711 -0.3493  2.2440
   55MOL    C54 4482   3.276   4.097   6.370  0.0038 -0.7399 -0.4882
   55MOL    O55 4483   3.381   4.038   6.434 -0.1171  0.5356 -0.2564
   55MOL    H56 4484   3.298   4.138   6.272  3.1073  0.1545  0.5179
   55MOL    H57 4485   3.191   4.031   6.352 -0.3926 -1.1053  2.3776
   55MOL    C58 4486   3.426   3.919   6.369  0.1818 -0.0866  0.1492
   55MOL    O59 4487   3.331   3.820   6.351 -0.5370 -0.0443  0.1533
   55MOL    H60 4488   3.510   3.876   6.423  1.3542  1.8747 -0.0295
   55MOL    H61 4489   3.460   3.940   6.268  1.2142  2.6607  0.9881
   55MOL    C62 4490   3.281   3.768   6.471 -0.4970  0.4054 -0.4181
   55MOL    O63 4491   3.359   3.665   6.524 -0.1613  0.1869 -0.8719
   55MOL    H64 4492   3.180   3.735   6.448 -0.4892  1.3918 -1.9128
   55MOL    H65 4493   3.279   3.844   6.549 -0.3076 -0.5431  0.5308
   55MOL    C66 4494   3.358   3.549   6.447  0.8883 -0.2959  0.0182
   55MOL    O67 4495   3.235   3.487   6.449  0.1233  0.4707  0.2682
   55MOL    H68 4496   3.425   3.476   6.491 -0.6526 -1.3137  0.6923
   55MOL    H69 4497   3.386   3.567   6.343 -0.8471 -1.4263 -0.6686
   55MOL    C70 4498   3.191   3.444   6.572  0.0668 -0.1764 -0.3403
   55MOL    O71 4499   3.061   3.387   6.560 -0.0779 -0.4799  0.6363
   55MOL    H72 4500   3.168   3.530   6.636  0.0193 -1.3181  1.2160
   55MOL    H73 4501   3.259   3.373   6.618 -0.5706 -0.8058 -0.3749
   55MOL    C74 4502   3.055   3.258   6.497  0.0052  0.6808  0.0797
   55MOL    O75 4503   3.083   3.157   6.587 -0.2165 -0.1128 -0.1769
   55MOL    H76 4504   3.131   3.260   6.420 -2.2955 -1.4482 -2.3597
   55MOL    H77 4505   2.959   3.264   6.445 -0.0931 -0.4241  0.1168
   55MOL    C78 4506   2.989   3.149   6.685  0.1673  0.0211 -0.9576
   55MOL    O79 4507   2.970   3.019   6.732  0.5549  0.1435  0.4081
   55MOL    H80 4508   2.893   3.187   6.649  0.2414  0.1861 -0.9785
   55MOL    H81 4509   3.014   3.212   6.770  1.8094  0.4387 -1.7431
   55MOL    H82 4510   2.899   2.991   6.677 -0.4062  2.8166  0.2604
   56MOL     C1 4511   0.007   2.105   4.412 -0.2455 -0.3246  0.0869
   56MOL     O2 4512   7.736   2.038   4.527 -0.2864 -0.0266 -0.1068
   56MOL     H3 4513   7.732   2.095   4.321  0.4503 -1.1353 -0.2829
   56MOL     H4 4514   0.013   2.210   4.439  0.0123 -0.3492  0.1309
   56MOL     H5 4515   0.110   2.081   4.384  0.4640  2.1847  0.4430
   56MOL     C6 4516   7.691   1.901   4.513  0.0773 -0.2773  0.0629
   56MOL     O7 4517   0.012   1.814   4.536  0.6928  0.6435 -0.0418
   56MOL     H8 4518   7.661   1.880   4.411 -0.3608  0.6813 -0.0127
   56MOL     H9 4519   7.603   1.888   4.577  0.5926  3.0602  1.5741
   56MOL    C10 4520   0.068   1.818   4.661  0.2008  0.5711  0.7823
   56MOL    O11 4521   7.765   1.775   4.759 -0.4026 -0.0720  0.7086
   56MOL    H12 4522   0.091   1.923   4.680  1.9856  0.3059  0.1916
   56MOL    H13 4523   0.156   1.754   4.664 -0.4411 -0.3208  0.5659
   56MOL    C14 4524   7.716   1.642   4.740 -0.2702 -0.0829  0.0067
   56MOL    O15 4525   0.016   1.550   4.806 -0.2642 -0.3856  0.3179
   56MOL    H16 4526   7.689   1.618   4.637 -0.0606 -0.1609 -0.0315
   56MOL    H17 4527   7.615   1.647   4.780  0.6680  0.5592  2.3991
   56MOL    C18 4528   0.035   1.578   4.936  0.2702  0.3767 -0.3854
   56MOL    O19 4529   7.697   1.561   5.007  0.0123 -0.1950  0.0727
   56MOL    H20 4530   0.071   1.680   4.947 -2.1938  1.2427 -0.0433
   56MOL    H21 4531   0.111   1.507   4.971 -1.0545 -0.5556  0.6616
   56MOL    C22 4532   7.698   1.624   5.133  0.0520 -0.6031  0.6651
   56MOL    O23 4533   7.718   1.764   5.129 -0.2349  0.0040 -0.0468
   56MOL    H24 4534   7.780   1.577   5.186  0.4838  1.8556  2.2658
   56MOL    H25 4535   7.613   1.608   5.200 -1.2444  2.3402 -0.1804
   56MOL    C26 4536   7.618   1.834   5.075 -0.4038 -0.7317  0.0597
   56MOL    O27 4537   7.530   1.869   5.174  0.5748 -0.0486 -0.2710
   56MOL    H28 4538   7.584   1.787   4.983 -1.0921  0.0203 -0.0680
   56MOL    H29 4539   7.660   1.925   5.034 -0.3152 -0.3428  1.0003
   56MOL    C30 4540   7.397   1.870   5.136 -0.4043 -0.2066 -0.2115
   56MOL    O31 4541   7.342   1.745   5.144 -0.3881 -0.3603  0.2343
   56MOL    H32 4542   7.382   1.920   5.041  1.8175 -0.8628 -0.9314
   56MOL    H33 4543   7.342   1.928   5.211  0.2230  1.7735 -1.2409
   56MOL    C34 4544   7.342   1.682   5.269 -0.3043 -0.1245 -0.1042
   56MOL    O35 4545   7.242   1.736   5.344  0.1966 -0.0705  0.4722
   56MOL    H36 4546   7.439   1.706   5.313 -0.5524  2.2006 -0.7463
   56MOL    H37 4547   7.317   1.577   5.253 -0.5369 -0.0808 -0.0250
   56MOL    C38 4548   7.215   1.662   5.456  0.0615  0.1455 -0.4542
   56MOL    O39 4549   7.328   1.665   5.544 -0.2271 -0.7330 -0.4245
   56MOL    H40 4550   7.190   1.559   5.434 -2.0376  1.1132 -2.9145
   56MOL    H41 4551   7.121   1.694   5.500 -0.6142 -2.8291  0.3770
   56MOL    C42 4552   7.337   1.783   5.618  0.6396  0.4124 -1.0536
   56MOL    O43 4553   7.243   1.791   5.725  0.0181 -0.1456  0.4020
   56MOL    H44 4554   7.328   1.864   5.546  4.6670  0.8255 -1.2037
   56MOL    H45 4555   7.441   1.781   5.653  0.5040  0.3311 -0.6514
   56MOL    C46 4556   7.296   1.753   5.850 -0.3056  0.8419 -0.0764
   56MOL    O47 4557   7.324   1.864   5.928 -0.3679  0.0609  0.0330
   56MOL    H48 4558   7.389   1.696   5.849 -1.3135 -0.8240 -1.2280
   56MOL    H49 4559   7.224   1.690   5.903 -0.1231  0.4803 -0.2621
   56MOL    C50 4560   7.219   1.933   5.982 -0.4115 -0.6342  0.4367
   56MOL    O51 4561   7.119   1.861   6.048 -0.0782 -0.5915  0.1174
   56MOL    H52 4562   7.171   1.982   5.897 -1.4678  0.0080  1.3962
   56MOL    H53 4563   7.259   2.011   6.047  0.6834 -1.2668  0.5437
   56MOL    C54 4564   7.019   1.943   6.084  0.4323  0.2513  0.7237
   56MOL    O55 4565   7.049   2.011   6.202  0.4552  0.3324  0.4405
   56MOL    H56 4566   6.934   1.877   6.096 -0.0403  0.5126 -1.0933
   56MOL    H57 4567   6.993   2.019   6.010  0.9143  2.3360  2.6443
   56MOL    C58 4568   7.051   1.916   6.307  0.3754 -0.1205 -0.4285
   56MOL    O59 4569   7.093   1.975   6.423 -0.0108 -0.8762 -0.4340
   56MOL    H60 4570   7.120   1.835   6.281 -0.5614 -0.9263 -0.4397
   56MOL    H61 4571   6.960   1.861   6.332  0.6514 -0.2106  0.3963
   56MOL    C62 4572   7.233   1.982   6.431  0.5486 -0.0437  0.3454
   56MOL    O63 4573   7.306   1.867   6.436  0.2418 -0.2206  0.6314
   56MOL    H64 4574   7.242   2.039   6.524  0.6656  0.7147 -0.1304
   56MOL    H65 4575   7.262   2.043   6.346 -0.1379 -1.6670 -1.1061
   56MOL    C66 4576   7.281   1.786   6.549 -0.2059 -0.0041  0.3938
   56MOL    O67 4577   7.303   1.854   6.667 -0.1544 -0.3848  0.6370
   56MOL    H68 4578   7.352   1.704   6.542 -1.1324 -0.8940  1.3896
   56MOL    H69 4579   7.182   1.743   6.544  0.1148 -0.7926  0.9159
   56MOL    C70 4580   7.439   1.880   6.689 -0.5952  0.2905  0.7568
   56MOL    O71 4581   7.460   1.937   6.813  0.2747 -0.0699 -0.0806
   56MOL    H72 4582   7.479   1.949   6.615  2.6759 -1.0380  1.1461
   56MOL    H73 4583   7.495   1.787   6.674 -0.3815  0.1800  2.1684
   56MOL    C74 4584   7.506   1.851   6.911  0.0545  0.2364  0.3897
   56MOL    O75 4585   7.628   1.797   6.868  0.3355  0.3604 -0.2325
   56MOL    H76 4586   7.432   1.775   6.938 -0.2011  0.0895 -0.7261
   56MOL    H77 4587   7.509   1.914   7.000  1.5156  2.6745 -1.3281
   56MOL    C78 4588   7.708   1.755   6.972  0.6003  0.6675  0.0097
   56MOL    O79 4589   0.055   1.775   6.938  0.3749 -0.1114  0.3567
   56MOL    H80 4590   7.689   1.656   7.014  2.0489  0.1929 -0.3936
   56MOL    H81 4591   7.688   1.816   7.059  3.3285 -2.2959  2.8689
   56MOL    H82 4592   0.082   1.698   6.891 -2.2278  0.2313 -1.8590
   57MOL     C1 4593   4.427   2.064   1.648  1.1011 -0.1782 -0.2235
   57MOL     O2 4594   4.297   2.070   1.583 -0.4965  0.2539 -0.1872
   57MOL     H3 4595   4.426   2.026   1.750  0.9426  1.0057  0.2268
   57MOL     H4 4596   4.503   2.017   1.586  1.8967 -1.2466  1.5263
   57MOL     H5 4597   4.439   2.172   1.658 -2.6254  0.1930  1.2170
   57MOL     C6 4598   4.229   1.949   1.601  0.1339  0.1397 -0.1728
   57MOL     O7 4599   4.097   1.965   1.587  0.0332  0.3427 -0.2937
   57MOL     H8 4600   4.237   1.914   1.704 -1.6153 -1.5217 -0.5748
   57MOL     H9 4601   4.277   1.875   1.537 -0.1777 -0.1768 -0.0422
   57MOL    C10 4602   4.061   1.997   1.459 -0.2119  0.5035  0.9781
   57MOL    O11 4603   4.075   1.886   1.377  0.4075  0.4617 -0.5083
   57MOL    H12 4604   4.127   2.077   1.424 -0.8455 -0.1601 -1.8834
   57MOL    H13 4605   3.958   2.031   1.462 -0.7493 -0.9493 -0.5738
   57MOL    C14 4606   3.954   1.817   1.362  0.4653  0.8288  0.7026
   57MOL    O15 4607   3.864   1.888   1.283  0.7674  0.0303 -0.6720
   57MOL    H16 4608   3.904   1.803   1.458 -0.1931 -0.2311  0.2111
   57MOL    H17 4609   3.981   1.715   1.335 -1.0557  0.1916  1.5132
   57MOL    C18 4610   3.864   1.832   1.152 -0.1114 -0.6211  0.1617
   57MOL    O19 4611   3.816   1.702   1.143  0.1354  0.2523 -0.2014
   57MOL    H20 4612   3.966   1.830   1.114 -2.2515 -2.5652 -6.1108
   57MOL    H21 4613   3.809   1.909   1.097  2.9354  1.4244 -0.1183
   57MOL    C22 4614   3.682   1.693   1.173 -0.3803 -0.2357  0.9182
   57MOL    O23 4615   3.644   1.558   1.160 -0.1784  0.1571  0.2476
   57MOL    H24 4616   3.622   1.745   1.098  1.9147  0.6660 -0.3447
   57MOL    H25 4617   3.649   1.724   1.272 -1.1244  0.6726  0.3813
   57MOL    C26 4618   3.506   1.535   1.180  0.2775  0.0358 -0.3661
   57MOL    O27 4619   3.485   1.492   1.305  0.2353  0.3322  0.3620
   57MOL    H28 4620   3.471   1.466   1.103 -0.4409  2.0796 -1.8953
   57MOL    H29 4621   3.451   1.629   1.176  0.3122  0.1990  1.9698
   57MOL    C30 4622   3.356   1.500   1.342  0.1344  0.2707 -0.4626
   57MOL    O31 4623   3.322   1.619   1.405  0.0105  0.3716 -0.4498
   57MOL    H32 4624   3.345   1.416   1.411  2.2070  1.3973  1.2947
   57MOL    H33 4625   3.281   1.475   1.266  0.6606  0.0075 -0.8946
   57MOL    C34 4626   3.197   1.608   1.467  0.0118  0.0965  0.0044
   57MOL    O35 4627   3.080   1.618   1.387 -0.1836  0.3223  0.4656
   57MOL    H36 4628   3.187   1.688   1.540  0.3194 -0.2445  0.4274
   57MOL    H37 4629   3.190   1.521   1.532  0.6774  0.5469  0.6915
   57MOL    C38 4630   3.090   1.730   1.308 -0.3295 -0.5275  1.0134
   57MOL    O39 4631   3.093   1.848   1.385  0.3813  0.0721 -0.5600
   57MOL    H40 4632   3.004   1.742   1.242  0.2229 -0.8647  0.2203
   57MOL    H41 4633   3.185   1.722   1.254 -0.0800 -0.7181  1.4802
   57MOL    C42 4634   3.083   1.972   1.317 -0.0516 -0.1993 -0.2850
   57MOL    O43 4635   3.187   2.000   1.238 -0.3835 -0.4672  0.6214
   57MOL    H44 4636   3.065   2.043   1.397 -0.1577 -1.0135  0.4193
   57MOL    H45 4637   2.991   1.994   1.263 -1.3633 -2.6671  0.8827
   57MOL    C46 4638   3.310   2.007   1.311  0.4350 -0.0822 -0.1693
   57MOL    O47 4639   3.334   2.133   1.371 -0.2423  0.5380  0.5040
   57MOL    H48 4640   3.386   1.990   1.235 -1.0970  0.1469 -1.7789
   57MOL    H49 4641   3.333   1.925   1.379  0.2344  0.9200  1.1220
   57MOL    C50 4642   3.399   2.230   1.294  0.8580  0.5063 -0.3086
   57MOL    O51 4643   3.524   2.203   1.257 -0.4022 -0.2950  0.0827
   57MOL    H52 4644   3.404   2.313   1.364 -0.1593 -0.3502  0.7827
   57MOL    H53 4645   3.333   2.258   1.212  0.3868 -2.8678 -1.1616
   57MOL    C54 4646   3.614   2.182   1.357 -0.1549 -0.1337 -0.2627
   57MOL    O55 4647   3.600   2.273   1.463 -0.1291 -0.1549 -0.1099
   57MOL    H56 4648   3.706   2.185   1.300  0.0846  1.3776  0.1834
   57MOL    H57 4649   3.616   2.081   1.399  1.7364  0.5015  1.2511
   57MOL    C58 4650   3.710   2.302   1.545 -0.2393  0.8265 -0.3399
   57MOL    O59 4651   3.827   2.310   1.474  0.2881 -0.0184  0.0241
   57MOL    H60 4652   3.709   2.212   1.607  0.6237  0.0425 -1.4550
   57MOL    H61 4653   3.686   2.386   1.610 -2.2370  1.5653 -1.9876
   57MOL    C62 4654   3.940   2.311   1.550  0.0243  0.9385  0.1246
   57MOL    O63 4655   3.951   2.426   1.635  0.2595 -0.3371  0.2062
   57MOL    H64 4656   4.023   2.306   1.480  1.7534  0.0906  2.1669
   57MOL    H65 4657   3.947   2.220   1.610  0.7352  2.2181  2.0439
   57MOL    C66 4658   4.058   2.501   1.601  0.6299  0.1061  0.0212
   57MOL    O67 4659   4.178   2.423   1.601 -0.1670 -0.3641 -0.1765
   57MOL    H68 4660   4.063   2.576   1.680 -0.4419 -1.1028  1.2679
   57MOL    H69 4661   4.049   2.549   1.503  2.7045 -0.8991 -0.6820
   57MOL    C70 4662   4.217   2.391   1.726 -0.0264  0.0916 -0.7659
   57MOL    O71 4663   4.271   2.499   1.784  0.4644  0.5485  0.3090
   57MOL    H72 4664   4.287   2.308   1.734 -0.0154  0.2699  1.2689
   57MOL    H73 4665   4.130   2.365   1.788  1.4916 -0.8273  1.0425
   57MOL    C74 4666   4.390   2.541   1.735 -0.5512 -0.3542 -0.0730
   57MOL    O75 4667   4.430   2.665   1.794  0.3040 -0.5818 -0.5935
   57MOL    H76 4668   4.389   2.550   1.627  0.4562  0.4302 -0.0299
   57MOL    H77 4669   4.468   2.467   1.755 -0.7572 -0.1789  1.4324
   57MOL    C78 4670   4.398   2.779   1.712  0.6025 -0.0472 -0.2068
   57MOL    O79 4671   4.414   2.902   1.781  0.1423 -0.2919 -0.3770
   57MOL    H80 4672   4.297   2.776   1.670 -0.7692 -0.0424  2.9780
   57MOL    H81 4673   4.450   2.778   1.616  0.4543  0.1166 -0.2912
   57MOL    H82 4674   4.494   2.941   1.748 -0.5502 -0.5685 -2.4425
   58MOL     C1 4675   1.068   6.727   6.807 -0.2251 -0.4360 -0.0146
   58MOL     O2 4676   1.114   6.817   6.703  0.6953 -0.0445 -0.5365
   58MOL     H3 4677   0.969   6.754   6.843 -0.4339  0.9873 -1.5528
   58MOL     H4 4678   1.052   6.622   6.783  2.6359 -0.7560 -0.7363
   58MOL     H5 4679   1.135   6.725   6.892  0.5076  2.5817 -0.4682
   58MOL     C6 4680   1.148   6.943   6.751  0.1568 -0.0040 -0.2664
   58MOL     O7 4681   1.279   6.935   6.799 -0.2629  0.1835  0.3962
   58MOL     H8 4682   1.082   6.961   6.835  1.3570  0.5951  0.5678
   58MOL     H9 4683   1.135   7.021   6.677 -0.9543  0.0415 -0.0329
   58MOL    C10 4684   1.330   7.060   6.848 -0.4880 -0.4719  0.0534
   58MOL    O11 4685   1.268   7.090   6.968 -0.2101 -0.0904 -0.2104
   58MOL    H12 4686   1.307   7.139   6.776  0.2490  1.6505  2.0895
   58MOL    H13 4687   1.435   7.044   6.871 -0.7345 -2.4211 -0.1056
   58MOL    C14 4688   1.284   6.996   7.063  0.2584  0.3223 -0.3612
   58MOL    O15 4689   1.203   7.026   7.179  0.0575  0.1254 -0.9639
   58MOL    H16 4690   1.390   6.990   7.090 -0.1569 -2.8821  0.7561
   58MOL    H17 4691   1.266   6.895   7.026 -0.0444  0.7467 -1.3981
   58MOL    C18 4692   1.063   7.027   7.154 -0.5445  0.3559 -0.0598
   58MOL    O19 4693   1.027   6.914   7.078  0.0683  0.0252 -0.1800
   58MOL    H20 4694   1.042   7.109   7.086 -0.9147 -2.1081 -2.9837
   58MOL    H21 4695   1.006   7.030   7.248 -0.2021  0.8380  0.1357
   58MOL    C22 4696   0.890   6.880   7.090 -0.5958 -0.1469 -0.2347
   58MOL    O23 4697   0.815   6.992   7.070  0.2854 -0.5974 -0.2961
   58MOL    H24 4698   0.873   6.845   7.192  2.2817  0.8225  0.6291
   58MOL    H25 4699   0.860   6.802   7.019 -1.2111 -0.5538  0.4582
   58MOL    C26 4700   0.679   6.966   7.037 -0.8901 -0.4378 -0.2012
   58MOL    O27 4701   0.681   6.926   6.902 -0.0739 -0.1711 -0.1313
   58MOL    H28 4702   0.627   7.060   7.052  1.0015  0.7546 -0.8736
   58MOL    H29 4703   0.639   6.888   7.101  1.7913 -0.7686  1.1474
   58MOL    C30 4704   0.696   7.032   6.815  0.4211 -1.0043  0.0393
   58MOL    O31 4705   0.576   7.095   6.779 -0.0008 -0.6740 -0.1670
   58MOL    H32 4706   0.752   6.993   6.730  2.1771 -0.3342  0.8689
   58MOL    H33 4707   0.768   7.099   6.862  0.7662 -0.3351 -1.4059
   58MOL    C34 4708   0.515   7.037   6.670 -0.2504  0.5512  0.2654
   58MOL    O35 4709   0.592   7.054   6.558 -0.0858  0.1977 -0.4113
   58MOL    H36 4710   0.413   7.075   6.676  0.2379  2.2033 -1.5809
   58MOL    H37 4711   0.512   6.931   6.698  0.8493  1.1833  2.8788
   58MOL    C38 4712   0.547   7.157   6.479  0.0578 -0.3244  0.0609
   58MOL    O39 4713   0.426   7.124   6.423 -0.1146  0.1902 -0.2521
   58MOL    H40 4714   0.623   7.183   6.406  2.1005 -2.5218  1.3371
   58MOL    H41 4715   0.542   7.252   6.533  1.2783  1.5464 -3.0008
   58MOL    C42 4716   0.436   7.049   6.307  0.7105 -0.2587 -0.7240
   58MOL    O43 4717   0.489   6.916   6.313  0.4768  0.3338 -0.6727
   58MOL    H44 4718   0.497   7.090   6.226  0.1187 -0.4007 -1.2456
   58MOL    H45 4719   0.331   7.054   6.280  0.4345  0.3172  0.4490
   58MOL    C46 4720   0.394   6.829   6.375 -0.3610 -0.0736  0.3379
   58MOL    O47 4721   0.291   6.790   6.288 -0.2743 -0.1661 -0.5799
   58MOL    H48 4722   0.339   6.872   6.458 -0.4240 -1.0632  0.8278
   58MOL    H49 4723   0.438   6.742   6.425  1.9341  0.9483  0.1733
   58MOL    C50 4724   0.341   6.725   6.178  0.8687  0.2393  0.4973
   58MOL    O51 4725   0.371   6.586   6.207  0.0011 -0.0916 -0.0755
   58MOL    H52 4726   0.422   6.789   6.143  1.1298 -0.4192 -0.0977
   58MOL    H53 4727   0.259   6.734   6.108  0.5612 -2.1683  0.4936
   58MOL    C54 4728   0.416   6.517   6.089  0.1769  0.4009  0.1175
   58MOL    O55 4729   0.548   6.551   6.049 -0.3436  0.0015  0.3531
   58MOL    H56 4730   0.350   6.521   6.003 -2.1358 -0.7990  1.7633
   58MOL    H57 4731   0.414   6.413   6.121 -0.5216  0.3953  0.0552
   58MOL    C58 4732   0.656   6.506   6.138  0.2274  0.3420  0.0498
   58MOL    O59 4733   0.678   6.373   6.116 -0.1577  0.0849  0.4845
   58MOL    H60 4734   0.636   6.532   6.241 -1.4319  0.8013 -0.3811
   58MOL    H61 4735   0.741   6.567   6.107 -0.1465  0.2137 -1.2623
   58MOL    C62 4736   0.766   6.336   6.019  0.0700  0.1165 -0.6318
   58MOL    O63 4737   0.899   6.379   6.055 -0.2960  0.2543 -0.1295
   58MOL    H64 4738   0.746   6.403   5.935 -0.2799  0.9988  0.1407
   58MOL    H65 4739   0.760   6.231   5.992  0.3781  0.5273 -2.3912
   58MOL    C66 4740   0.954   6.299   6.161  0.4170 -0.0751  0.5083
   58MOL    O67 4741   0.987   6.172   6.121 -0.7035  0.7054 -0.2200
   58MOL    H68 4742   0.896   6.291   6.253 -0.3159  2.2580  0.2719
   58MOL    H69 4743   1.042   6.347   6.203  1.5055 -1.8128  0.2923
   58MOL    C70 4744   1.093   6.169   6.035 -0.2070  0.3330  0.5535
   58MOL    O71 4745   1.222   6.157   6.100 -0.4142  0.2700 -0.0866
   58MOL    H72 4746   1.093   6.249   5.962 -0.3263  1.6133  1.9277
   58MOL    H73 4747   1.068   6.087   5.967  0.6260  0.5485 -0.0089
   58MOL    C74 4748   1.269   6.030   6.126  0.7262 -0.1624 -0.6856
   58MOL    O75 4749   1.272   5.946   6.012  0.1166 -0.5635  0.5594
   58MOL    H76 4750   1.189   5.985   6.186  0.7676 -2.8438 -2.5478
   58MOL    H77 4751   1.366   6.022   6.174 -0.0462 -0.4007  0.8750
   58MOL    C78 4752   1.338   5.999   5.906  0.4353 -0.3516  0.0550
   58MOL    O79 4753   1.343   5.906   5.796 -0.1213 -0.3277 -0.1362
   58MOL    H80 4754   1.439   6.019   5.941  0.4453  0.3065 -0.3445
   58MOL    H81 4755   1.295   6.096   5.879  1.8627  0.5485  0.9616
   58MOL    H82 4756   1.403   5.842   5.830 -1.1643 -0.6132  1.2114
   59MOL     C1 4757   5.419   6.312   7.647  0.3562  0.9401 -0.2997
   59MOL     O2 4758   5.560   6.332   7.623  0.5201  0.2830 -0.0459
   59MOL     H3 4759   5.373   6.255   7.566 -1.2519  0.0800  1.1752
   59MOL     H4 4760   5.391   6.263   7.740 -1.1557 -0.5058 -1.4905
   59MOL     H5 4761   5.373   6.411   7.651  0.2313  0.8345  1.1649
   59MOL     C6 4762   5.633   6.353   7.736  0.1177 -0.5996 -0.4127
   59MOL     O7 4763   5.581   6.471   0.012  0.8091 -0.3772  0.1489
   59MOL     H8 4764   5.733   6.390   7.711 -0.3286  0.4126 -0.6981
   59MOL     H9 4765   5.633   6.263   0.015 -0.6477 -1.0192 -1.0177
   59MOL    C10 4766   5.629   6.489   0.136  0.1148  0.4746 -0.2936
   59MOL    O11 4767   5.565   6.396   0.222 -0.3622  0.2881  0.3444
   59MOL    H12 4768   5.614   6.592   0.168  3.3169  0.5450  1.1604
   59MOL    H13 4769   5.734   6.460   0.133 -0.4793 -1.7797 -0.4054
   59MOL    C14 4770   5.591   6.423   0.354 -0.3933 -0.0363 -0.2611
   59MOL    O15 4771   5.701   6.364   0.399 -0.2620  0.3323  0.5910
   59MOL    H16 4772   5.510   6.391   0.419  1.7102  1.0552  3.0376
   59MOL    H17 4773   5.598   6.530   0.371  2.9776 -0.2155 -0.0640
   59MOL    C18 4774   5.686   6.230   0.430 -0.6658  0.4099  0.7282
   59MOL    O19 4775   5.810   6.164   0.412 -0.3847  0.2746 -0.1406
   59MOL    H20 4776   5.610   6.194   0.360  2.3760  0.3498 -2.7400
   59MOL    H21 4777   5.658   6.209   0.533 -0.1284 -1.8762  0.4262
   59MOL    C22 4778   5.839   6.140   0.278  0.2339 -1.3536  0.3777
   59MOL    O23 4779   5.765   6.038   0.224 -0.0514  0.3782  0.4249
   59MOL    H24 4780   5.947   6.124   0.272  0.9379  2.8290  0.3271
   59MOL    H25 4781   5.819   6.219   0.205  1.5843  0.5428  1.9779
   59MOL    C26 4782   5.783   5.924   0.294  0.4806  0.2371 -0.7563
   59MOL    O27 4783   5.757   5.804   0.212  0.3721 -0.0385 -0.0170
   59MOL    H28 4784   5.714   5.921   0.378  0.4983  0.6674 -0.7275
   59MOL    H29 4785   5.887   5.916   0.326  1.0723  3.6785 -1.7171
   59MOL    C30 4786   5.854   5.771   0.120  0.2267 -0.1051  1.1086
   59MOL    O31 4787   5.964   5.717   0.189  0.1855  0.5198 -0.2039
   59MOL    H32 4788   5.874   5.859   0.059 -1.7028  1.0632  2.1101
   59MOL    H33 4789   5.824   5.691   0.052  2.8321  1.1729 -1.6838
   59MOL    C34 4790   6.085   5.730   0.118 -0.0398  0.4114  0.2556
   59MOL    O35 4791   6.153   5.850   0.146 -0.1341 -0.6076  1.0078
   59MOL    H36 4792   6.070   5.727   0.010 -3.3629 -0.0751  0.6941
   59MOL    H37 4793   6.147   5.642   0.135  1.1856  0.4167 -3.6518
   59MOL    C38 4794   6.221   5.848   0.264  0.1472 -0.5773 -0.0700
   59MOL    O39 4795   6.356   5.831   0.229 -0.2319  0.4502 -0.5068
   59MOL    H40 4796   6.198   5.772   0.337  5.7145 -1.5628  0.9288
   59MOL    H41 4797   6.193   5.936   0.322  2.6935  0.8342 -0.8546
   59MOL    C42 4798   6.424   5.944   0.182 -0.7798 -0.5119  0.1916
   59MOL    O43 4799   6.553   5.904   0.138 -0.3903  0.4724  0.1413
   59MOL    H44 4800   6.432   6.027   0.252 -2.0009 -1.1191  1.0759
   59MOL    H45 4801   6.380   5.974   0.086 -0.7155 -0.9467  0.0248
   59MOL    C46 4802   6.630   5.862   0.242  0.1261 -0.4866  0.3498
   59MOL    O47 4803   6.670   5.969   0.315 -0.2596 -0.3194 -0.1892
   59MOL    H48 4804   6.712   5.816   0.187 -0.1082 -0.8053  0.2637
   59MOL    H49 4805   6.588   5.778   0.297 -0.2898 -1.0148 -0.7590
   59MOL    C50 4806   6.749   5.927   0.427  0.2856 -0.0255  0.5080
   59MOL    O51 4807   6.841   5.833   0.397  0.1196 -0.0356 -0.0366
   59MOL    H52 4808   6.683   5.888   0.504 -1.7209  0.8046 -0.7521
   59MOL    H53 4809   6.789   6.025   0.454  0.2318 -0.1545  1.0571
   59MOL    C54 4810   6.948   5.834   0.488 -0.7953 -0.1391  0.1363
   59MOL    O55 4811   6.920   5.789   0.621  0.9303  0.4860 -0.6178
   59MOL    H56 4812   6.983   5.938   0.492  0.4964 -0.5897  0.6443
   59MOL    H57 4813   7.028   5.781   0.438  0.4708  0.1885  1.7873
   59MOL    C58 4814   6.863   5.666   0.614  0.4041  0.5360  0.7798
   59MOL    O59 4815   6.858   5.612   0.743  0.4858 -0.1141  0.2875
   59MOL    H60 4816   6.925   5.598   0.555 -0.5166  0.4585 -0.1227
   59MOL    H61 4817   6.763   5.661   0.571 -0.0778  0.7388  1.8578
   59MOL    C62 4818   6.763   5.505   0.749 -0.1506 -0.0890  0.1205
   59MOL    O63 4819   6.777   5.413   0.648 -0.3171  0.2195 -0.2731
   59MOL    H64 4820   6.662   5.546   0.753  0.3999  1.1631  2.2934
   59MOL    H65 4821   6.772   5.448   0.842 -0.2543 -1.2532 -0.5812
   59MOL    C66 4822   6.889   5.328   0.670 -0.2349  0.3186 -0.4064
   59MOL    O67 4823   6.856   5.233   0.772  0.4513 -0.7783 -0.0152
   59MOL    H68 4824   6.980   5.381   0.698  0.3347 -0.3558 -0.9811
   59MOL    H69 4825   6.907   5.269   0.580 -0.2864 -0.2766 -0.0278
   59MOL    C70 4826   6.762   5.144   0.731 -0.3356  0.2104 -0.7528
   59MOL    O71 4827   6.667   5.117   0.823 -0.0191  0.6411 -0.7384
   59MOL    H72 4828   6.808   5.051   0.698  0.6200  0.1852  0.6472
   59MOL    H73 4829   6.697   5.179   0.650  0.2942  0.8814 -0.9707
   59MOL    C74 4830   6.705   5.023   0.921 -0.9904  1.1365 -0.1645
   59MOL    O75 4831   6.729   4.896   0.865 -0.6122 -0.4578 -0.0703
   59MOL    H76 4832   6.628   5.015   0.998 -0.5118  3.3048  0.5655
   59MOL    H77 4833   6.800   5.050   0.966 -0.7619  0.6509 -0.3553
   59MOL    C78 4834   6.617   4.837   0.819 -0.2032 -0.5623 -0.1928
   59MOL    O79 4835   6.634   4.752   0.714  0.2022  0.0300  0.2014
   59MOL    H80 4836   6.549   4.912   0.778 -0.2953 -0.9196 -0.6983
   59MOL    H81 4837   6.567   4.790   0.904  0.0425 -1.3938 -0.5016
   59MOL    H82 4838   6.561   4.693   0.706  1.1228 -0.9649 -1.1330
   60MOL     C1 4839   6.596   6.976   4.200  0.2635  0.7525  0.0724
   60MOL     O2 4840   6.706   6.994   4.284 -0.3504  0.4860  0.2177
   60MOL     H3 4841   6.522   6.912   4.248  1.5203  0.6044  1.8395
   60MOL     H4 4842   6.540   7.067   4.177 -3.2650 -0.5478  3.0135
   60MOL     H5 4843   6.623   6.921   4.109  1.4361  0.6241  0.4926
   60MOL     C6 4844   6.784   7.106   4.251 -0.1084  0.3455 -0.7073
   60MOL     O7 4845   6.847   7.084   4.127 -0.3127 -0.0804 -0.1213
   60MOL     H8 4846   6.851   7.133   4.332 -0.3730 -0.7636 -0.1097
   60MOL     H9 4847   6.721   7.195   4.243  2.2869  2.4005  2.2926
   60MOL    C10 4848   6.917   7.194   4.086  0.4239 -0.1205 -0.1272
   60MOL    O11 4849   6.841   7.304   4.044  0.2494 -0.4061 -0.2535
   60MOL    H12 4850   6.988   7.171   4.007 -1.1850 -0.6325 -1.4603
   60MOL    H13 4851   6.982   7.227   4.167  0.0231  2.6589 -0.8661
   60MOL    C14 4852   6.751   7.261   3.943  0.1801 -0.2828  0.1429
   60MOL    O15 4853   6.650   7.362   3.907  0.4715  0.2374 -0.2867
   60MOL    H16 4854   6.690   7.179   3.982 -2.3813  0.9752 -1.1030
   60MOL    H17 4855   6.805   7.239   3.851 -0.8667  2.8195 -1.2787
   60MOL    C18 4856   6.699   7.485   3.862  0.1314  0.4644  0.4410
   60MOL    O19 4857   6.603   7.587   3.886  0.1470 -0.4767  0.1887
   60MOL    H20 4858   6.711   7.476   3.754  1.0623  1.3412  0.4637
   60MOL    H21 4859   6.792   7.509   3.911  1.1465  0.4710 -1.4249
   60MOL    C22 4860   6.623   7.634   4.016  0.6838 -0.5915  0.3619
   60MOL    O23 4861   6.713   7.746   4.003 -0.3211  0.2668 -0.0577
   60MOL    H24 4862   6.662   7.565   4.090  0.9320 -0.7765  0.0614
   60MOL    H25 4863   6.528   7.677   4.046  0.4086 -2.0638  1.6609
   60MOL    C26 4864   6.676   0.078   3.938 -0.6806 -0.2078 -0.3115
   60MOL    O27 4865   6.701   0.071   3.802  0.1408 -0.5398 -0.8641
   60MOL    H28 4866   6.712   0.168   3.989 -1.8980  0.9152 -1.4079
   60MOL    H29 4867   6.568   0.085   3.940 -0.6469  1.0525 -1.8597
   60MOL    C30 4868   6.834   0.058   3.767  0.3762 -0.2904 -0.7146
   60MOL    O31 4869   6.900   0.170   3.820 -0.2442 -0.6512 -0.2164
   60MOL    H32 4870   6.854   0.040   3.661  0.7535  1.3476 -0.9303
   60MOL    H33 4871   6.882   7.761   3.824  0.5132  1.5351  1.8316
   60MOL    C34 4872   6.885   0.282   3.736  0.7430 -0.0160 -0.6147
   60MOL    O35 4873   6.912   0.250   3.602 -0.5564 -0.5544  0.5048
   60MOL    H36 4874   6.936   0.369   3.778  1.5026 -0.3299 -0.8761
   60MOL    H37 4875   6.779   0.304   3.745  0.6189 -0.9811  0.4130
   60MOL    C38 4876   7.048   0.253   3.571  0.2994  0.4568  0.4845
   60MOL    O39 4877   7.102   0.381   3.583 -0.1640  0.3202 -0.0007
   60MOL    H40 4878   7.062   0.219   3.469 -1.8703 -0.8370  0.5847
   60MOL    H41 4879   7.090   0.176   3.635  0.6069 -0.0874 -0.3728
   60MOL    C42 4880   7.232   0.390   3.545 -0.4236 -0.0052  0.6495
   60MOL    O43 4881   7.246   0.381   3.404 -0.2427  0.1487  0.0288
   60MOL    H44 4882   7.278   0.299   3.583 -0.5278  0.6228  2.3102
   60MOL    H45 4883   7.271   0.485   3.581  2.3260 -0.9184  0.2027
   60MOL    C46 4884   7.178   0.463   3.327 -0.1768 -0.2171 -0.6612
   60MOL    O47 4885   7.248   0.586   3.318  0.7706 -0.3274  0.7475
   60MOL    H48 4886   7.071   0.477   3.346 -0.6230 -0.2494 -2.9040
   60MOL    H49 4887   7.180   0.418   3.228 -0.3513  3.5970 -2.5037
   60MOL    C50 4888   7.197   0.686   3.401 -0.4225  0.2714 -0.8763
   60MOL    O51 4889   7.083   0.739   3.340 -0.3042 -0.2453  0.0047
   60MOL    H52 4890   7.267   0.770   3.405 -0.1370 -0.0100  0.7465
   60MOL    H53 4891   7.173   0.657   3.503  0.6059 -2.6340 -1.4128
   60MOL    C54 4892   7.029   0.847   3.411  0.5037  0.2472 -0.0028
   60MOL    O55 4893   6.995   0.824   3.542  0.9874  0.1175 -0.0884
   60MOL    H56 4894   6.938   0.883   3.364 -0.6003 -1.8137  0.4716
   60MOL    H57 4895   7.101   0.928   3.397  2.5286 -1.5503 -0.3209
   60MOL    C58 4896   6.896   0.728   3.567 -0.2812 -0.1592  0.5138
   60MOL    O59 4897   6.778   0.769   3.513  0.1509  0.5788 -0.7160
   60MOL    H60 4898   6.891   0.704   3.674  0.2518  0.4498  0.6777
   60MOL    H61 4899   6.943   0.636   3.533  0.1916  0.5939 -0.8896
   60MOL    C62 4900   6.671   0.697   3.569  0.0546  0.2218  0.2290
   60MOL    O63 4901   6.657   0.731   3.705  0.2036 -0.3498 -0.2211
   60MOL    H64 4902   6.684   0.590   3.550 -2.1967  0.2405 -1.7068
   60MOL    H65 4903   6.584   0.727   3.511 -1.9206 -0.0113  2.9678
   60MOL    C66 4904   6.646   0.865   3.728 -0.3540 -0.2836  0.0732
   60MOL    O67 4905   6.513   0.905   3.731 -0.3299  0.3758  0.3896
   60MOL    H68 4906   6.694   0.938   3.663  0.0721 -0.0674  0.6238
   60MOL    H69 4907   6.699   0.885   3.822 -0.3234 -0.0262  0.0027
   60MOL    C70 4908   6.445   0.871   3.849  0.0361  0.0379 -0.3709
   60MOL    O71 4909   6.321   0.932   3.840 -0.0969 -0.2091  0.0409
   60MOL    H72 4910   6.494   0.924   3.930  2.1945 -0.1218 -1.5315
   60MOL    H73 4911   6.447   0.763   3.866  1.2597 -0.4551 -3.2306
   60MOL    C74 4912   6.244   0.862   3.742 -0.3190  0.2437 -0.1363
   60MOL    O75 4913   6.182   0.756   3.803  0.4849 -0.2335 -0.2424
   60MOL    H76 4914   6.298   0.825   3.656 -2.1369 -1.3469 -0.6269
   60MOL    H77 4915   6.168   0.929   3.703 -0.4029  0.2656  0.0646
   60MOL    C78 4916   6.084   0.809   3.899  0.3061  0.2006 -0.1457
   60MOL    O79 4917   6.012   0.703   3.961 -0.5766 -0.5120  0.3709
   60MOL    H80 4918   6.008   0.861   3.841 -1.2050  3.0748  4.2018
   60MOL    H81 4919   6.135   0.863   3.978 -0.0135  0.5143 -0.1509
   60MOL    H82 4920   5.974   0.651   3.891 -2.7244  0.2659  0.9243
   61MOL     C1 4921   0.556   7.216   0.870  0.1027  0.6275 -0.5982
   61MOL     O2 4922   0.609   7.170   0.742 -1.1014 -0.3195 -0.3628
   61MOL     H3 4923   0.608   7.160   0.948 -0.0069  0.4369 -0.6618
   61MOL     H4 4924   0.554   7.322   0.894 -0.9308  0.1773  1.4438
   61MOL     H5 4925   0.452   7.190   0.891  0.9095 -1.5364  0.8719
   61MOL     C6 4926   0.623   7.028   0.734 -0.8038 -0.4316  0.1242
   61MOL     O7 4927   0.741   6.981   0.797 -0.1956 -0.2280 -0.1873
   61MOL     H8 4928   0.616   7.000   0.629 -1.8030  0.3674 -0.0239
   61MOL     H9 4929   0.536   6.993   0.789 -0.1357 -2.6706 -0.1999
   61MOL    C10 4930   0.735   6.852   0.836  0.0822  0.1501  0.8429
   61MOL    O11 4931   0.649   6.838   0.938 -0.2308 -0.5160  0.1266
   61MOL    H12 4932   0.834   6.815   0.864 -0.7336 -1.4939  1.6433
   61MOL    H13 4933   0.717   6.782   0.755  0.3866  2.5907 -1.3914
   61MOL    C14 4934   0.711   6.874   1.061  0.4907 -0.3060 -0.2028
   61MOL    O15 4935   0.821   6.786   1.091 -0.4589  0.0108  0.1183
   61MOL    H16 4936   0.639   6.857   1.141  1.4631 -0.2400  0.6997
   61MOL    H17 4937   0.740   6.979   1.053  1.5013 -0.5742 -0.1048
   61MOL    C18 4938   0.790   6.651   1.115  0.2125  0.1975 -0.4261
   61MOL    O19 4939   0.739   6.628   1.239 -0.0571  0.4374  0.3302
   61MOL    H20 4940   0.874   6.591   1.083 -0.0334  1.1951 -3.0184
   61MOL    H21 4941   0.712   6.630   1.042 -0.3720 -0.5206  0.3801
   61MOL    C22 4942   0.837   6.629   1.335  0.1545  0.4218 -0.1366
   61MOL    O23 4943   0.929   6.523   1.320 -0.1258  0.3190 -0.8926
   61MOL    H24 4944   0.791   6.638   1.434  0.2889  0.0037 -0.0356
   61MOL    H25 4945   0.885   6.727   1.326  2.2637 -0.6546 -0.9075
   61MOL    C26 4946   0.882   6.406   1.379  0.1684  0.7511  0.5389
   61MOL    O27 4947   0.842   6.416   1.513  0.4164 -0.2244  0.2213
   61MOL    H28 4948   0.947   6.318   1.370  0.3303  1.0393 -1.1671
   61MOL    H29 4949   0.792   6.384   1.323  0.9573  1.9197 -1.2283
   61MOL    C30 4950   0.937   6.446   1.607  0.4552 -0.4523 -0.4024
   61MOL    O31 4951   0.892   6.429   1.736 -0.2808 -0.2281  0.4486
   61MOL    H32 4952   0.959   6.552   1.591  2.1344 -0.5835  0.9660
   61MOL    H33 4953   1.027   6.387   1.589 -1.1197 -3.2118  0.4668
   61MOL    C34 4954   0.794   6.519   1.772  0.0132  0.2088 -0.7070
   61MOL    O35 4955   0.846   6.639   1.821  0.0347 -0.1320 -0.7263
   61MOL    H36 4956   0.739   6.466   1.850 -0.7973  1.3951 -0.4653
   61MOL    H37 4957   0.729   6.543   1.688 -0.5925  0.8288 -0.0698
   61MOL    C38 4958   0.880   6.649   1.962  0.0515  0.0712  0.0963
   61MOL    O39 4959   0.763   6.634   2.037  0.5357 -0.7121  0.7794
   61MOL    H40 4960   0.935   6.742   1.975 -0.9578  0.5149  1.3181
   61MOL    H41 4961   0.952   6.570   1.979  0.5713  0.4342 -0.4111
   61MOL    C42 4962   0.690   6.750   2.040 -0.3238  0.8593  0.3421
   61MOL    O43 4963   0.582   6.724   2.123 -0.0031  0.0950 -0.3224
   61MOL    H44 4964   0.660   6.768   1.936  0.6567 -0.5341 -0.1969
   61MOL    H45 4965   0.750   6.840   2.057  1.0142 -0.0185  0.3607
   61MOL    C46 4966   0.495   6.619   2.080 -0.1630 -0.6724  0.2581
   61MOL    O47 4967   0.366   6.656   2.085  0.0783 -0.0157 -0.1210
   61MOL    H48 4968   0.508   6.527   2.137 -2.8425 -1.0961  0.2487
   61MOL    H49 4969   0.496   6.596   1.974  0.1110 -1.6053  0.4582
   61MOL    C50 4970   0.317   6.661   2.215 -0.1537 -0.3272  0.1079
   61MOL    O51 4971   0.273   6.540   2.272  0.7665  0.1942  0.2128
   61MOL    H52 4972   0.233   6.727   2.194  1.3456  1.5857 -0.1047
   61MOL    H53 4973   0.388   6.721   2.273  0.9182 -0.2730 -1.2379
   61MOL    C54 4974   0.160   6.480   2.214 -0.6127 -0.2285  0.5219
   61MOL    O55 4975   0.042   6.551   2.227  0.2461  0.3789 -0.4753
   61MOL    H56 4976   0.153   6.375   2.243  2.9516 -0.7531 -0.2464
   61MOL    H57 4977   0.194   6.473   2.111  2.5581  0.1925  1.4748
   61MOL    C58 4978   7.761   6.526   2.352 -0.4803 -0.2793  0.2832
   61MOL    O59 4979   7.727   6.392   2.376  0.3314  0.1059  0.3797
   61MOL    H60 4980   7.670   6.586   2.345 -0.3513 -0.2095 -0.9169
   61MOL    H61 4981   0.043   6.565   2.429  0.8366  0.1133 -1.0193
   61MOL    C62 4982   7.650   6.339   2.275  0.0023  0.6178 -0.5255
   61MOL    O63 4983   7.522   6.393   2.272  0.4501  0.2527 -0.9177
   61MOL    H64 4984   7.631   6.233   2.291 -0.2469  0.8648  0.8525
   61MOL    H65 4985   7.702   6.355   2.180  1.5142  0.7716  0.3025
   61MOL    C66 4986   7.472   6.389   2.143 -0.3843 -0.2102 -0.0571
   61MOL    O67 4987   7.465   6.260   2.090  0.3472 -0.3374 -0.5398
   61MOL    H68 4988   7.526   6.465   2.086  1.2042  0.9323  2.8788
   61MOL    H69 4989   7.373   6.433   2.154 -0.1145 -0.0870  1.9317
   61MOL    C70 4990   7.347   6.196   2.120 -0.2071 -0.0832  0.0848
   61MOL    O71 4991   7.332   6.078   2.043 -0.0178 -0.1711 -0.1902
   61MOL    H72 4992   7.252   6.248   2.118 -0.1422  0.0618  0.7483
   61MOL    H73 4993   7.356   6.156   2.221  1.2638  0.9757  0.3812
   61MOL    C74 4994   7.294   6.095   1.909 -0.0765  0.4001 -0.2554
   61MOL    O75 4995   7.174   6.155   1.893  0.4698  0.2660 -0.1423
   61MOL    H76 4996   7.280   5.992   1.879  1.3737  0.4516 -1.1483
   61MOL    H77 4997   7.373   6.150   1.858 -0.6939  0.2807 -1.3506
   61MOL    C78 4998   7.176   6.283   1.855  0.0883 -0.8563  0.1528
   61MOL    O79 4999   7.048   6.342   1.856  0.5641  0.1153  0.4033
   61MOL    H80 5000   7.209   6.284   1.751  0.3805  2.6023  0.1916
   61MOL    H81 5001   7.251   6.339   1.911  0.0523 -0.1752 -0.4593
   61MOL    H82 5002   7.036   6.400   1.929  1.6206 -0.4578  1.0488
   62MOL     C1 5003   0.399   6.722   0.597  0.1881 -0.7182 -0.4861
   62MOL     O2 5004   0.364   6.622   0.505  0.2081 -0.2180 -0.0072
   62MOL     H3 5005   0.490   6.693   0.650  0.0862 -1.0713 -0.4985
   62MOL     H4 5006   0.439   6.810   0.549 -1.2420 -0.0447 -0.4526
   62MOL     H5 5007   0.322   6.750   0.669  0.5917  0.6688 -0.5953
   62MOL     C6 5008   0.240   6.663   0.448  0.4776  0.2503  0.0543
   62MOL     O7 5009   0.242   6.779   0.374  0.2778  0.2108 -0.0986
   62MOL     H8 5010   0.166   6.673   0.527  0.1954  1.9959 -0.4122
   62MOL     H9 5011   0.215   6.572   0.393 -0.5680  0.5744 -0.0266
   62MOL    C10 5012   0.194   6.757   0.250 -0.4300  0.2382  0.8038
   62MOL    O11 5013   0.053   6.751   0.257  0.3692  0.1512  0.4659
   62MOL    H12 5014   0.233   6.668   0.202  1.8575  1.6733 -0.0710
   62MOL    H13 5015   0.234   6.839   0.191  1.1061 -0.7913  0.3927
   62MOL    C14 5016   7.777   6.694   0.141  0.3817  0.1362 -0.3475
   62MOL    O15 5017   7.642   6.736   0.136 -0.4511 -0.3089  0.0705
   62MOL    H16 5018   7.769   6.585   0.143 -1.0624  0.2373  3.7532
   62MOL    H17 5019   0.052   6.724   0.054 -0.7621 -1.0772 -1.5511
   62MOL    C18 5020   7.623   6.855   0.064 -0.0613 -0.0739 -0.0481
   62MOL    O19 5021   7.628   6.842   7.712  0.7433 -0.0362  0.1156
   62MOL    H20 5022   7.705   6.917   0.099  0.5658 -1.3940  0.8620
   62MOL    H21 5023   7.524   6.887   0.096 -1.3762 -2.3806 -1.6117
   62MOL    C22 5024   7.590   6.959   7.645  0.4524  0.4793 -0.1418
   62MOL    O23 5025   7.463   7.002   7.678  0.1918 -0.5556  0.7539
   62MOL    H24 5026   7.585   6.928   7.541  0.3074 -0.3066  0.0887
   62MOL    H25 5027   7.669   7.032   7.660  0.5891  0.2848  0.0941
   62MOL    C26 5028   7.357   6.971   7.590 -0.0099  0.1674 -0.6481
   62MOL    O27 5029   7.359   7.050   7.479  0.2987 -0.0786  0.5831
   62MOL    H28 5030   7.263   6.979   7.645  0.6526  1.8256  0.2783
   62MOL    H29 5031   7.352   6.869   7.550 -0.7472 -0.6643  1.4967
   62MOL    C30 5032   7.335   7.187   7.513 -0.0991 -0.2181  0.3043
   62MOL    O31 5033   7.408   7.275   7.427 -0.1656 -0.3130  0.5885
   62MOL    H32 5034   7.367   7.212   7.615 -1.6300  0.3419  0.6697
   62MOL    H33 5035   7.228   7.202   7.504 -0.1748 -1.2227 -0.4839
   62MOL    C34 5036   7.349   7.280   7.295  0.2317 -0.4507 -1.0410
   62MOL    O35 5037   7.220   7.338   7.291 -0.0546 -0.2274  0.8398
   62MOL    H36 5038   7.362   7.179   7.255 -0.9602 -2.0747  2.4551
   62MOL    H37 5039   7.412   7.349   7.240 -2.4699  2.5210 -0.5333
   62MOL    C38 5040   7.221   7.473   7.293 -0.1260  0.3260  0.0709
   62MOL    O39 5041   7.255   7.525   7.164  0.1063 -0.6544 -0.1068
   62MOL    H40 5042   7.282   7.506   7.377 -1.2161  1.3068  0.4931
   62MOL    H41 5043   7.122   7.513   7.313 -0.5358  0.9692 -2.9391
   62MOL    C42 5044   7.301   7.659   7.172  0.0684  0.0812  0.0075
   62MOL    O43 5045   7.193   7.741   7.181 -0.7236 -0.2044  0.1804
   62MOL    H44 5046   7.363   7.673   7.083  0.2488  0.0236  0.1237
   62MOL    H45 5047   7.364   7.679   7.258 -2.3535 -0.7673  2.0481
   62MOL    C46 5048   7.178   0.046   7.072  0.5034  1.0406  0.4838
   62MOL    O47 5049   7.110   7.759   6.968  0.1456  0.3951  0.3772
   62MOL    H48 5050   7.270   0.087   7.029  0.5133  0.6231  0.1086
   62MOL    H49 5051   7.123   0.133   7.108 -0.4956  0.2983  0.7597
   62MOL    C50 5052   6.992   7.710   7.010  0.2369 -0.3644 -0.3722
   62MOL    O51 5053   6.913   0.024   7.054  0.2799  0.5119  0.1581
   62MOL    H52 5054   7.003   7.643   7.095  0.2512 -0.6826 -0.6259
   62MOL    H53 5055   6.937   7.656   6.933  0.6320  0.3675 -1.1811
   62MOL    C54 5056   6.846   0.089   6.951 -0.0177  0.0951 -0.8551
   62MOL    O55 5057   6.761   0.002   6.876  0.0582  0.5571 -0.3761
   62MOL    H56 5058   6.920   0.123   6.879 -0.5269  3.4884  0.1417
   62MOL    H57 5059   6.795   0.170   7.003  0.7914 -0.3434  0.6607
   62MOL    C58 5060   6.642   7.757   6.942  0.5657  0.0652 -0.2395
   62MOL    O59 5061   6.548   0.082   6.931 -0.3516  0.4298  0.2743
   62MOL    H60 5062   6.663   7.734   7.046  2.6982 -0.0844 -0.6846
   62MOL    H61 5063   6.611   7.667   6.890  1.1671 -0.7861  0.8543
   62MOL    C62 5064   6.503   0.100   6.803  0.2641 -0.5243  0.1636
   62MOL    O63 5065   6.428   7.778   6.755  0.4028 -0.5198  0.4154
   62MOL    H64 5066   6.584   0.126   6.735 -1.7763  0.0582 -2.0857
   62MOL    H65 5067   6.438   0.188   6.806  0.7570 -0.1631  0.2663
   62MOL    C66 5068   6.314   7.749   6.834  0.4168 -0.3586  0.2361
   62MOL    O67 5069   6.209   0.056   6.808  0.1562  0.1905  0.1112
   62MOL    H68 5070   6.332   7.742   6.941 -0.9451  0.9737  0.5740
   62MOL    H69 5071   6.283   7.650   6.801  1.4278  0.4483 -3.4165
   62MOL    C70 5072   6.178   0.060   6.671 -0.5791  0.0717 -0.7578
   62MOL    O71 5073   6.069   0.142   6.655 -0.8846 -0.2414 -0.1482
   62MOL    H72 5074   6.154   7.742   6.637 -0.3717 -0.7026  1.3089
   62MOL    H73 5075   6.262   0.106   6.620  1.0021 -0.3879  1.3971
   62MOL    C74 5076   5.949   0.095   6.708  0.2445 -0.1222  0.2958
   62MOL    O75 5077   5.837   0.138   6.638 -0.1768  0.4711  0.1153
   62MOL    H76 5078   5.936   0.107   6.816 -1.6761  1.5166 -0.0881
   62MOL    H77 5079   5.947   7.771   6.697 -2.3522 -0.0252 -0.3155
   62MOL    C78 5080   5.809   0.270   6.666  0.5548  0.2224  0.3835
   62MOL    O79 5081   5.684   0.304   6.615  0.0817 -0.0935  0.5472
   62MOL    H80 5082   5.877   0.344   6.624  0.1578  0.7900  0.7399
   62MOL    H81 5083   5.804   0.299   6.771 -0.0872 -0.6566  0.6063
   62MOL    H82 5084   5.689   0.308   6.521 -1.5665 -0.6189  0.4318
   63MOL     C1 5085   0.805   0.162   6.390 -0.5144 -0.8795  0.0654
   63MOL     O2 5086   0.908   0.243   6.345  0.4090  0.0342  0.1736
   63MOL     H3 5087   0.823   0.113   6.486  3.0986  1.2895  0.5944
   63MOL     H4 5088   0.719   0.227   6.394 -0.0049 -0.3146  2.2503
   63MOL     H5 5089   0.809   0.086   6.311 -0.0461  1.6890 -2.4873
   63MOL     C6 5090   0.963   0.332   6.431  0.2421 -0.3777  0.5384
   63MOL     O7 5091   0.879   0.423   6.484  0.0949 -0.0741  0.1124
   63MOL     H8 5092   1.041   0.384   6.377  1.2272 -0.7424  1.5794
   63MOL     H9 5093   1.011   0.276   6.512 -0.1378 -2.1326 -0.4193
   63MOL    C10 5094   0.839   0.521   6.394 -0.2943 -0.0674 -0.9723
   63MOL    O11 5095   0.944   0.604   6.354  0.3375 -0.4128  0.2911
   63MOL    H12 5096   0.756   0.581   6.433  1.0393  0.6793  0.8085
   63MOL    H13 5097   0.789   0.475   6.309  0.5308 -0.4224 -1.2707
   63MOL    C14 5098   0.895   0.703   6.264 -0.1632 -0.6967 -0.1276
   63MOL    O15 5099   0.843   0.648   6.146  0.0087  0.2659 -0.7983
   63MOL    H16 5100   0.984   0.764   6.245 -0.5475  0.5468  1.9152
   63MOL    H17 5101   0.832   0.777   6.314  1.7907  2.0618 -1.5732
   63MOL    C18 5102   0.942   0.582   6.066  0.4851 -0.1126 -0.0274
   63MOL    O19 5103   0.892   0.544   5.940  0.0056 -0.6863 -0.1767
   63MOL    H20 5104   0.983   0.499   6.123 -0.7351 -1.0279 -0.4661
   63MOL    H21 5105   1.024   0.654   6.066 -0.4017  0.9433 -1.3900
   63MOL    C22 5106   0.833   0.421   5.949  0.9104  0.2376  0.0163
   63MOL    O23 5107   0.915   0.317   5.992  0.2692 -0.1573  0.1391
   63MOL    H24 5108   0.799   0.385   5.852 -1.4890  1.8290  0.2335
   63MOL    H25 5109   0.747   0.433   6.015  1.6901  1.6469  0.7942
   63MOL    C26 5110   0.848   0.205   6.027 -0.0948 -0.6663 -0.3738
   63MOL    O27 5111   0.788   0.139   5.915  0.1236  0.5890 -0.3622
   63MOL    H28 5112   0.764   0.216   6.097  2.1289  1.8998  2.0247
   63MOL    H29 5113   0.918   0.139   6.077  3.6156  1.5915 -2.4072
   63MOL    C30 5114   0.881   0.075   5.835  0.4465 -0.0238 -0.0676
   63MOL    O31 5115   0.929   7.736   5.890  0.5450  0.1835 -0.6851
   63MOL    H32 5116   0.959   0.150   5.820  1.6656 -1.3613 -0.5410
   63MOL    H33 5117   0.827   0.047   5.745  2.0899 -1.3978 -0.6546
   63MOL    C34 5118   0.838   7.629   5.876 -0.4394 -0.0532  0.1834
   63MOL    O35 5119   0.830   7.586   5.748 -0.1168 -0.0929 -0.4923
   63MOL    H36 5120   0.738   7.662   5.905 -0.1171 -1.1655  2.6704
   63MOL    H37 5121   0.868   7.550   5.946  0.5606 -0.3545 -0.5764
   63MOL    C38 5122   0.946   7.530   5.704 -0.0879 -0.0532 -0.5166
   63MOL    O39 5123   0.957   7.403   5.751  0.4154  0.1622 -0.0748
   63MOL    H40 5124   1.033   7.582   5.742  0.5031 -1.6988  0.4226
   63MOL    H41 5125   0.941   7.535   5.595  2.4831  0.2375 -0.6465
   63MOL    C42 5126   0.877   7.311   5.685  0.3486 -0.0595  0.3380
   63MOL    O43 5127   0.926   7.283   5.556  0.2661 -0.2303 -0.0656
   63MOL    H44 5128   0.774   7.347   5.684  0.7008  0.9707  1.0805
   63MOL    H45 5129   0.888   7.221   5.746  0.9501  0.5135  1.0737
   63MOL    C46 5130   0.858   7.181   5.489  0.0301  0.4749 -0.0939
   63MOL    O47 5131   0.851   7.057   5.560  0.0800 -0.3527  0.2921
   63MOL    H48 5132   0.916   7.177   5.396 -0.4691  1.9629 -0.4816
   63MOL    H49 5133   0.757   7.210   5.463 -0.8538 -3.2034 -1.0382
   63MOL    C50 5134   0.976   6.997   5.569 -0.1433 -0.0015  0.3726
   63MOL    O51 5135   1.011   6.927   5.450 -0.2313 -0.4905 -0.1660
   63MOL    H52 5136   0.960   6.914   5.638  2.8489  0.0212  1.1673
   63MOL    H53 5137   1.046   7.070   5.609 -1.1952  0.6761  0.9721
   63MOL    C54 5138   1.135   6.862   5.455  0.1006  0.3928  0.0685
   63MOL    O55 5139   1.124   6.726   5.441 -0.4507  0.0627 -0.5120
   63MOL    H56 5140   1.181   6.873   5.554 -0.7054 -0.9252  0.5959
   63MOL    H57 5141   1.202   6.914   5.387  2.3523 -0.6396  1.4334
   63MOL    C58 5142   1.075   6.691   5.312  0.0466  0.4639  0.3525
   63MOL    O59 5143   1.177   6.679   5.216  0.2155 -0.3102 -0.3704
   63MOL    H60 5144   0.999   6.761   5.277 -0.5339 -0.4103 -0.1773
   63MOL    H61 5145   1.015   6.599   5.315 -0.5401  0.9040  2.3814
   63MOL    C62 5146   1.169   6.784   5.116 -0.6228 -0.6197 -0.4772
   63MOL    O63 5147   1.050   6.776   5.036 -0.3533 -0.1275  0.2767
   63MOL    H64 5148   1.256   6.768   5.053 -1.1291 -2.6695 -0.7131
   63MOL    H65 5149   1.187   6.879   5.167  0.4483 -0.0451 -1.9032
   63MOL    C66 5150   1.040   6.652   4.968 -0.0893  0.2330 -0.5026
   63MOL    O67 5151   1.121   6.652   4.854 -0.0757  0.1771 -0.2384
   63MOL    H68 5152   0.936   6.637   4.940  0.1011 -1.5824 -0.3203
   63MOL    H69 5153   1.060   6.564   5.029 -3.3303 -1.7116 -2.0851
   63MOL    C70 5154   1.073   6.743   4.760  1.1075  0.1069  1.4178
   63MOL    O71 5155   1.158   6.748   4.647 -0.1652  0.5294 -0.3445
   63MOL    H72 5156   1.061   6.835   4.816 -0.2535  0.3039  0.7981
   63MOL    H73 5157   0.974   6.720   4.721  0.4255 -1.0547  3.7230
   63MOL    C74 5158   1.129   6.856   4.568  0.2401 -0.2453  0.7048
   63MOL    O75 5159   0.998   6.870   4.526  0.4151 -0.7007  0.5849
   63MOL    H76 5160   1.196   6.861   4.482 -1.7087  0.3436 -0.8153
   63MOL    H77 5161   1.153   6.947   4.623 -0.3203 -0.2217  0.9121
   63MOL    C78 5162   0.959   6.766   4.453  0.4034  0.7316 -0.0210
   63MOL    O79 5163   0.822   6.777   4.416 -0.5060 -0.5814  0.1745
   63MOL    H80 5164   0.971   6.669   4.501 -0.6328 -0.1288 -1.4629
   63MOL    H81 5165   1.015   6.755   4.360  0.0866  0.7092 -0.2095
   63MOL    H82 5166   0.785   6.850   4.464  0.0894 -0.5204  0.5446
   64MOL     C1 5167   2.475   1.213   4.451  0.5107  0.3005 -0.1539
   64MOL     O2 5168   2.486   1.072   4.464 -0.6312  0.5187  0.5280
   64MOL     H3 5169   2.561   1.263   4.496 -0.1942  2.4572 -1.1282
   64MOL     H4 5170   2.453   1.250   4.350  0.2639  0.0573 -0.1904
   64MOL     H5 5171   2.399   1.254   4.518  2.8470  2.8032  1.0357
   64MOL     C6 5172   2.503   1.032   4.597 -0.5744  0.3630 -0.1677
   64MOL     O7 5173   2.633   1.074   4.633  0.5108  0.0701  0.4271
   64MOL     H8 5174   2.493   0.924   4.597 -0.2990  0.3140 -2.7168
   64MOL     H9 5175   2.419   1.061   4.661  1.4737 -2.1145  3.8910
   64MOL    C10 5176   2.671   1.046   4.767  0.2608  0.0458  0.0412
   64MOL    O11 5177   2.661   0.909   4.797 -0.0092 -0.2062  0.1756
   64MOL    H12 5178   2.600   1.092   4.836 -0.8432 -1.4247 -0.1007
   64MOL    H13 5179   2.771   1.085   4.786  0.0186  0.8162 -0.2561
   64MOL    C14 5180   2.746   0.836   4.725  0.3760 -0.4745 -0.1004
   64MOL    O15 5181   2.762   0.710   4.786  0.0089 -0.0049  0.3922
   64MOL    H16 5182   2.843   0.882   4.709  0.7754 -1.1043  0.4972
   64MOL    H17 5183   2.700   0.836   4.626  0.6221  1.4902 -0.2369
   64MOL    C18 5184   2.861   0.710   4.883 -0.3610  0.0962  0.1714
   64MOL    O19 5185   2.989   0.712   4.820 -0.2937 -0.5973 -0.2799
   64MOL    H20 5186   2.855   0.627   4.954 -1.0050  0.4880  0.5869
   64MOL    H21 5187   2.834   0.801   4.938 -0.5084 -0.3248  0.8008
   64MOL    C22 5188   3.037   0.581   4.809 -0.2867  0.0036 -0.1154
   64MOL    O23 5189   3.106   0.539   4.922 -0.2033  0.1778 -0.2605
   64MOL    H24 5190   3.101   0.569   4.722  0.5466  1.9629  0.1976
   64MOL    H25 5191   2.950   0.517   4.794 -1.1354  1.3163 -0.8858
   64MOL    C26 5192   3.230   0.607   4.942  0.4091 -0.1811  0.0596
   64MOL    O27 5193   3.292   0.559   5.060  0.0618 -0.1874 -0.1562
   64MOL    H28 5194   3.210   0.714   4.938  0.4521 -0.1853 -0.2637
   64MOL    H29 5195   3.288   0.592   4.851  0.5166 -0.5214  0.1822
   64MOL    C30 5196   3.363   0.438   5.033 -0.4615 -0.3284 -0.6396
   64MOL    O31 5197   3.482   0.472   4.963  0.4532  0.0775  0.4838
   64MOL    H32 5198   3.306   0.371   4.969  1.4821 -1.7753 -0.8890
   64MOL    H33 5199   3.386   0.398   5.132  0.3930  2.5381  0.3781
   64MOL    C34 5200   3.576   0.552   5.037  0.7189 -0.1182 -0.4158
   64MOL    O35 5201   3.688   0.567   4.961 -0.3596  0.0032 -0.1043
   64MOL    H36 5202   3.599   0.515   5.137 -3.7040 -1.1299  0.3040
   64MOL    H37 5203   3.533   0.650   5.058  1.1852 -0.2836  1.3764
   64MOL    C38 5204   3.754   0.446   4.949 -0.2676  0.1233 -0.3612
   64MOL    O39 5205   3.867   0.453   4.863 -0.5792  0.4273  0.4235
   64MOL    H40 5206   3.683   0.370   4.918  1.2458  0.4146 -4.8379
   64MOL    H41 5207   3.796   0.413   5.044  0.3839  1.9327  0.0125
   64MOL    C42 5208   3.956   0.550   4.906  0.1747 -0.3740  0.4901
   64MOL    O43 5209   4.007   0.510   5.031 -0.0821 -0.0078  0.4357
   64MOL    H44 5210   3.899   0.642   4.915 -2.5789 -1.9271 -0.4875
   64MOL    H45 5211   4.025   0.549   4.821 -2.5923 -2.5237 -1.8598
   64MOL    C46 5212   4.128   0.575   5.060 -0.1376  0.0324 -0.4131
   64MOL    O47 5213   4.109   0.714   5.051 -0.2125  0.6900 -0.3111
   64MOL    H48 5214   4.199   0.550   4.982 -0.4611 -1.4097 -0.2480
   64MOL    H49 5215   4.166   0.551   5.159  1.4030  1.9939 -0.4767
   64MOL    C50 5216   4.094   0.763   5.176 -0.4275  0.3174 -0.2246
   64MOL    O51 5217   3.966   0.752   5.219 -0.1914  0.4287  0.2820
   64MOL    H52 5218   4.108   0.870   5.165 -1.5444  0.7813  2.4180
   64MOL    H53 5219   4.162   0.720   5.250 -1.9900 -2.2616 -0.2336
   64MOL    C54 5220   3.947   0.805   5.346 -0.1247  0.1146 -0.2033
   64MOL    O55 5221   4.008   0.727   5.443  0.5802  0.4791  0.2650
   64MOL    H56 5222   3.838   0.806   5.356  0.0160 -0.2076  1.6445
   64MOL    H57 5223   3.987   0.906   5.353  0.5292 -0.0626 -1.3249
   64MOL    C58 5224   3.940   0.741   5.566 -0.5392 -1.2165  0.1259
   64MOL    O59 5225   3.994   0.847   5.645 -0.4999  0.3228  0.1760
   64MOL    H60 5226   3.967   0.645   5.609  1.0439 -1.4709 -1.4128
   64MOL    H61 5227   3.831   0.752   5.564 -0.4654 -0.2146  0.8972
   64MOL    C62 5228   4.130   0.833   5.680 -0.0465 -0.2976  0.6417
   64MOL    O63 5229   4.135   0.731   5.776  0.3416  0.5080  0.3530
   64MOL    H64 5230   4.133   0.935   5.720 -0.4794 -0.7196  1.7635
   64MOL    H65 5231   4.192   0.814   5.592  0.3386  0.9932  0.6212
   64MOL    C66 5232   4.204   0.614   5.734  0.2426 -0.9039  0.1440
   64MOL    O67 5233   4.344   0.636   5.719 -0.1292 -0.1882 -0.5069
   64MOL    H68 5234   4.160   0.574   5.642 -0.2992  2.3759 -1.1035
   64MOL    H69 5235   4.192   0.543   5.815  1.0255  1.8637  2.8034
   64MOL    C70 5236   4.414   0.527   5.677  0.5081  0.3887  0.2501
   64MOL    O71 5237   4.362   0.468   5.562  0.0027  0.2691  0.0655
   64MOL    H72 5238   4.412   0.456   5.760  1.4107  1.7337  1.4440
   64MOL    H73 5239   4.518   0.555   5.663  0.8725 -0.4882  1.0945
   64MOL    C74 5240   4.395   0.541   5.447  0.0222 -0.0097 -0.5284
   64MOL    O75 5241   4.342   0.481   5.333 -0.1209 -0.4841 -0.1835
   64MOL    H76 5242   4.502   0.552   5.429 -0.2562  1.7141 -1.2036
   64MOL    H77 5243   4.345   0.638   5.451  1.6828  1.0386 -3.3616
   64MOL    C78 5244   4.399   0.366   5.287 -0.3977 -0.1053 -0.3893
   64MOL    O79 5245   4.339   0.331   5.163  0.5845 -0.0603  0.4139
   64MOL    H80 5246   4.393   0.285   5.360 -0.0565  1.6287  1.6057
   64MOL    H81 5247   4.505   0.376   5.264 -0.3874  2.5688  0.6833
   64MOL    H82 5248   4.254   0.297   5.188 -0.4479  1.3745 -1.0436
   65MOL     C1 5249   5.123   3.297   7.231 -0.2705 -0.5358  0.0047
   65MOL     O2 5250   5.081   3.426   7.171 -0.1136  0.8206 -0.1573
   65MOL     H3 5251   5.089   3.278   7.333  2.8210 -1.0366  0.9738
   65MOL     H4 5252   5.104   3.219   7.156  1.6903 -0.5801 -0.4732
   65MOL     H5 5253   5.232   3.297   7.232 -0.2634  0.9159 -0.5947
   65MOL     C6 5254   4.947   3.436   7.133 -0.4488  0.1766  0.6325
   65MOL     O7 5255   4.924   3.340   7.028  0.2765  0.9049  0.1255
   65MOL     H8 5256   4.921   3.532   7.088 -3.1824 -0.3221  1.0914
   65MOL     H9 5257   4.882   3.420   7.218 -1.5100  1.2794  0.0316
   65MOL    C10 5258   4.968   3.374   6.905  0.2233 -0.0779  0.2340
   65MOL    O11 5259   4.886   3.468   6.855  0.5750  0.6149  0.0060
   65MOL    H12 5260   4.968   3.278   6.854 -0.1335 -0.9728  1.8807
   65MOL    H13 5261   5.069   3.413   6.914  0.2679  0.1232 -1.0522
   65MOL    C14 5262   4.758   3.415   6.829 -0.0380  0.5670 -0.2975
   65MOL    O15 5263   4.762   3.312   6.728  0.0996 -0.2285 -0.5577
   65MOL    H16 5264   4.696   3.500   6.800  1.5994  1.2443 -1.9065
   65MOL    H17 5265   4.724   3.385   6.928  0.9115 -0.5750 -0.3011
   65MOL    C18 5266   4.646   3.291   6.660 -0.2691  0.8309 -0.5058
   65MOL    O19 5267   4.608   3.406   6.591  0.0861 -0.0581 -0.4590
   65MOL    H20 5268   4.564   3.254   6.722 -1.0097  2.7237 -0.3065
   65MOL    H21 5269   4.663   3.208   6.592 -0.1841 -2.0792  2.8884
   65MOL    C22 5270   4.684   3.417   6.473  0.0949 -0.7867 -0.2838
   65MOL    O23 5271   4.619   3.350   6.367 -0.3495  0.0014  0.1687
   65MOL    H24 5272   4.788   3.387   6.478  0.9182  1.7848 -1.0685
   65MOL    H25 5273   4.698   3.520   6.440 -0.5528 -0.4459  0.4880
   65MOL    C26 5274   4.686   3.346   6.243 -0.0532 -0.5066 -0.7153
   65MOL    O27 5275   4.765   3.230   6.237 -0.2812 -0.1973  0.4011
   65MOL    H28 5276   4.739   3.432   6.203 -0.4686 -0.8745 -2.0842
   65MOL    H29 5277   4.606   3.322   6.173  0.0466 -0.8735 -0.7049
   65MOL    C30 5278   4.847   3.240   6.116  0.2466  0.3557  0.0846
   65MOL    O31 5279   4.935   3.346   6.102 -0.2841  0.7310 -0.1657
   65MOL    H32 5280   4.783   3.236   6.027  0.5562 -0.7962 -0.0966
   65MOL    H33 5281   4.905   3.148   6.108  1.5953  1.3991 -2.9944
   65MOL    C34 5282   5.039   3.357   6.197  0.0195 -0.2447  0.0494
   65MOL    O35 5283   5.145   3.267   6.175  0.4252  0.0757 -1.1214
   65MOL    H36 5284   4.992   3.337   6.293  0.1849 -0.6443  0.0516
   65MOL    H37 5285   5.067   3.462   6.200  1.5357 -0.6296  0.2017
   65MOL    C38 5286   5.212   3.281   6.053  0.7174  0.5772 -0.3331
   65MOL    O39 5287   5.276   3.397   6.052  0.2614 -0.5621 -0.4366
   65MOL    H40 5288   5.140   3.285   5.972 -0.1997  0.2507  0.4503
   65MOL    H41 5289   5.280   3.199   6.029  2.3256  0.9486  2.7519
   65MOL    C42 5290   5.386   3.401   6.132  0.6627  0.7886 -0.0076
   65MOL    O43 5291   5.493   3.350   6.062  0.3612  0.5002 -0.1104
   65MOL    H44 5292   5.384   3.337   6.220 -1.9979  1.1646  0.2386
   65MOL    H45 5293   5.375   3.507   6.156 -1.5974  1.2515 -2.8862
   65MOL    C46 5294   5.617   3.415   6.087 -0.1158  0.3924  0.2838
   65MOL    O47 5295   5.662   3.380   6.213 -0.4707  0.3536  0.2342
   65MOL    H48 5296   5.609   3.524   6.082 -1.3951  0.3496  1.0064
   65MOL    H49 5297   5.685   3.391   6.006 -1.0799  2.0060 -1.0364
   65MOL    C50 5298   5.703   3.246   6.218  0.0672  0.3517 -0.2364
   65MOL    O51 5299   5.816   3.242   6.305 -0.4370  0.2054  0.0357
   65MOL    H52 5300   5.728   3.196   6.124 -0.1807 -1.1688  0.4961
   65MOL    H53 5301   5.619   3.189   6.257 -1.5273  1.4218 -1.9761
   65MOL    C54 5302   5.925   3.309   6.251  0.1668  0.2866 -0.2209
   65MOL    O55 5303   5.954   3.286   6.113 -0.3039  0.1487 -0.2122
   65MOL    H56 5304   6.013   3.294   6.314  1.3248  1.5241 -1.5283
   65MOL    H57 5305   5.895   3.413   6.270 -0.9622  0.1870 -1.4019
   65MOL    C58 5306   6.009   3.156   6.087 -1.0626 -0.5649  0.0942
   65MOL    O59 5307   6.136   3.143   6.138  0.5173  0.2352 -0.1177
   65MOL    H60 5308   6.018   3.161   5.979  0.0938  0.1401  0.2072
   65MOL    H61 5309   5.940   3.077   6.117 -2.4674  0.3320 -0.7321
   65MOL    C62 5310   6.230   3.233   6.086 -0.3523  0.5919  0.0164
   65MOL    O63 5311   6.240   3.226   5.950 -0.0997  0.2747  0.0013
   65MOL    H64 5312   6.324   3.212   6.136 -0.4368 -0.1750 -0.1410
   65MOL    H65 5313   6.204   3.338   6.098 -2.2049  0.4315 -2.2540
   65MOL    C66 5314   6.286   3.108   5.899 -0.7778 -0.6611  0.5778
   65MOL    O67 5315   6.423   3.096   5.921 -0.2442 -0.4748 -0.0946
   65MOL    H68 5316   6.268   3.110   5.791  1.7260 -0.5132  0.1338
   65MOL    H69 5317   6.229   3.025   5.942 -1.5086 -0.6994 -0.4531
   65MOL    C70 5318   6.503   3.181   5.836  0.5171 -0.0107  0.1963
   65MOL    O71 5319   6.512   3.114   5.712  0.3825 -0.0862  0.6223
   65MOL    H72 5320   6.600   3.209   5.877  0.3431 -0.4824  0.9493
   65MOL    H73 5321   6.463   3.280   5.812 -0.6212 -0.4285  0.3139
   65MOL    C74 5322   6.573   2.986   5.726  0.6036  0.1494 -0.1658
   65MOL    O75 5323   6.700   3.007   5.771  0.2126  0.0473 -0.2728
   65MOL    H76 5324   6.581   2.937   5.630  1.0323 -0.1786  0.0339
   65MOL    H77 5325   6.507   2.929   5.791 -2.9174  2.0030 -1.9782
   65MOL    C78 5326   6.783   2.895   5.751 -0.2296 -0.0371 -0.0672
   65MOL    O79 5327   6.909   2.921   5.805  0.1797  0.0844 -0.3537
   65MOL    H80 5328   6.795   2.882   5.643 -1.3558  0.6729 -0.2774
   65MOL    H81 5329   6.731   2.811   5.798  1.6474 -1.8942 -1.2552
   65MOL    H82 5330   6.962   2.843   5.800  0.7427  0.4787 -0.5887
   66MOL     C1 5331   7.444   0.098   6.649 -0.3357 -0.0696  0.0820
   66MOL     O2 5332   7.557   0.187   6.633  0.5696 -0.2629  0.6304
   66MOL     H3 5333   7.480   7.780   6.659  2.5640  0.8662 -0.1682
   66MOL     H4 5334   7.390   0.129   6.738  2.8317 -0.0433  2.0695
   66MOL     H5 5335   7.377   0.109   6.563  0.1269 -0.3117 -0.3142
   66MOL     C6 5336   7.638   0.209   6.740  0.4101 -0.2258  0.8551
   66MOL     O7 5337   7.742   0.117   6.758 -0.2907 -0.6066 -0.6994
   66MOL     H8 5338   7.574   0.215   6.828 -1.8483  1.5613 -0.8235
   66MOL     H9 5339   7.689   0.304   6.727  0.9848 -0.7584 -0.8380
   66MOL    C10 5340   0.033   0.089   6.642 -0.3639 -0.0732  0.2054
   66MOL    O11 5341   0.126   7.769   6.661 -0.1072 -0.2600  0.0475
   66MOL    H12 5342   0.089   0.179   6.617  1.2745 -0.9996  0.4415
   66MOL    H13 5343   7.747   0.066   6.562 -1.4637 -1.0411  1.4197
   66MOL    C14 5344   0.083   7.659   6.602 -0.1240  0.4352 -0.3901
   66MOL    O15 5345   0.094   7.677   6.464  1.1243  0.4785  0.2989
   66MOL    H16 5346   7.766   7.627   6.628  0.2332 -0.0847  0.3435
   66MOL    H17 5347   0.153   7.582   6.633 -1.3026  0.4530  2.4860
   66MOL    C18 5348   0.222   7.673   6.412  0.4695  0.2172 -0.2739
   66MOL    O19 5349   0.225   7.693   6.277 -0.5851  0.1463 -0.0724
   66MOL    H20 5350   0.259   7.575   6.439 -1.6492 -0.2130  1.2236
   66MOL    H21 5351   0.278   7.750   6.464  0.4821 -0.2352  0.3890
   66MOL    C22 5352   0.234   0.046   6.249 -0.0935 -0.4684  0.2474
   66MOL    O23 5353   0.364   0.100   6.272  0.3964  0.4192  0.5116
   66MOL    H24 5354   0.164   0.103   6.310 -0.3051 -1.1789  0.6711
   66MOL    H25 5355   0.203   0.067   6.147  2.2515  3.5968  0.2257
   66MOL    C26 5356   0.349   0.231   6.299  0.0585 -0.0905  0.3602
   66MOL    O27 5357   0.330   0.252   6.440  0.1721  0.1491  0.2099
   66MOL    H28 5358   0.274   0.278   6.236 -1.2202 -1.0978  1.0966
   66MOL    H29 5359   0.443   0.281   6.277  0.3660 -1.3941 -1.4282
   66MOL    C30 5360   0.338   0.392   6.487  0.2803  0.6138  0.1628
   66MOL    O31 5361   0.471   0.443   6.493  0.2764 -0.1275 -0.4634
   66MOL    H32 5362   0.293   0.400   6.586 -0.8349  5.5103 -0.6064
   66MOL    H33 5363   0.287   0.451   6.411 -0.0107  0.9249  0.5992
   66MOL    C34 5364   0.538   0.390   6.603 -0.4351 -0.4225 -0.4650
   66MOL    O35 5365   0.480   0.427   6.723  0.1893  0.5216  0.5100
   66MOL    H36 5366   0.642   0.422   6.603 -0.1933 -1.1545 -2.5823
   66MOL    H37 5367   0.529   0.282   6.594  0.0212 -0.5379  0.4630
   66MOL    C38 5368   0.514   0.348   6.836  0.6383  0.6150  0.3113
   66MOL    O39 5369   0.646   0.324   6.848 -0.4232  0.2350  0.3045
   66MOL    H40 5370   0.469   0.252   6.813  0.8266  0.2197  1.5510
   66MOL    H41 5371   0.466   0.398   6.921 -0.8876 -0.0064 -0.1604
   66MOL    C42 5372   0.717   0.442   6.880 -0.1764 -0.4286  0.0352
   66MOL    O43 5373   0.858   0.426   6.887 -0.3724 -0.1650  0.2270
   66MOL    H44 5374   0.688   0.468   6.982  1.1032 -1.0915  0.5770
   66MOL    H45 5375   0.692   0.533   6.826  0.5902  2.0571  3.6744
   66MOL    C46 5376   0.922   0.417   6.764  0.0591 -0.1721 -0.7376
   66MOL    O47 5377   1.048   0.365   6.780 -0.0940 -0.0913  0.1726
   66MOL    H48 5378   0.929   0.509   6.706  0.0652  0.3703  0.1214
   66MOL    H49 5379   0.871   0.342   6.704 -1.0019  0.8970 -1.2056
   66MOL    C50 5380   1.145   0.455   6.822 -0.1600  0.5866  0.6400
   66MOL    O51 5381   1.168   0.557   6.732 -0.0873 -0.4238 -0.0428
   66MOL    H52 5382   1.230   0.389   6.838 -1.2797 -1.7532 -2.4744
   66MOL    H53 5383   1.106   0.501   6.912 -0.4180  1.3851  0.1308
   66MOL    C54 5384   1.278   0.539   6.649  0.1613 -0.1456  0.0596
   66MOL    O55 5385   1.401   0.562   6.711  0.1497  0.3115 -0.3239
   66MOL    H56 5386   1.265   0.608   6.565 -1.4347  0.4607  0.7883
   66MOL    H57 5387   1.283   0.437   6.612  0.5386 -0.9995  2.3752
   66MOL    C58 5388   1.413   0.674   6.783  0.2313 -0.3898  0.5573
   66MOL    O59 5389   1.424   0.646   6.920 -0.0149  0.1222 -0.1201
   66MOL    H60 5390   1.325   0.738   6.773  0.2216 -0.3021  1.1631
   66MOL    H61 5391   1.498   0.735   6.753 -0.7368  0.1013 -1.2889
   66MOL    C62 5392   1.524   0.561   6.960  0.3377  0.8301  0.6867
   66MOL    O63 5393   1.539   0.542   7.095 -0.3239 -0.1895  0.0491
   66MOL    H64 5394   1.618   0.592   6.914 -0.1909 -0.0530 -1.0480
   66MOL    H65 5395   1.492   0.466   6.917 -1.1115  0.9154  1.5346
   66MOL    C66 5396   1.589   0.657   7.166  0.3175 -0.4030 -0.4584
   66MOL    O67 5397   1.712   0.700   7.132  0.4020 -0.1110 -0.1490
   66MOL    H68 5398   1.598   0.614   7.265 -0.4148 -0.9328 -0.6180
   66MOL    H69 5399   1.529   0.748   7.155 -0.4699 -0.5888  2.0174
   66MOL    C70 5400   1.762   0.801   7.220 -0.0287 -0.2857 -0.1992
   66MOL    O71 5401   1.798   0.742   7.342 -0.4759 -0.4028  0.2995
   66MOL    H72 5402   1.700   0.890   7.227  0.6266  0.1930 -0.3907
   66MOL    H73 5403   1.850   0.840   7.169  0.7616 -0.3989  1.0697
   66MOL    C74 5404   1.919   0.670   7.321  0.0656  0.3628  0.0110
   66MOL    O75 5405   2.037   0.750   7.314 -0.1162 -0.1852 -0.0807
   66MOL    H76 5406   1.913   0.610   7.230 -3.0749  1.2673 -0.4276
   66MOL    H77 5407   1.924   0.601   7.405  2.0535 -0.2781 -0.6014
   66MOL    C78 5408   2.146   0.668   7.291 -0.0890 -0.0981 -0.2387
   66MOL    O79 5409   2.263   0.738   7.315 -0.7805 -0.2642 -0.1536
   66MOL    H80 5410   2.149   0.634   7.188  1.2200  0.2020 -0.3076
   66MOL    H81 5411   2.155   0.584   7.361 -0.1254  0.6693  0.6990
   66MOL    H82 5412   2.256   0.799   7.387  0.7022  0.1629 -0.3648
   67MOL     C1 5413   0.074   0.113   1.195  0.3810  0.0609 -0.1492
   67MOL     O2 5414   7.720   0.077   1.199 -0.2394  0.3096  0.1445
   67MOL     H3 5415   0.115   0.094   1.294  0.6124  0.0468 -0.2474
   67MOL     H4 5416   0.125   0.064   1.113  1.1768  1.3151 -0.4144
   67MOL     H5 5417   0.084   0.221   1.185 -2.5851  0.2412 -1.8825
   67MOL     C6 5418   7.643   0.139   1.106 -0.1744 -0.2025 -0.2660
   67MOL     O7 5419   7.687   0.120   0.980 -1.0692  0.2441  0.8007
   67MOL     H8 5420   7.644   0.247   1.121 -0.3045 -0.3510  0.8545
   67MOL     H9 5421   7.542   0.109   1.132  0.7107 -2.4892  0.5954
   67MOL    C10 5422   7.647   7.779   0.929 -0.1856 -0.1224 -0.1559
   67MOL    O11 5423   7.513   7.771   0.912  0.5118  0.1446 -0.0841
   67MOL    H12 5424   7.675   7.706   1.005 -1.3523 -1.8240 -1.3272
   67MOL    H13 5425   7.694   7.754   0.834  0.5711  0.1194  0.1520
   67MOL    C14 5426   7.452   0.065   0.815 -0.0953 -0.0732 -0.4079
   67MOL    O15 5427   7.483   0.027   0.686  0.0586 -0.3078  0.2624
   67MOL    H16 5428   7.476   0.170   0.830  2.3344 -0.8965  1.7516
   67MOL    H17 5429   7.344   0.063   0.823 -0.0114 -0.1705  0.6827
   67MOL    C18 5430   7.405   0.090   0.590  0.6789  0.7111 -0.1081
   67MOL    O19 5431   7.276   0.041   0.594 -0.2007 -0.4757  0.0940
   67MOL    H20 5432   7.453   0.084   0.493  3.0316  0.9638  0.9991
   67MOL    H21 5433   7.396   0.197   0.611 -0.1924  0.3588  1.4112
   67MOL    C22 5434   7.269   7.695   0.532  0.4486 -0.2238 -0.3092
   67MOL    O23 5435   7.142   7.643   0.517 -0.0854 -0.2847 -0.5936
   67MOL    H24 5436   7.336   7.624   0.581 -1.4904 -1.7385  0.1765
   67MOL    H25 5437   7.310   7.700   0.431  0.7703  2.7054 -0.0907
   67MOL    C26 5438   7.089   7.605   0.637 -0.3412  0.5176  0.4241
   67MOL    O27 5439   6.964   7.574   0.615  0.3228 -0.0197 -0.4487
   67MOL    H28 5440   7.104   7.690   0.703  0.1101 -0.5819  1.7802
   67MOL    H29 5441   7.137   7.515   0.676  1.1073  1.1208  0.0580
   67MOL    C30 5442   6.875   7.670   0.661 -0.3054 -0.4347 -0.8373
   67MOL    O31 5443   6.870   7.678   0.798  0.6032  0.1979  0.5589
   67MOL    H32 5444   6.773   7.651   0.627 -0.3032  0.3267 -1.2915
   67MOL    H33 5445   6.908   7.764   0.616 -0.9656  0.0782 -0.2544
   67MOL    C34 5446   6.819   7.561   0.862 -0.2473  0.5665  0.7192
   67MOL    O35 5447   6.687   7.537   0.837  0.5246 -0.5422 -0.0821
   67MOL    H36 5448   6.841   7.578   0.968  1.5777 -1.4802  0.7150
   67MOL    H37 5449   6.886   7.475   0.849 -0.5889  0.4727 -0.4933
   67MOL    C38 5450   6.598   7.630   0.900  0.0640  0.1386 -0.1086
   67MOL    O39 5451   6.469   7.620   0.857  0.4868 -1.0692  0.0908
   67MOL    H40 5452   6.632   7.730   0.874  0.1579 -0.0860 -0.8769
   67MOL    H41 5453   6.597   7.628   1.009  1.0888  0.2740 -0.0925
   67MOL    C42 5454   6.397   7.512   0.914 -0.3504  0.2897 -0.8136
   67MOL    O43 5455   6.270   7.505   0.860 -0.3951  0.4554 -0.2533
   67MOL    H44 5456   6.388   7.537   1.020  2.6355  1.4050 -0.7675
   67MOL    H45 5457   6.457   7.421   0.917 -2.3057 -0.9964  0.2854
   67MOL    C46 5458   6.277   7.450   0.739 -0.1165 -0.3959 -0.0361
   67MOL    O47 5459   6.306   7.314   0.755 -0.5132  0.2222 -0.1088
   67MOL    H48 5460   6.348   7.503   0.676  0.0420  2.3508  2.3576
   67MOL    H49 5461   6.186   7.464   0.682  0.2379  0.5416 -0.3750
   67MOL    C50 5462   6.290   7.236   0.646  0.3680  0.4845  0.5650
   67MOL    O51 5463   6.153   7.229   0.605  0.2482 -0.1643  0.3960
   67MOL    H52 5464   6.321   7.136   0.678  0.8485 -0.4070 -2.5595
   67MOL    H53 5465   6.361   7.266   0.570  1.5470  0.7516  1.7513
   67MOL    C54 5466   6.120   7.101   0.554 -0.2479  0.2378  0.3486
   67MOL    O55 5467   6.208   7.055   0.462 -0.3846  0.0222 -0.4891
   67MOL    H56 5468   6.023   7.095   0.506 -0.8482 -1.0812  1.6984
   67MOL    H57 5469   6.127   7.020   0.628 -0.5440  0.9833  1.2009
   67MOL    C58 5470   6.208   7.132   0.345 -0.5937  0.1789  0.3337
   67MOL    O59 5471   6.088   7.130   0.281  0.7772 -0.7885  0.1678
   67MOL    H60 5472   6.292   7.092   0.287 -1.2987  0.5368 -0.9543
   67MOL    H61 5473   6.233   7.234   0.372 -0.8023  0.4373 -0.4361
   67MOL    C62 5474   6.061   7.010   0.211 -0.7665  0.0220 -0.2994
   67MOL    O63 5475   6.131   6.998   0.092  0.1343  0.2103 -0.1301
   67MOL    H64 5476   5.955   7.015   0.187 -1.4982 -2.8939  1.9680
   67MOL    H65 5477   6.076   6.933   0.286  1.5752  0.8323  0.1174
   67MOL    C66 5478   6.110   7.102   7.781  0.1866 -0.0484 -0.3873
   67MOL    O67 5479   6.163   7.230   0.045 -0.3711  0.1215 -0.4273
   67MOL    H68 5480   6.005   7.110   7.753 -0.4385  0.0659  1.8753
   67MOL    H69 5481   6.172   7.074   7.696  0.6009  0.7481 -0.3475
   67MOL    C70 5482   6.304   7.241   0.029  0.4970  0.2865 -0.3035
   67MOL    O71 5483   6.324   7.240   7.681  0.2221 -0.0761  0.2130
   67MOL    H72 5484   6.359   7.166   0.084  0.9358  0.2035 -0.8550
   67MOL    H73 5485   6.342   7.334   0.071 -1.4296  0.5334  0.9701
   67MOL    C74 5486   6.459   7.271   7.657  0.2086  0.1650  0.4559
   67MOL    O75 5487   6.541   7.181   7.733 -0.9342 -0.1189 -0.5873
   67MOL    H76 5488   6.473   7.377   7.674 -1.9918  0.4607  0.5750
   67MOL    H77 5489   6.484   7.273   7.551 -1.0875  0.8291  0.1529
   67MOL    C78 5490   6.552   7.049   7.682  0.5459  0.1858 -0.5581
   67MOL    O79 5491   6.653   6.979   7.758  0.4764 -0.1351 -0.2755
   67MOL    H80 5492   6.577   7.048   7.576  0.8735  0.1970 -0.4831
   67MOL    H81 5493   6.460   6.993   7.698  0.0845  1.0938  0.0346
   67MOL    H82 5494   6.609   6.960   0.056 -2.1480  1.1998 -1.3247
   68MOL     C1 5495   7.648   3.326   5.842  0.0695  0.5687  0.3393
   68MOL     O2 5496   7.593   3.446   5.785  0.1708 -0.2313 -0.1141
   68MOL     H3 5497   7.615   3.307   5.945  1.5645 -2.2296  0.3457
   68MOL     H4 5498   7.617   3.239   5.785 -1.4547 -0.2592  2.3489
   68MOL     H5 5499   7.757   3.330   5.848  0.1068 -1.2313  1.2231
   68MOL     C6 5500   7.458   3.435   5.787 -0.6651 -0.2542 -0.0210
   68MOL     O7 5501   7.398   3.376   5.674 -0.3049 -0.5291 -1.0359
   68MOL     H8 5502   7.418   3.536   5.780 -1.2980 -0.4824  0.2429
   68MOL     H9 5503   7.423   3.413   5.888 -0.3397 -1.7473 -0.2226
   68MOL    C10 5504   7.257   3.370   5.682 -0.1985  0.5239 -0.3088
   68MOL    O11 5505   7.209   3.267   5.760 -0.3503  0.5670 -0.3192
   68MOL    H12 5506   7.239   3.341   5.578  1.8082  0.6134 -0.6902
   68MOL    H13 5507   7.206   3.465   5.697  0.3657  0.6118  1.1760
   68MOL    C14 5508   7.080   3.218   5.726  0.2205  0.6410 -0.3738
   68MOL    O15 5509   6.987   3.319   5.750  0.3376  0.3276  0.5349
   68MOL    H16 5510   7.067   3.131   5.791  4.3052 -1.1356 -1.7818
   68MOL    H17 5511   7.089   3.179   5.625  1.5010  0.5338 -0.2308
   68MOL    C18 5512   6.857   3.281   5.729  0.1267 -0.2601 -0.4420
   68MOL    O19 5513   6.775   3.391   5.717 -0.0757 -0.0587 -0.2114
   68MOL    H20 5514   6.833   3.221   5.816  2.5543 -1.5023 -0.5944
   68MOL    H21 5515   6.839   3.224   5.638  1.4690 -0.0638 -0.8437
   68MOL    C22 5516   6.776   3.477   5.820 -0.2584  0.8661 -0.2687
   68MOL    O23 5517   6.670   3.554   5.839  0.4214  0.0058 -0.3561
   68MOL    H24 5518   6.873   3.527   5.817  0.2041  0.0235  0.2791
   68MOL    H25 5519   6.775   3.419   5.912 -0.3917  0.1016 -0.7438
   68MOL    C26 5520   6.662   3.656   5.740 -0.5158 -0.2708  0.6106
   68MOL    O27 5521   6.769   3.741   5.765 -0.0059  0.4862  0.3016
   68MOL    H28 5522   6.567   3.708   5.729  0.4007  0.9386 -1.9873
   68MOL    H29 5523   6.677   3.608   5.643  0.1897  2.2202 -0.5620
   68MOL    C30 5524   6.752   3.817   5.881  0.0215 -0.3358 -0.0935
   68MOL    O31 5525   6.658   3.922   5.861  0.0895 -0.2420  0.5955
   68MOL    H32 5526   6.847   3.863   5.909 -0.0150 -0.1950 -0.1990
   68MOL    H33 5527   6.719   3.767   5.972 -0.0926  0.3188  0.2200
   68MOL    C34 5528   6.703   4.024   5.783 -0.0105 -0.3452 -0.2204
   68MOL    O35 5529   6.603   4.106   5.732  0.6572 -0.0703 -0.7373
   68MOL    H36 5530   6.765   3.985   5.703  0.9158 -0.2735  0.4630
   68MOL    H37 5531   6.773   4.080   5.844 -1.8751  2.4060 -0.4820
   68MOL    C38 5532   6.558   4.184   5.835 -0.0235 -0.8586 -0.2718
   68MOL    O39 5533   6.639   4.292   5.866 -0.4028 -0.9416  0.1576
   68MOL    H40 5534   6.561   4.128   5.928 -0.6520  0.4473  0.5531
   68MOL    H41 5535   6.458   4.212   5.801  0.1362  0.9945  0.7117
   68MOL    C42 5536   6.583   4.388   5.943  0.2224 -0.0043  0.2083
   68MOL    O43 5537   6.495   4.471   5.874  0.2409 -0.3134 -0.7765
   68MOL    H44 5538   6.660   4.443   5.996  0.4222 -0.1998  0.1203
   68MOL    H45 5539   6.523   4.339   6.021  3.2576 -0.6160  2.2445
   68MOL    C46 5540   6.570   4.555   5.786  0.4927 -0.3263 -0.3283
   68MOL    O47 5541   6.488   4.663   5.753  0.5267  0.3484  0.1605
   68MOL    H48 5542   6.616   4.503   5.702 -0.5470 -0.1030 -1.0424
   68MOL    H49 5543   6.647   4.604   5.846  2.9612 -1.1127 -2.7878
   68MOL    C50 5544   6.404   4.623   5.644 -0.1940  0.2206  0.2925
   68MOL    O51 5545   6.288   4.567   5.686  0.3906 -0.4852 -0.1200
   68MOL    H52 5546   6.454   4.579   5.558  0.8924  1.0569  0.4841
   68MOL    H53 5547   6.378   4.713   5.589 -1.5641  1.5870  3.0404
   68MOL    C54 5548   6.202   4.666   5.736 -0.2350  0.9265  0.6298
   68MOL    O55 5549   6.120   4.723   5.633  0.0189 -0.2634  0.6575
   68MOL    H56 5550   6.259   4.740   5.792  0.3527  0.3928  0.7459
   68MOL    H57 5551   6.128   4.633   5.809 -0.6449 -1.1828 -0.7053
   68MOL    C58 5552   6.041   4.828   5.681 -0.4264  0.4638 -0.2861
   68MOL    O59 5553   5.956   4.786   5.785  0.4028  0.2849  0.0883
   68MOL    H60 5554   5.986   4.874   5.599  0.0882  1.5608 -0.0110
   68MOL    H61 5555   6.102   4.902   5.732 -0.1450 -0.4017  0.6454
   68MOL    C62 5556   5.851   4.720   5.739  0.1186 -0.0251  0.2166
   68MOL    O63 5557   5.763   4.670   5.842 -0.3059  0.2018  0.3610
   68MOL    H64 5558   5.879   4.633   5.679  0.0773  0.8852 -1.1431
   68MOL    H65 5559   5.780   4.780   5.683  0.9312 -0.1435 -0.9669
   68MOL    C66 5560   5.816   4.560   5.921 -0.3910 -0.3414  0.0713
   68MOL    O67 5561   5.768   4.438   5.882 -0.0169  0.2922  0.5625
   68MOL    H68 5562   5.803   4.572   6.028  0.1820  2.2214 -0.1158
   68MOL    H69 5563   5.922   4.550   5.900 -0.5049 -0.0787 -0.6420
   68MOL    C70 5564   5.634   4.419   5.915  0.1983  0.1194  0.0947
   68MOL    O71 5565   5.595   4.447   6.049 -0.0320 -0.2553 -0.0633
   68MOL    H72 5566   5.602   4.319   5.887  1.8702 -1.1386  2.4930
   68MOL    H73 5567   5.571   4.488   5.859 -0.7061 -1.3849 -0.7733
   68MOL    C74 5568   5.633   4.348   6.136 -0.0091 -0.3339 -0.1227
   68MOL    O75 5569   5.533   4.248   6.151  0.1878  0.3169 -0.2067
   68MOL    H76 5570   5.649   4.393   6.234 -1.4155  1.9527 -0.9157
   68MOL    H77 5571   5.723   4.307   6.091  0.2641  0.7147 -0.5226
   68MOL    C78 5572   5.432   4.289   6.242 -0.4947 -0.5070 -0.3085
   68MOL    O79 5573   5.330   4.196   6.232 -0.4037  0.0617  0.5291
   68MOL    H80 5574   5.394   4.385   6.207  0.0244 -0.4595 -0.7442
   68MOL    H81 5575   5.471   4.291   6.344  2.5309  0.0992 -1.4291
   68MOL    H82 5576   5.264   4.223   6.171 -0.2905  1.3203  0.9614
   69MOL     C1 5577   1.015   3.609   3.329 -0.8254 -0.3362  0.4150
   69MOL     O2 5578   0.963   3.701   3.236 -0.1113 -0.2371 -0.7628
   69MOL     H3 5579   0.992   3.626   3.435  1.6154 -2.0503  1.2770
   69MOL     H4 5580   0.974   3.511   3.308  0.5175 -0.3968 -2.0204
   69MOL     H5 5581   1.122   3.607   3.308 -0.8574  1.0991  0.0582
   69MOL     C6 5582   0.820   3.696   3.219 -0.3484 -0.0443  0.6274
   69MOL     O7 5583   0.792   3.588   3.135 -0.5399  0.3904 -0.5157
   69MOL     H8 5584   0.797   3.788   3.166  2.9640  0.0875 -0.7486
   69MOL     H9 5585   0.759   3.704   3.308 -3.2687  2.5828 -1.5144
   69MOL    C10 5586   0.872   3.592   3.020 -0.2310 -0.2343 -0.1587
   69MOL    O11 5587   0.833   3.512   2.913  0.1448  0.2126  0.4508
   69MOL    H12 5588   0.972   3.558   3.045 -1.3622 -0.9543  3.6640
   69MOL    H13 5589   0.872   3.693   2.978 -1.4425 -0.1272  0.0647
   69MOL    C14 5590   0.894   3.560   2.793 -0.2553  0.0074 -0.7479
   69MOL    O15 5591   1.034   3.567   2.802  0.0083 -0.7272  0.0882
   69MOL    H16 5592   0.864   3.664   2.778  0.7644  0.3381 -0.5289
   69MOL    H17 5593   0.858   3.495   2.712  2.7734 -0.3343 -1.8922
   69MOL    C18 5594   1.087   3.439   2.807  0.6516  0.0416  0.8985
   69MOL    O19 5595   1.095   3.370   2.694  0.2567  0.6816  0.1894
   69MOL    H20 5596   1.027   3.382   2.877  1.1585 -3.7281 -1.6074
   69MOL    H21 5597   1.191   3.445   2.838  1.0676  0.7981 -0.5828
   69MOL    C22 5598   1.200   3.423   2.614  0.6206  0.2434  0.9466
   69MOL    O23 5599   1.336   3.383   2.652 -0.2914 -0.0834 -0.2277
   69MOL    H24 5600   1.205   3.532   2.615  2.5895  0.1916  0.0111
   69MOL    H25 5601   1.194   3.397   2.508 -0.0175 -2.6013  1.6389
   69MOL    C26 5602   1.358   3.245   2.643 -0.3603  0.4616  0.3197
   69MOL    O27 5603   1.385   3.207   2.509 -0.2106 -0.0188 -0.2165
   69MOL    H28 5604   1.295   3.174   2.698 -0.9519 -0.0373 -0.9696
   69MOL    H29 5605   1.448   3.231   2.703 -0.4202 -0.5646  0.1834
   69MOL    C30 5606   1.459   3.086   2.504 -0.8115 -0.2967  0.1831
   69MOL    O31 5607   1.586   3.096   2.563  0.3063  0.2407 -0.1586
   69MOL    H32 5608   1.464   3.047   2.402 -1.7955  1.3826 -0.5315
   69MOL    H33 5609   1.415   3.000   2.553  0.6817 -0.8009  0.6481
   69MOL    C34 5610   1.676   3.153   2.464  0.3212 -0.1718 -0.1037
   69MOL    O35 5611   1.712   3.051   2.371 -0.5534  0.3161  0.5629
   69MOL    H36 5612   1.763   3.176   2.526 -0.3420  2.2769 -0.0699
   69MOL    H37 5613   1.641   3.249   2.427 -1.3051 -1.1623 -1.2134
   69MOL    C38 5614   1.791   3.100   2.269  0.1190  0.5609 -0.8002
   69MOL    O39 5615   1.704   3.160   2.180  0.2483  0.0421  0.3200
   69MOL    H40 5616   1.829   3.006   2.229  3.0790  0.9084  1.0225
   69MOL    H41 5617   1.876   3.160   2.302  0.5912 -0.6200  0.1858
   69MOL    C42 5618   1.632   3.071   2.100 -0.2473  0.1041  0.2254
   69MOL    O43 5619   1.718   2.996   2.011  0.2730 -0.0515 -0.2295
   69MOL    H44 5620   1.551   3.121   2.047  0.4654 -0.3533 -1.3317
   69MOL    H45 5621   1.582   3.005   2.170  0.7395 -1.2488 -0.3299
   69MOL    C46 5622   1.767   3.082   1.911 -0.3494  0.7043  0.2797
   69MOL    O47 5623   1.657   3.100   1.827  0.3084 -0.0131 -0.2439
   69MOL    H48 5624   1.842   3.020   1.861 -0.6867  0.4462  0.0897
   69MOL    H49 5625   1.821   3.170   1.944  2.8518 -0.3801 -1.7646
   69MOL    C50 5626   1.703   3.171   1.716  0.0777 -0.9123  0.6161
   69MOL    O51 5627   1.803   3.103   1.641  0.3005  0.6973  0.1982
   69MOL    H52 5628   1.721   3.275   1.743  2.5345 -1.0977 -0.1408
   69MOL    H53 5629   1.613   3.184   1.656  0.3058  2.3458  0.9132
   69MOL    C54 5630   1.846   3.183   1.542 -0.1980  0.2614  0.0624
   69MOL    O55 5631   1.932   3.274   1.594  0.2593  0.3386 -0.2799
   69MOL    H56 5632   1.762   3.223   1.485 -1.7092 -0.4099  1.7796
   69MOL    H57 5633   1.900   3.121   1.471  0.7830  1.0399  0.1174
   69MOL    C58 5634   2.053   3.223   1.653  0.1025 -0.1686 -0.1676
   69MOL    O59 5635   2.139   3.317   1.716  0.3025  0.2526 -0.0986
   69MOL    H60 5636   2.110   3.177   1.572 -1.8142  0.0167 -1.6657
   69MOL    H61 5637   2.026   3.142   1.720  0.4902  0.5975  0.9233
   69MOL    C62 5638   2.098   3.353   1.841  0.2979  0.2777 -0.4897
   69MOL    O63 5639   2.105   3.250   1.932 -0.1442 -0.1343  0.0135
   69MOL    H64 5640   1.993   3.380   1.840  0.5406  1.2249 -1.0287
   69MOL    H65 5641   2.132   3.447   1.883  0.7574  0.9037 -2.2313
   69MOL    C66 5642   2.237   3.218   1.954 -1.3634 -0.2498 -0.3406
   69MOL    O67 5643   2.292   3.311   2.039  0.1814 -0.1477 -0.8832
   69MOL    H68 5644   2.303   3.226   1.868 -0.3352 -0.1892  0.4360
   69MOL    H69 5645   2.256   3.117   1.991  0.6925  0.6386  1.1074
   69MOL    C70 5646   2.244   3.302   2.167 -0.0514 -0.1717 -0.1015
   69MOL    O71 5647   2.264   3.183   2.229 -0.2175  0.4114 -0.0542
   69MOL    H72 5648   2.139   3.322   2.190  0.0125 -1.2384  1.1486
   69MOL    H73 5649   2.292   3.381   2.225 -1.9924  0.7152  0.3499
   69MOL    C74 5650   2.404   3.146   2.233  0.0033 -0.0787  0.3432
   69MOL    O75 5651   2.407   3.013   2.265  0.0457  0.8360 -0.2943
   69MOL    H76 5652   2.446   3.209   2.311 -3.3923 -0.1856  2.3769
   69MOL    H77 5653   2.458   3.144   2.139  0.9548 -1.6834  0.9005
   69MOL    C78 5654   2.384   2.984   2.402  0.5954 -0.6527  0.2348
   69MOL    O79 5655   2.413   2.849   2.427 -0.7174 -0.3620  0.1027
   69MOL    H80 5656   2.278   3.000   2.423  0.4353 -1.8536  0.3865
   69MOL    H81 5657   2.444   3.052   2.462 -0.1003  0.5279 -0.3841
   69MOL    H82 5658   2.336   2.796   2.410  0.4852 -2.1519  0.1607
   70MOL     C1 5659   0.877   2.602   5.613 -0.0950 -0.1716 -0.2086
   70MOL     O2 5660   1.006   2.538   5.631  0.2613  0.6517 -0.4878
   70MOL     H3 5661   0.824   2.614   5.708 -0.3038 -1.7478 -0.0986
   70MOL     H4 5662   0.892   2.700   5.569 -0.3256 -0.9233 -1.9872
   70MOL     H5 5663   0.823   2.544   5.539 -0.5373 -1.4454  1.0789
   70MOL     C6 5664   1.113   2.630   5.642  0.0674  0.4973 -0.2665
   70MOL     O7 5665   1.123   2.696   5.769 -0.1572  0.4758 -0.1342
   70MOL     H8 5666   1.107   2.710   5.569 -2.5848  0.7410  0.1408
   70MOL     H9 5667   1.203   2.571   5.626  1.6999  3.0171 -0.5062
   70MOL    C10 5668   1.151   2.603   5.864  0.0216  0.0450  0.2953
   70MOL    O11 5669   1.280   2.553   5.835 -0.2451  0.8805  0.2529
   70MOL    H12 5670   1.082   2.520   5.872 -0.5531  0.5408  0.5419
   70MOL    H13 5671   1.152   2.663   5.955 -0.2684 -1.1937  1.1145
   70MOL    C14 5672   1.302   2.440   5.913  0.0061  0.4930  0.2832
   70MOL    O15 5673   1.310   2.464   6.048 -0.2330  0.1935  0.7156
   70MOL    H16 5674   1.403   2.408   5.887 -0.2081  0.1446 -0.1320
   70MOL    H17 5675   1.226   2.366   5.889  1.0638  0.0823 -1.9019
   70MOL    C18 5676   1.417   2.549   6.073  1.0363  0.2259 -0.2571
   70MOL    O19 5677   1.441   2.557   6.209  0.3438  0.2805  0.2307
   70MOL    H20 5678   1.414   2.649   6.029  1.0894  1.1060  1.6596
   70MOL    H21 5679   1.516   2.508   6.059  1.0179 -0.4877  1.5804
   70MOL    C22 5680   1.333   2.619   6.275  0.0213  0.5997  0.4429
   70MOL    O23 5681   1.335   2.626   6.414 -0.1931  0.2328  0.5678
   70MOL    H24 5682   1.254   2.550   6.247  0.6802 -0.2931  0.7152
   70MOL    H25 5683   1.296   2.712   6.234 -1.2389 -0.3109 -0.5249
   70MOL    C26 5684   1.421   2.725   6.458 -0.1067 -0.6537 -0.0055
   70MOL    O27 5685   1.365   2.856   6.431 -0.1527  0.4869  0.4302
   70MOL    H28 5686   1.520   2.721   6.411  0.9827  0.6171  2.1530
   70MOL    H29 5687   1.433   2.708   6.565 -0.9692 -1.9458 -0.1023
   70MOL    C30 5688   1.425   2.953   6.505 -0.2477 -0.1812 -0.3772
   70MOL    O31 5689   1.358   2.957   6.626 -0.2833 -0.1072  0.4710
   70MOL    H32 5690   1.404   3.038   6.441 -1.5348 -0.1568  0.0739
   70MOL    H33 5691   1.533   2.940   6.516 -0.3907 -1.0372  0.0197
   70MOL    C34 5692   1.395   3.063   6.714  0.4408  0.5466  0.1842
   70MOL    O35 5693   1.335   3.187   6.692  0.2300  0.2710  0.4028
   70MOL    H36 5694   1.503   3.074   6.722  0.3969  0.8547  0.3220
   70MOL    H37 5695   1.355   3.021   6.806  0.5315 -0.9335 -0.4271
   70MOL    C38 5696   1.198   3.186   6.670  0.1702 -0.3527  0.5555
   70MOL    O39 5697   1.135   3.140   6.783  0.6233  0.0875  1.1390
   70MOL    H40 5698   1.179   3.120   6.586 -0.3031  2.1238 -1.3297
   70MOL    H41 5699   1.158   3.283   6.641 -1.0434 -0.7051  1.0303
   70MOL    C42 5700   1.159   3.213   6.900  0.4721 -0.5959 -0.6150
   70MOL    O43 5701   1.063   3.314   6.919 -0.4052 -0.1149  0.9315
   70MOL    H44 5702   1.256   3.259   6.917  0.2779 -0.9040  1.4428
   70MOL    H45 5703   1.148   3.137   6.977 -1.6716  1.2318  0.9130
   70MOL    C46 5704   0.939   3.265   6.950  0.6602  0.4488  0.0663
   70MOL    O47 5705   0.838   3.364   6.935  0.2000 -0.2482  0.0231
   70MOL    H48 5706   0.931   3.227   7.052 -0.5999  1.0115  0.1854
   70MOL    H49 5707   0.913   3.186   6.880  0.1393 -1.4070  2.2662
   70MOL    C50 5708   0.825   3.418   6.808  0.4099 -0.5895 -0.6188
   70MOL    O51 5709   0.745   3.337   6.722 -0.0659 -0.2216  0.1922
   70MOL    H52 5710   0.926   3.429   6.768 -0.4255 -0.4043 -2.7670
   70MOL    H53 5711   0.789   3.519   6.828  2.1337 -0.0626 -0.0486
   70MOL    C54 5712   0.619   3.351   6.766  0.5076  0.3436 -0.1556
   70MOL    O55 5713   0.578   3.481   6.736  0.1322 -0.4380  0.5091
   70MOL    H56 5714   0.600   3.347   6.873 -1.4166  3.1358 -0.3471
   70MOL    H57 5715   0.549   3.290   6.708  0.3190  0.4451 -0.0361
   70MOL    C58 5716   0.565   3.505   6.600 -0.5065 -0.0283  0.0833
   70MOL    O59 5717   0.460   3.428   6.537 -0.1454 -0.3296  0.7755
   70MOL    H60 5718   0.660   3.497   6.546 -1.8216  0.3959 -2.3487
   70MOL    H61 5719   0.559   3.612   6.581  0.2097  0.0318  0.1714
   70MOL    C62 5720   0.336   3.487   6.542  0.1370  0.5285  0.2476
   70MOL    O63 5721   0.339   3.598   6.458  0.1013 -0.5855  0.3086
   70MOL    H64 5722   0.308   3.500   6.647 -0.3991 -0.2752  0.2033
   70MOL    H65 5723   0.270   3.409   6.504  2.1092 -1.3875  0.6484
   70MOL    C66 5724   0.215   3.650   6.432 -0.2682 -0.2642  0.0083
   70MOL    O67 5725   0.127   3.562   6.370 -0.0161  0.5111 -0.3076
   70MOL    H68 5726   0.231   3.741   6.374  0.1994 -1.9103 -2.5045
   70MOL    H69 5727   0.152   3.661   6.520  0.1174  0.2583  0.2241
   70MOL    C70 5728   0.166   3.521   6.240  0.8313  0.4393 -0.4523
   70MOL    O71 5729   0.063   3.462   6.174  0.0805 -0.6516  0.5623
   70MOL    H72 5730   0.234   3.437   6.255 -0.4617 -0.5701 -0.0582
   70MOL    H73 5731   0.219   3.598   6.185  0.2595  1.9275  1.0105
   70MOL    C74 5732   7.748   3.556   6.149  0.0227  0.3942 -0.1238
   70MOL    O75 5733   0.007   3.664   6.071  0.3496 -0.6299  0.0756
   70MOL    H76 5734   7.694   3.579   6.241  1.4894  1.1869  0.5512
   70MOL    H77 5735   7.676   3.501   6.087  1.1313  1.4683 -2.4473
   70MOL    C78 5736   0.060   3.629   5.948 -0.2911  0.4876 -0.0561
   70MOL    O79 5737   0.114   3.739   5.879  0.2094 -0.2808 -0.1755
   70MOL    H80 5738   7.756   3.603   5.888  0.2600  0.9066 -1.0683
   70MOL    H81 5739   0.128   3.544   5.952 -1.0513 -0.0795  0.8739
   70MOL    H82 5740   0.091   3.723   5.789  0.6966  1.3115 -0.5889
   71MOL     C1 5741   3.420   3.647   3.568 -0.4090 -0.0410 -1.0225
   71MOL     O2 5742   3.383   3.768   3.637  0.4134  0.1043  0.1823
   71MOL     H3 5743   3.422   3.556   3.628  0.4003 -0.4563 -1.6815
   71MOL     H4 5744   3.369   3.635   3.472 -0.6023 -1.2209 -0.7832
   71MOL     H5 5745   3.523   3.662   3.538 -0.3384  0.2540 -0.6343
   71MOL     C6 5746   3.244   3.780   3.658 -0.0105  1.2246 -0.1638
   71MOL     O7 5747   3.205   3.691   3.766 -0.3597  0.2239  0.6882
   71MOL     H8 5748   3.185   3.756   3.569 -1.5576  1.7890  0.6914
   71MOL     H9 5749   3.217   3.882   3.684 -0.0457  0.4326  3.1925
   71MOL    C10 5750   3.068   3.685   3.785 -0.3626 -0.6140 -0.5149
   71MOL    O11 5751   3.016   3.804   3.824 -0.6021  0.2982  0.0811
   71MOL    H12 5752   3.050   3.607   3.858 -0.3371  0.6619  0.8761
   71MOL    H13 5753   3.031   3.656   3.687 -0.3471  0.6269 -0.8981
   71MOL    C14 5754   3.046   3.832   3.956  0.2712 -0.0296 -0.0588
   71MOL    O15 5755   3.003   3.960   3.971 -0.3530  0.4362 -0.0570
   71MOL    H16 5756   3.152   3.823   3.978  0.6474  0.1979 -1.7156
   71MOL    H17 5757   3.001   3.761   4.025  0.8054 -1.3562 -1.0531
   71MOL    C18 5758   2.866   3.978   3.968 -0.6536 -1.0826  0.1372
   71MOL    O19 5759   2.806   3.934   4.087  0.4563  0.1194  0.7548
   71MOL    H20 5760   2.818   3.940   3.877 -0.9933 -0.6190  0.1222
   71MOL    H21 5761   2.862   4.086   3.954 -2.1813 -1.1950 -0.4229
   71MOL    C22 5762   2.828   4.025   4.184  1.1841  0.3378  0.0363
   71MOL    O23 5763   2.730   4.131   4.195  0.4653  0.5054 -0.1446
   71MOL    H24 5764   2.924   4.074   4.173  0.6183  1.3856 -0.2992
   71MOL    H25 5765   2.838   3.979   4.282  0.8687 -1.3667 -0.7271
   71MOL    C26 5766   2.601   4.085   4.226 -0.5634 -0.7524 -0.2436
   71MOL    O27 5767   2.599   4.028   4.352  0.0058  0.0833  0.7830
   71MOL    H28 5768   2.567   4.018   4.147  1.3123 -0.9888 -0.8825
   71MOL    H29 5769   2.524   4.162   4.217 -0.3923 -0.3943  1.2048
   71MOL    C30 5770   2.628   4.120   4.455 -0.3048  0.2470 -0.9068
   71MOL    O31 5771   2.521   4.206   4.480 -0.3683 -0.2020 -0.1857
   71MOL    H32 5772   2.716   4.182   4.439  0.7078 -1.2801 -1.3245
   71MOL    H33 5773   2.675   4.068   4.539 -2.7171 -0.5008  0.0230
   71MOL    C34 5774   2.421   4.141   4.560 -0.5995  0.5307 -0.1343
   71MOL    O35 5775   2.465   4.096   4.686  0.6085  0.2951 -0.5534
   71MOL    H36 5776   2.395   4.045   4.513  1.5600 -0.7325  1.1687
   71MOL    H37 5777   2.331   4.203   4.558 -0.4642  0.7508  0.6250
   71MOL    C38 5778   2.445   4.190   4.784  0.1216 -0.5057  0.6715
   71MOL    O39 5779   2.318   4.171   4.839 -0.1429 -0.0832  0.0104
   71MOL    H40 5780   2.450   4.290   4.742 -0.7599  0.0504  1.8731
   71MOL    H41 5781   2.521   4.184   4.862  1.5824 -1.1792 -0.7865
   71MOL    C42 5782   2.307   4.055   4.923 -0.2478  0.5643 -0.5894
   71MOL    O43 5783   2.384   4.056   5.037  0.0552 -0.2337  0.7487
   71MOL    H44 5784   2.348   3.980   4.856 -2.2343 -1.3408  0.2679
   71MOL    H45 5785   2.202   4.039   4.946  0.1761 -1.8363 -0.2438
   71MOL    C46 5786   2.334   3.969   5.135 -0.7057  0.8687 -0.3040
   71MOL    O47 5787   2.209   3.998   5.177 -0.3467  0.6129 -0.1839
   71MOL    H48 5788   2.404   3.956   5.218 -1.8582 -2.4193  0.2222
   71MOL    H49 5789   2.327   3.870   5.090  2.2792  1.1891 -1.5838
   71MOL    C50 5790   2.213   4.090   5.283 -0.9474 -0.1015 -0.3329
   71MOL    O51 5791   2.199   4.034   5.404  0.1911 -0.5940  0.0917
   71MOL    H52 5792   2.131   4.154   5.248  0.9237  1.3113 -2.2652
   71MOL    H53 5793   2.301   4.153   5.285  0.3860 -1.9539  0.0127
   71MOL    C54 5794   2.205   4.131   5.512 -0.2559  0.0204  0.1008
   71MOL    O55 5795   2.117   4.240   5.495  0.8050 -0.0041  0.2421
   71MOL    H56 5796   2.310   4.155   5.528 -0.0873 -0.3226 -0.4873
   71MOL    H57 5797   2.187   4.075   5.605  0.8527  0.7543  0.7666
   71MOL    C58 5798   1.985   4.202   5.502  0.3187 -0.1908  0.5166
   71MOL    O59 5799   1.894   4.311   5.489  0.0557 -0.3276 -0.0604
   71MOL    H60 5800   1.963   4.158   5.600 -0.0221 -2.0287 -0.3763
   71MOL    H61 5801   1.960   4.127   5.427 -0.8079 -1.3080  1.9759
   71MOL    C62 5802   1.901   4.369   5.360  0.0470  0.0948  0.0316
   71MOL    O63 5803   1.841   4.284   5.272  0.3251  0.1951  0.0828
   71MOL    H64 5804   2.006   4.392   5.339  0.0022  0.0571 -0.2273
   71MOL    H65 5805   1.842   4.460   5.366  0.2052  0.2453 -0.7153
   71MOL    C66 5806   1.855   4.322   5.143  0.0494  0.4158 -0.2531
   71MOL    O67 5807   1.781   4.239   5.050 -0.5189  0.8193  0.2064
   71MOL    H68 5808   1.960   4.335   5.116 -0.4397  2.6461 -1.2031
   71MOL    H69 5809   1.796   4.414   5.138 -1.5342 -0.6539 -1.3965
   71MOL    C70 5810   1.816   4.098   5.054 -0.0359  0.5783 -0.7883
   71MOL    O71 5811   1.941   4.084   4.979  0.4472  0.5856  0.1208
   71MOL    H72 5812   1.736   4.039   5.008 -1.4419  1.2284  0.7758
   71MOL    H73 5813   1.834   4.058   5.154  1.3338  1.0373 -0.8405
   71MOL    C74 5814   1.912   4.059   4.847  0.3502  0.7332  0.3768
   71MOL    O75 5815   1.870   3.925   4.822 -0.7903  0.0580 -0.5253
   71MOL    H76 5816   1.994   4.078   4.777 -0.5713  1.4977 -0.5267
   71MOL    H77 5817   1.832   4.127   4.816 -0.6875 -1.3174 -1.6175
   71MOL    C78 5818   1.966   3.835   4.866 -0.2485  0.3066  0.5145
   71MOL    O79 5819   1.950   3.712   4.808  0.5513  0.1494  0.2363
   71MOL    H80 5820   1.943   3.826   4.972 -0.7835  1.5655  0.5128
   71MOL    H81 5821   2.070   3.859   4.844 -0.4081  1.7165  1.2402
   71MOL    H82 5822   1.870   3.671   4.836  0.2889  0.3999 -0.1438
   72MOL     C1 5823   5.768   3.325   4.184  0.0025  0.0617 -0.2247
   72MOL     O2 5824   5.860   3.369   4.091 -0.2743 -0.7803  0.3915
   72MOL     H3 5825   5.696   3.394   4.229  0.9966 -0.0532  1.6090
   72MOL     H4 5826   5.712   3.249   4.130  0.8302 -2.5411  2.4148
   72MOL     H5 5827   5.821   3.292   4.274  2.4509  0.1505 -1.5793
   72MOL     C6 5828   5.954   3.270   4.071 -0.0467 -0.6333  0.2723
   72MOL     O7 5829   6.065   3.321   3.997 -0.3125 -0.6858 -0.3714
   72MOL     H8 5830   5.915   3.190   4.009  1.9532  0.2726 -2.2591
   72MOL     H9 5831   5.993   3.225   4.162  0.0353  1.2456  1.1972
   72MOL    C10 5832   6.141   3.418   4.063 -0.3058  0.1792 -0.1691
   72MOL    O11 5833   6.178   3.373   4.194 -0.0159 -0.1291  0.5086
   72MOL    H12 5834   6.085   3.510   4.080  0.3547  0.1919  2.1427
   72MOL    H13 5835   6.231   3.440   4.006  0.9239  0.5875  1.8786
   72MOL    C14 5836   6.284   3.285   4.184 -1.0389 -0.3021 -0.5216
   72MOL    O15 5837   6.409   3.338   4.203  0.5078  0.4236  0.1387
   72MOL    H16 5838   6.275   3.223   4.095 -1.2873  2.6772 -2.6602
   72MOL    H17 5839   6.266   3.215   4.265 -1.8867 -1.7808 -1.9586
   72MOL    C18 5840   6.425   3.387   4.333 -0.4220 -0.0629 -0.0860
   72MOL    O19 5841   6.514   3.305   4.404 -0.1832  0.3109 -0.2314
   72MOL    H20 5842   6.336   3.411   4.391  0.6934 -1.5499  2.3258
   72MOL    H21 5843   6.483   3.479   4.322 -1.0847  0.4480  0.5966
   72MOL    C22 5844   6.644   3.295   4.342  0.5600 -0.2481  0.3613
   72MOL    O23 5845   6.720   3.406   4.370 -0.1398 -0.3637 -0.1367
   72MOL    H24 5846   6.631   3.280   4.235  2.9499  1.2265 -0.1973
   72MOL    H25 5847   6.704   3.206   4.361 -1.4850 -1.4931  1.0322
   72MOL    C26 5848   6.749   3.406   4.507  0.7381 -0.2734 -0.3532
   72MOL    O27 5849   6.851   3.322   4.543  0.4474  0.6070  0.1797
   72MOL    H28 5850   6.661   3.385   4.568  2.7342 -1.3641  2.2088
   72MOL    H29 5851   6.779   3.505   4.544 -2.4479 -0.4487  2.9734
   72MOL    C30 5852   6.970   3.356   4.479  0.0918 -0.6917 -0.0568
   72MOL    O31 5853   7.024   3.474   4.544  0.2039  0.0697 -0.3411
   72MOL    H32 5854   6.953   3.356   4.371  0.0457  1.8188 -0.0737
   72MOL    H33 5855   7.042   3.278   4.501  3.0581  1.0616 -3.0605
   72MOL    C34 5856   7.134   3.524   4.472 -0.0891  0.0743  0.4731
   72MOL    O35 5857   7.104   3.542   4.337  0.4029  0.1749  0.2666
   72MOL    H36 5858   7.212   3.448   4.474 -0.0216  0.1644  1.2056
   72MOL    H37 5859   7.161   3.620   4.514 -0.3179  0.5970 -0.5532
   72MOL    C38 5860   7.040   3.663   4.310  0.1507  0.1848 -0.5493
   72MOL    O39 5861   7.137   3.774   4.314  0.3498 -0.1041  0.0575
   72MOL    H40 5862   6.951   3.678   4.370  0.0597 -2.8178  0.1376
   72MOL    H41 5863   6.987   3.661   4.215 -0.0808  1.4122 -0.4543
   72MOL    C42 5864   7.192   3.795   4.186  0.2530 -0.3449  0.0953
   72MOL    O43 5865   7.316   3.861   4.203 -0.0596  0.1469 -0.1037
   72MOL    H44 5866   7.138   3.864   4.121  0.9737 -2.6958 -3.1088
   72MOL    H45 5867   7.210   3.702   4.133 -0.1513  0.3621 -1.3073
   72MOL    C46 5868   7.421   3.773   4.189 -0.8035  0.2365 -1.2663
   72MOL    O47 5869   7.447   3.729   4.057  0.3028 -0.1781  0.5457
   72MOL    H48 5870   7.400   3.688   4.253  1.3215  1.0069  0.5089
   72MOL    H49 5871   7.505   3.820   4.240 -1.1123 -0.5349 -0.0382
   72MOL    C50 5872   7.456   3.832   3.968 -0.7538 -0.2529 -0.3829
   72MOL    O51 5873   7.581   3.898   3.970  0.1794  0.2948  0.7644
   72MOL    H52 5874   7.379   3.909   3.982  0.2262  0.6672  0.0070
   72MOL    H53 5875   7.427   3.791   3.871 -0.6282  3.6925 -2.1791
   72MOL    C54 5876   7.680   3.833   3.898  0.3380  0.4676  0.3476
   72MOL    O55 5877   7.661   3.835   3.764  0.1351  0.1367  0.5071
   72MOL    H56 5878   7.685   3.730   3.934 -0.5351  1.4276  3.4014
   72MOL    H57 5879   7.782   3.860   3.923  0.3364 -1.3153  2.4492
   72MOL    C58 5880   7.667   3.966   3.710  0.0354 -0.2063 -0.1076
   72MOL    O59 5881   0.011   4.024   3.722  0.2868 -0.8517  0.1412
   72MOL    H60 5882   7.602   4.034   3.765  2.7975  1.4999  1.1152
   72MOL    H61 5883   7.633   3.949   3.608  0.9511  2.1212 -0.8086
   72MOL    C62 5884   0.011   4.158   3.677 -0.2985  0.3689 -0.0557
   72MOL    O63 5885   7.778   4.153   3.542  0.1579  0.2470 -0.2721
   72MOL    H64 5886   0.105   4.208   3.700 -0.5342 -0.2246  2.3665
   72MOL    H65 5887   7.709   4.216   3.711 -1.5410  0.7181 -3.5443
   72MOL    C66 5888   0.098   4.119   3.462 -0.3653 -0.4428 -0.1725
   72MOL    O67 5889   0.192   4.224   3.461  0.4255 -0.2665 -0.4363
   72MOL    H68 5890   0.072   4.097   3.359 -0.4548 -1.9786  0.1723
   72MOL    H69 5891   0.154   4.033   3.499 -0.8719 -0.1747  1.2683
   72MOL    C70 5892   0.156   4.315   3.359 -0.0396 -0.8970 -0.3008
   72MOL    O71 5893   0.155   4.265   3.229  0.7405  0.3290  0.0333
   72MOL    H72 5894   0.226   4.399   3.364 -0.2272 -0.7265 -0.4978
   72MOL    H73 5895   0.053   4.335   3.389  0.1859  1.1102 -0.7683
   72MOL    C74 5896   0.283   4.258   3.176  0.6311 -0.3958 -0.2323
   72MOL    O75 5897   0.330   4.383   3.118 -0.1874  0.2167  0.2061
   72MOL    H76 5898   0.285   4.178   3.101 -1.9948  0.6838 -1.5329
   72MOL    H77 5899   0.363   4.245   3.249  0.8841  1.1746 -0.2188
   72MOL    C78 5900   0.256   4.422   3.006  0.3943  0.1225 -0.1310
   72MOL    O79 5901   0.324   4.504   2.920 -0.4949 -0.3549  0.9288
   72MOL    H80 5902   0.167   4.477   3.038  0.8650 -0.1581  1.7250
   72MOL    H81 5903   0.226   4.333   2.950  0.7300  0.7161 -1.2635
   72MOL    H82 5904   0.266   4.564   2.876  0.7102  0.1075 -0.0696
   73MOL     C1 5905   1.271   4.015   5.598 -0.5733 -0.3578  0.2149
   73MOL     O2 5906   1.323   3.976   5.722 -0.2249 -0.0804 -0.0908
   73MOL     H3 5907   1.266   3.922   5.541  0.5860 -0.1036 -0.3192
   73MOL     H4 5908   1.169   4.047   5.617 -0.6728 -0.1868 -0.5552
   73MOL     H5 5909   1.321   4.087   5.532 -2.4340  0.3415 -0.4546
   73MOL     C6 5910   1.465   3.983   5.721 -0.4681 -0.0841  0.4305
   73MOL     O7 5911   1.524   3.993   5.851 -0.4024  0.6894 -0.9666
   73MOL     H8 5912   1.508   4.061   5.658 -0.4881  0.7951  1.4985
   73MOL     H9 5913   1.495   3.885   5.684 -0.9563 -0.2507  0.4663
   73MOL    C10 5914   1.503   4.113   5.914  0.1734  0.5273  0.1665
   73MOL    O11 5915   1.540   4.225   5.839 -0.3501  0.0323  0.2592
   73MOL    H12 5916   1.552   4.116   6.011  0.8227 -1.0367 -0.0881
   73MOL    H13 5917   1.397   4.135   5.922  0.0886  0.2926 -0.3057
   73MOL    C14 5918   1.683   4.231   5.829 -0.0705  0.0836 -0.5302
   73MOL    O15 5919   1.744   4.321   5.918 -0.1141  0.0239 -0.1668
   73MOL    H16 5920   1.726   4.238   5.730  3.8290  1.3122  1.1395
   73MOL    H17 5921   1.737   4.142   5.860  1.0769  0.4261 -1.5115
   73MOL    C18 5922   1.721   4.453   5.881  0.1051  0.8990 -0.4950
   73MOL    O19 5923   1.784   4.500   5.768 -0.4858 -0.6856  0.3387
   73MOL    H20 5924   1.749   4.513   5.967  0.6380  0.8046 -0.6008
   73MOL    H21 5925   1.613   4.466   5.870 -0.2921  0.1686  2.0821
   73MOL    C22 5926   1.928   4.504   5.777  0.9872 -0.4021  0.9435
   73MOL    O23 5927   1.965   4.598   5.861 -0.1601 -0.2373  0.5932
   73MOL    H24 5928   1.969   4.521   5.677  0.7397 -1.9687  0.5527
   73MOL    H25 5929   1.957   4.406   5.816 -0.0636 -0.5673  1.3408
   73MOL    C26 5930   1.958   4.728   5.809 -0.0461 -0.0715  0.8243
   73MOL    O27 5931   2.032   4.744   5.691  0.0190  0.0557  0.0821
   73MOL    H28 5932   1.994   4.795   5.887  0.7743 -0.8850  1.1509
   73MOL    H29 5933   1.856   4.765   5.794  1.3900  2.8038 -2.6069
   73MOL    C30 5934   2.034   4.879   5.649  0.4177 -0.0721  0.8432
   73MOL    O31 5935   2.113   4.966   5.720 -0.4624  0.6377  0.5689
   73MOL    H32 5936   1.935   4.923   5.652 -0.4592 -2.0275  1.4327
   73MOL    H33 5937   2.071   4.880   5.546  0.4114 -2.1415  0.7912
   73MOL    C34 5938   2.243   4.923   5.729 -0.2948 -0.2163 -0.3903
   73MOL    O35 5939   2.317   4.943   5.611  0.2494 -0.1869 -0.2238
   73MOL    H36 5940   2.263   4.825   5.773  0.2977 -0.0698 -0.3190
   73MOL    H37 5941   2.297   4.987   5.799 -0.3353 -0.6705  0.0621
   73MOL    C38 5942   2.383   5.075   5.610  0.1629 -0.0944 -0.4066
   73MOL    O39 5943   2.499   5.064   5.679 -0.4555  0.7895  0.6661
   73MOL    H40 5944   2.332   5.160   5.654  1.6921 -0.9142  3.1061
   73MOL    H41 5945   2.378   5.105   5.505 -0.7946 -0.1054 -0.3630
   73MOL    C42 5946   2.603   5.069   5.588  0.4523 -0.4109  0.6001
   73MOL    O43 5947   2.622   5.197   5.536  0.1354  0.1721 -0.6955
   73MOL    H44 5948   2.576   5.004   5.505 -3.3450  0.3714  1.1279
   73MOL    H45 5949   2.690   5.024   5.635  0.2105  0.3469  1.8053
   73MOL    C46 5950   2.658   5.293   5.632  0.2639 -0.4663  0.2387
   73MOL    O47 5951   2.665   5.427   5.583 -0.3213 -0.5927  0.0000
   73MOL    H48 5952   2.740   5.263   5.697  1.1623 -3.2678 -2.1303
   73MOL    H49 5953   2.576   5.297   5.704 -0.0349 -0.2360 -0.1130
   73MOL    C50 5954   2.774   5.453   5.493  0.6079  0.1741  0.1677
   73MOL    O51 5955   2.841   5.570   5.518 -0.2211  0.0852 -0.1320
   73MOL    H52 5956   2.735   5.462   5.391  0.6071 -0.2884  0.1237
   73MOL    H53 5957   2.852   5.377   5.505 -1.2906 -1.8629  0.0078
   73MOL    C54 5958   2.769   5.686   5.475  0.4811  0.1513  0.2499
   73MOL    O55 5959   2.753   5.685   5.337  0.2068 -0.2208 -0.4932
   73MOL    H56 5960   2.815   5.781   5.501 -0.6664  0.7780  0.0207
   73MOL    H57 5961   2.668   5.687   5.516 -0.5635  0.2808 -2.2235
   73MOL    C58 5962   2.871   5.706   5.270 -0.7743 -0.1124 -0.0090
   73MOL    O59 5963   2.856   5.652   5.145 -0.1350  0.5954 -0.1404
   73MOL    H60 5964   2.959   5.658   5.313 -0.5662 -1.8562 -2.2670
   73MOL    H61 5965   2.899   5.810   5.282 -2.2489  0.0006  2.6936
   73MOL    C62 5966   2.797   5.736   5.057  0.7212  0.2992 -0.3073
   73MOL    O63 5967   2.883   5.839   5.017  0.0628 -0.3240  0.3918
   73MOL    H64 5968   2.698   5.764   5.093 -0.3537 -1.6572 -1.6179
   73MOL    H65 5969   2.778   5.684   4.963  0.6211 -1.1741  0.5096
   73MOL    C66 5970   2.822   5.951   4.983 -0.5542  0.2820 -0.3171
   73MOL    O67 5971   2.739   6.007   5.078 -0.6844  0.9107  0.0352
   73MOL    H68 5972   2.775   5.940   4.886  1.3812  2.2545 -1.5353
   73MOL    H69 5973   2.906   6.020   4.969 -1.0194  0.9118 -0.0324
   73MOL    C70 5974   2.665   6.108   5.028  0.3301 -0.2401 -0.3113
   73MOL    O71 5975   2.570   6.060   4.936 -0.4132  0.2319 -0.1269
   73MOL    H72 5976   2.733   6.183   4.988  0.7460 -0.5037 -0.1010
   73MOL    H73 5977   2.606   6.152   5.108 -0.4704  0.3509 -1.2138
   73MOL    C74 5978   2.455   6.005   4.988 -0.0378 -0.3200 -0.1862
   73MOL    O75 5979   2.357   6.101   5.015 -0.9661  0.5668  0.2837
   73MOL    H76 5980   2.481   5.938   5.070 -0.8414 -0.8890 -0.3899
   73MOL    H77 5981   2.414   5.945   4.906 -1.8807  1.1823 -0.4131
   73MOL    C78 5982   2.307   6.171   4.899 -0.1277 -0.1430  0.2693
   73MOL    O79 5983   2.203   6.262   4.942 -0.4795 -0.1608 -0.1856
   73MOL    H80 5984   2.260   6.098   4.834  2.1007 -0.7775 -0.6535
   73MOL    H81 5985   2.382   6.231   4.846 -0.1734  0.5664  0.9939
   73MOL    H82 5986   2.147   6.211   4.998 -0.2899  0.7258  0.8172
   74MOL     C1 5987   5.411   0.555   3.299  0.5168 -0.7409 -0.4131
   74MOL     O2 5988   5.507   0.566   3.396 -0.5773 -0.0771 -0.3150
   74MOL     H3 5989   5.315   0.524   3.340  0.2857 -2.6420 -2.3116
   74MOL     H4 5990   5.392   0.651   3.253 -2.0244 -0.9286  0.2091
   74MOL     H5 5991   5.423   0.480   3.220  1.4460 -1.6256  0.5396
   74MOL     C6 5992   5.540   0.443   3.453 -0.5847 -0.9987 -0.1142
   74MOL     O7 5993   5.436   0.402   3.540  0.1288 -0.4894  0.6881
   74MOL     H8 5994   5.637   0.455   3.502 -1.2183  1.5575  0.5736
   74MOL     H9 5995   5.555   0.363   3.380  1.5398 -0.2534 -0.5403
   74MOL    C10 5996   5.412   0.490   3.646 -0.8384  0.1866  0.1650
   74MOL    O11 5997   5.525   0.511   3.719 -0.5677 -0.1591  0.3444
   74MOL    H12 5998   5.340   0.438   3.709 -0.2656  1.5379  1.9609
   74MOL    H13 5999   5.370   0.577   3.594  0.3229 -0.7701 -2.4826
   74MOL    C14 6000   5.571   0.395   3.783 -0.0482 -0.1817 -0.2163
   74MOL    O15 6001   5.688   0.414   3.853  0.2190 -0.6054 -0.3418
   74MOL    H16 6002   5.589   0.308   3.719 -1.1448 -0.9659  0.5207
   74MOL    H17 6003   5.488   0.370   3.849  0.1843  2.0240  0.9418
   74MOL    C18 6004   5.678   0.456   3.986  0.4993 -0.0011  0.6827
   74MOL    O19 6005   5.657   0.355   4.065 -0.1117  0.6373  0.7807
   74MOL    H20 6006   5.598   0.530   3.992  0.0323 -0.3805 -0.5571
   74MOL    H21 6007   5.760   0.518   4.023  1.1457 -1.3449  1.5213
   74MOL    C22 6008   5.775   0.285   4.091 -0.1669  0.9447  0.4261
   74MOL    O23 6009   5.875   0.360   4.156  0.1870 -0.4088 -0.5940
   74MOL    H24 6010   5.816   0.236   4.003 -1.3594  2.0478 -0.7669
   74MOL    H25 6011   5.750   0.207   4.162  0.5401  0.1228 -0.2135
   74MOL    C26 6012   5.837   0.401   4.285 -0.6228 -0.6802  0.1030
   74MOL    O27 6013   5.943   0.458   4.352 -0.1971  0.4470 -0.1809
   74MOL    H28 6014   5.801   0.320   4.349 -1.6570  1.0809  1.8357
   74MOL    H29 6015   5.747   0.462   4.276  0.1072  0.1568 -1.7651
   74MOL    C30 6016   5.978   0.577   4.297  1.0114  0.4071 -0.4022
   74MOL    O31 6017   5.924   0.681   4.373  0.2518  0.5835  0.2975
   74MOL    H32 6018   5.944   0.584   4.193 -0.9542 -2.5935 -0.0296
   74MOL    H33 6019   6.087   0.589   4.297  1.2378 -1.3592  1.6861
   74MOL    C34 6020   5.957   0.679   4.508 -0.5187 -0.0692  0.0799
   74MOL    O35 6021   5.891   0.789   4.565  0.7366  0.6097 -0.1253
   74MOL    H36 6022   6.061   0.655   4.532 -0.1504  0.8751 -0.5577
   74MOL    H37 6023   5.897   0.598   4.549 -0.0666  0.3858  1.6574
   74MOL    C38 6024   5.967   0.897   4.583  0.3610  0.5102 -0.2280
   74MOL    O39 6025   6.044   0.890   4.700 -0.1304 -0.7282 -0.3125
   74MOL    H40 6026   5.906   0.987   4.574 -0.5775  0.0204  1.1436
   74MOL    H41 6027   6.034   0.915   4.499 -1.1881  1.1840 -1.3476
   74MOL    C42 6028   5.967   0.917   4.818 -0.3640 -0.1235 -0.4402
   74MOL    O43 6029   5.947   1.059   4.839 -0.2269  0.2708  0.6377
   74MOL    H44 6030   6.028   0.872   4.897 -1.4854 -2.1621 -0.6951
   74MOL    H45 6031   5.878   0.859   4.794  0.6301 -1.2713 -1.4462
   74MOL    C46 6032   5.895   1.089   4.961  0.4595  0.1395 -0.9145
   74MOL    O47 6033   5.769   1.037   4.978 -0.0403 -0.1328  0.6336
   74MOL    H48 6034   5.891   1.197   4.971 -2.1135 -0.0800  1.1078
   74MOL    H49 6035   5.960   1.040   5.034 -0.6730 -1.2628 -0.8127
   74MOL    C50 6036   5.672   1.102   4.897  0.4568  0.1515  0.8558
   74MOL    O51 6037   5.623   1.218   4.961 -0.6317  0.3706 -0.4429
   74MOL    H52 6038   5.597   1.025   4.878  0.9440 -0.2389  0.4781
   74MOL    H53 6039   5.712   1.130   4.800 -1.6440  0.0239 -0.0562
   74MOL    C54 6040   5.552   1.188   5.085  0.3278  0.3600  0.5578
   74MOL    O55 6041   5.440   1.110   5.059  0.0087 -0.1222  0.3064
   74MOL    H56 6042   5.516   1.281   5.130 -0.2896  0.6514 -0.5272
   74MOL    H57 6043   5.624   1.143   5.153  0.2574 -0.0601  0.3556
   74MOL    C58 6044   5.347   1.191   4.994 -0.3274 -0.2366  0.6754
   74MOL    O59 6045   5.265   1.256   5.090 -0.0714 -0.4010 -0.4001
   74MOL    H60 6046   5.296   1.122   4.927  1.3473 -1.5355  0.6871
   74MOL    H61 6047   5.384   1.272   4.932  0.8985  0.3585  2.1431
   74MOL    C62 6048   5.183   1.171   5.160  0.1041 -0.0694 -0.0812
   74MOL    O63 6049   5.077   1.121   5.073  0.9220 -0.2714  0.5387
   74MOL    H64 6050   5.139   1.220   5.246 -1.8230  1.7835 -2.0336
   74MOL    H65 6051   5.240   1.088   5.202 -0.6253 -0.9922 -0.8890
   74MOL    C66 6052   4.956   1.100   5.142  1.1266 -0.4228  0.3928
   74MOL    O67 6053   4.896   1.221   5.177 -0.8082  0.4261 -0.7236
   74MOL    H68 6054   4.968   1.031   5.225 -0.0754 -1.7485 -0.5253
   74MOL    H69 6055   4.895   1.060   5.062  0.7151  0.0539  0.4631
   74MOL    C70 6056   4.769   1.201   5.239 -0.0023  0.0606 -0.4431
   74MOL    O71 6057   4.672   1.159   5.149 -0.8970  0.5934  0.7869
   74MOL    H72 6058   4.740   1.287   5.299  1.1845 -0.2315  0.5651
   74MOL    H73 6059   4.774   1.117   5.310  2.0988 -0.7359 -1.4947
   74MOL    C74 6060   4.644   1.255   5.048 -0.0763 -0.1154 -0.1269
   74MOL    O75 6061   4.582   1.368   5.095 -0.3655 -0.3551  0.4794
   74MOL    H76 6062   4.587   1.217   4.964  1.8768 -0.2734 -1.4116
   74MOL    H77 6063   4.737   1.293   5.006 -2.2210  0.8824 -4.2079
   74MOL    C78 6064   4.450   1.348   5.136 -0.4048  1.0415 -1.0303
   74MOL    O79 6065   4.399   1.471   5.172  0.4263 -0.1974 -0.3789
   74MOL    H80 6066   4.440   1.279   5.219  0.3594 -0.4329 -2.1204
   74MOL    H81 6067   4.393   1.305   5.053 -0.1375 -2.3698  0.4624
   74MOL    H82 6068   4.468   1.534   5.156  2.1831 -1.5885  1.3836
   75MOL     C1 6069   1.040   3.264   5.037 -0.0577 -0.2324  0.6219
   75MOL     O2 6070   0.919   3.304   5.098  0.6290 -0.0373  0.3240
   75MOL     H3 6071   1.007   3.216   4.945 -0.0227 -0.2352  0.6101
   75MOL     H4 6072   1.096   3.358   5.039  0.8403 -0.7543  0.2755
   75MOL     H5 6073   1.090   3.196   5.107  1.7488  0.8468  0.4257
   75MOL     C6 6074   0.915   3.316   5.237  0.3392  0.1294 -0.7630
   75MOL     O7 6075   0.948   3.196   5.299  0.2749 -0.0004  0.7960
   75MOL     H8 6076   0.816   3.357   5.258  0.1178 -1.3216  1.1994
   75MOL     H9 6077   0.980   3.399   5.262 -1.1102  1.0418  0.0780
   75MOL    C10 6078   0.849   3.095   5.294  0.6746  0.1036  0.3418
   75MOL    O11 6079   0.896   2.975   5.348 -0.2376  0.2114  0.0883
   75MOL    H12 6080   0.799   3.089   5.197 -1.3976 -0.1078  1.3821
   75MOL    H13 6081   0.775   3.129   5.366  0.3227 -1.0057  0.5220
   75MOL    C14 6082   0.993   2.910   5.271 -0.0666  0.4287  0.1284
   75MOL    O15 6083   0.939   2.862   5.151 -0.2005  0.4031  0.4118
   75MOL    H16 6084   1.020   2.828   5.338 -1.4441  0.3190  0.5725
   75MOL    H17 6085   1.082   2.970   5.250  0.7309 -0.2412  1.5410
   75MOL    C18 6086   0.855   2.755   5.173  0.0152 -0.6570 -0.1036
   75MOL    O19 6087   0.741   2.783   5.110 -0.0111 -0.2184 -0.5199
   75MOL    H20 6088   0.833   2.749   5.280  0.2089  0.8280  0.0361
   75MOL    H21 6089   0.914   2.665   5.154  0.6305  0.0432 -1.5761
   75MOL    C22 6090   0.762   2.764   4.974  0.3277 -0.5652  0.2648
   75MOL    O23 6091   0.759   2.635   4.932  0.5330  0.8979 -0.0449
   75MOL    H24 6092   0.850   2.807   4.927 -0.7967  0.6426 -0.7799
   75MOL    H25 6093   0.677   2.819   4.933 -0.3434 -0.7864  1.3276
   75MOL    C26 6094   0.738   2.625   4.796 -0.0487  0.1068  0.1906
   75MOL    O27 6095   0.608   2.658   4.769 -0.0883 -0.2086 -0.3971
   75MOL    H28 6096   0.763   2.523   4.766  2.1060  1.0684 -1.4155
   75MOL    H29 6097   0.809   2.689   4.744  1.1784 -2.4371 -1.3553
   75MOL    C30 6098   0.518   2.574   4.841 -0.3569  0.6156 -0.1547
   75MOL    O31 6099   0.402   2.546   4.764 -0.4735 -0.1317  0.5875
   75MOL    H32 6100   0.490   2.614   4.938  1.0217 -2.2387  1.5045
   75MOL    H33 6101   0.561   2.476   4.864 -0.6578  0.8991  1.6807
   75MOL    C34 6102   0.336   2.670   4.743  0.0206  0.1716  0.1420
   75MOL    O35 6103   0.282   2.723   4.859  0.3794  0.2433 -0.1457
   75MOL    H36 6104   0.252   2.671   4.674 -0.6416 -0.2711  0.9249
   75MOL    H37 6105   0.402   2.741   4.693 -1.0941  0.5047 -0.8733
   75MOL    C38 6106   0.181   2.638   4.915  0.0126  0.0268  0.2712
   75MOL    O39 6107   0.071   2.623   4.831  0.4519 -0.2996  0.7856
   75MOL    H40 6108   0.147   2.684   5.007 -2.1912 -1.5584  0.2806
   75MOL    H41 6109   0.212   2.534   4.928 -2.1976 -0.6413  0.4199
   75MOL    C42 6110   7.781   2.742   4.818  0.1641  0.0243 -0.4538
   75MOL    O43 6111   7.702   2.756   4.927  0.5279 -0.1719 -0.6817
   75MOL    H44 6112   7.729   2.730   4.723 -0.1940  0.4385 -0.3109
   75MOL    H45 6113   0.061   2.830   4.817 -0.7831  0.8069  2.7110
   75MOL    C46 6114   7.593   2.664   4.934  0.5007  0.5555  0.5999
   75MOL    O47 6115   7.496   2.694   5.032  0.5003  0.0331 -0.1659
   75MOL    H48 6116   7.643   2.573   4.967 -0.7016  0.3300  1.8588
   75MOL    H49 6117   7.545   2.649   4.838  0.4784 -1.1367  0.8597
   75MOL    C50 6118   7.439   2.819   5.007  0.3517 -0.1542  0.1108
   75MOL    O51 6119   7.356   2.815   4.896 -0.1897 -0.1660  0.0668
   75MOL    H52 6120   7.522   2.890   5.002  0.4299 -0.0834  1.9121
   75MOL    H53 6121   7.383   2.859   5.092 -0.2485  0.6543 -0.6608
   75MOL    C54 6122   7.293   2.940   4.874 -0.2764  0.8432  0.0915
   75MOL    O55 6123   7.384   3.040   4.829  0.1917  0.0047  0.1344
   75MOL    H56 6124   7.240   2.978   4.960  0.5755  1.3856  0.3775
   75MOL    H57 6125   7.222   2.931   4.792 -0.6827  0.2963  0.4989
   75MOL    C58 6126   7.466   2.995   4.724 -0.5697  0.1121  0.4716
   75MOL    O59 6127   7.385   2.968   4.612 -0.1972 -0.2695  0.1301
   75MOL    H60 6128   7.522   2.909   4.760  0.4003  0.1486 -0.9090
   75MOL    H61 6129   7.539   3.073   4.701  1.2035 -1.2972  1.2112
   75MOL    C62 6130   7.331   3.090   4.558  0.3114  0.3317  0.1239
   75MOL    O63 6131   7.429   3.170   4.495  0.0967 -0.2468 -0.3573
   75MOL    H64 6132   7.275   3.139   4.637 -0.2512 -2.2009  1.3450
   75MOL    H65 6133   7.248   3.073   4.489 -1.8300 -1.0730  2.9090
   75MOL    C66 6134   7.449   3.130   4.364  0.0011 -0.1520 -0.7756
   75MOL    O67 6135   7.359   3.196   4.286  0.2496 -0.2563 -0.1068
   75MOL    H68 6136   7.443   3.022   4.367  1.8258 -0.2451  0.6945
   75MOL    H69 6137   7.549   3.162   4.333 -0.3796  4.3173  2.0385
   75MOL    C70 6138   7.405   3.322   4.239 -0.0969  0.9393  0.1910
   75MOL    O71 6139   7.509   3.310   4.142 -0.2060  0.1542 -0.3528
   75MOL    H72 6140   7.431   3.380   4.327 -2.0297 -1.9648  2.7556
   75MOL    H73 6141   7.325   3.385   4.200 -0.0477  2.0252  1.8107
   75MOL    C74 6142   7.576   3.427   4.108 -0.3446 -0.4015  0.8312
   75MOL    O75 6143   7.657   3.468   4.217  0.3445 -0.2337  0.2841
   75MOL    H76 6144   7.510   3.509   4.078  0.1056 -0.8598 -1.4262
   75MOL    H77 6145   7.639   3.402   4.023 -1.4637 -1.7153  0.3822
   75MOL    C78 6146   7.769   3.390   4.238  0.3028 -0.6131 -0.1520
   75MOL    O79 6147   0.058   3.441   4.346  0.1344 -0.8535 -0.2938
   75MOL    H80 6148   0.043   3.393   4.146 -2.0216  2.4114 -1.5898
   75MOL    H81 6149   7.743   3.289   4.270  0.2260 -0.2220  1.0548
   75MOL    H82 6150   0.027   3.530   4.355  0.2291 -0.7903 -0.6047
   76MOL     C1 6151   6.692   2.599   3.933 -0.3188  0.2464 -0.3393
   76MOL     O2 6152   6.830   2.587   3.974 -0.0555 -0.0674  0.1505
   76MOL     H3 6153   6.670   2.587   3.827  1.6742  1.3515 -0.9075
   76MOL     H4 6154   6.626   2.534   3.989 -0.4690 -0.5784 -1.4533
   76MOL     H5 6155   6.677   2.704   3.960  0.3380  0.6045 -1.3298
   76MOL     C6 6156   6.883   2.467   3.928  0.4003 -0.4019 -0.4903
   76MOL     O7 6157   6.890   2.450   3.785 -0.1705 -0.3074  0.0188
   76MOL     H8 6158   6.827   2.385   3.972  1.7148 -1.5047 -0.8569
   76MOL     H9 6159   6.984   2.463   3.968  0.9427  1.0549 -1.6233
   76MOL    C10 6160   6.967   2.557   3.730  0.0271 -0.4746 -0.7922
   76MOL    O11 6161   7.098   2.539   3.755  0.5522 -0.1330  0.0350
   76MOL    H12 6162   6.930   2.645   3.784  0.4919 -0.5556 -0.3327
   76MOL    H13 6163   6.939   2.578   3.627  0.4164 -0.6955 -0.9423
   76MOL    C14 6164   7.158   2.472   3.651  0.4670 -0.2713 -0.1852
   76MOL    O15 6165   7.293   2.475   3.659  0.6624  0.2784  0.1438
   76MOL    H16 6166   7.126   2.516   3.556 -0.9088 -1.5345 -0.3252
   76MOL    H17 6167   7.133   2.366   3.659  1.3534 -0.5120 -0.5454
   76MOL    C18 6168   7.347   2.604   3.621  0.2066  0.6094 -0.1380
   76MOL    O19 6169   7.348   2.627   3.481  0.5809  0.2921  0.0257
   76MOL    H20 6170   7.449   2.604   3.658 -0.1151 -0.6510  0.7614
   76MOL    H21 6171   7.280   2.681   3.662  0.3864  0.7980 -0.1972
   76MOL    C22 6172   7.462   2.578   3.416 -0.3595  0.1887 -0.2944
   76MOL    O23 6173   7.582   2.634   3.459  0.1084  0.0505 -0.1059
   76MOL    H24 6174   7.447   2.588   3.308  1.8097  1.2755 -0.4998
   76MOL    H25 6175   7.466   2.470   3.433  0.0809  0.0083 -1.5239
   76MOL    C26 6176   7.607   2.768   3.421  0.0416  0.0360 -0.8882
   76MOL    O27 6177   7.619   2.779   3.287  0.2172 -0.0089 -0.2254
   76MOL    H28 6178   7.694   2.799   3.479 -1.0258 -0.8584  1.2450
   76MOL    H29 6179   7.522   2.825   3.459 -0.8740 -0.0843 -2.7244
   76MOL    C30 6180   7.667   2.905   3.254 -0.5239 -0.1259  0.0173
   76MOL    O31 6181   7.572   3.004   3.280  0.2273 -0.7371 -1.0476
   76MOL    H32 6182   7.708   2.916   3.154  0.3158 -1.9780  0.1340
   76MOL    H33 6183   7.753   2.925   3.318 -0.1410 -3.0362  0.4787
   76MOL    C34 6184   7.463   3.005   3.195  0.2180 -0.2777  0.0371
   76MOL    O35 6185   7.373   3.107   3.227 -0.5573  0.3311  0.1306
   76MOL    H36 6186   7.411   2.909   3.201  0.3597 -0.4063 -0.8406
   76MOL    H37 6187   7.484   3.000   3.089 -1.0818  1.5128 -0.3356
   76MOL    C38 6188   7.427   3.234   3.216  0.4805 -0.2879 -0.2624
   76MOL    O39 6189   7.412   3.278   3.079 -0.3215  0.2841  0.7090
   76MOL    H40 6190   7.535   3.243   3.232  0.5891 -1.4777 -0.2601
   76MOL    H41 6191   7.394   3.306   3.290  0.4089  0.4709 -1.0179
   76MOL    C42 6192   7.283   3.266   3.032 -1.2024 -0.8487  0.3271
   76MOL    O43 6193   7.191   3.332   3.116 -0.0140 -0.0623  0.3025
   76MOL    H44 6194   7.258   3.160   3.025 -1.0459 -0.9533  1.3238
   76MOL    H45 6195   7.286   3.303   2.930  0.7582 -0.4260  0.5146
   76MOL    C46 6196   7.058   3.308   3.079 -0.4182 -0.0912 -0.1988
   76MOL    O47 6197   7.009   3.192   3.138  0.1361 -0.1417  0.3425
   76MOL    H48 6198   7.046   3.303   2.971  1.2197  0.8378 -0.4333
   76MOL    H49 6199   6.993   3.389   3.113  0.0523  0.3784 -0.4034
   76MOL    C50 6200   7.003   3.198   3.275  0.3975  0.4926  0.1050
   76MOL    O51 6201   6.861   3.192   3.312 -0.3041 -0.1415 -0.0578
   76MOL    H52 6202   7.041   3.286   3.326  1.4567  0.1519 -0.0835
   76MOL    H53 6203   7.060   3.119   3.323  1.9044  1.4213 -0.1341
   76MOL    C54 6204   6.789   3.093   3.238 -0.2891  0.0811  0.2871
   76MOL    O55 6205   6.671   3.056   3.308 -0.0616 -0.1398 -0.5003
   76MOL    H56 6206   6.844   2.999   3.244 -2.4331 -1.1891  0.6329
   76MOL    H57 6207   6.782   3.113   3.131  2.4170  1.9135  0.4076
   76MOL    C58 6208   6.564   3.142   3.277  0.2581 -0.7191  0.2329
   76MOL    O59 6209   6.495   3.083   3.163 -0.1550 -0.4313 -0.1862
   76MOL    H60 6210   6.595   3.240   3.242 -1.2271 -0.6088 -0.8437
   76MOL    H61 6211   6.490   3.150   3.357 -1.9648 -1.8715 -1.6388
   76MOL    C62 6212   6.394   2.987   3.197 -0.6641  0.1929  0.0973
   76MOL    O63 6213   6.285   3.053   3.255  0.0955  0.3759  0.3156
   76MOL    H64 6214   6.431   2.911   3.266  0.4992 -1.0568 -1.8480
   76MOL    H65 6215   6.361   2.931   3.109  1.1863 -0.6052 -0.1071
   76MOL    C66 6216   6.228   3.155   3.179 -1.1130 -0.3675 -0.3543
   76MOL    O67 6217   6.154   3.094   3.080 -0.1791 -0.2781 -0.2450
   76MOL    H68 6218   6.304   3.225   3.145 -2.6260  0.9668 -1.0426
   76MOL    H69 6219   6.163   3.205   3.251  1.1160  0.7348  0.9698
   76MOL    C70 6220   6.058   3.175   3.029 -0.4146  0.4675 -0.4263
   76MOL    O71 6221   5.964   3.212   3.122 -0.2174 -0.0171 -0.7711
   76MOL    H72 6222   6.010   3.131   2.941  1.1178 -0.3225 -0.8912
   76MOL    H73 6223   6.102   3.268   2.991 -1.6881  0.6841 -1.3921
   76MOL    C74 6224   5.869   3.116   3.135  0.0422  0.7868 -0.2560
   76MOL    O75 6225   5.779   3.116   3.024  0.2824  0.0704  0.7396
   76MOL    H76 6226   5.814   3.153   3.222 -0.0305  0.9083 -0.3532
   76MOL    H77 6227   5.913   3.022   3.170  1.3927  1.3945 -0.2980
   76MOL    C78 6228   5.708   3.240   3.021 -0.5300  1.1091 -0.2979
   76MOL    O79 6229   5.620   3.249   2.912  0.2425  0.5343 -0.8339
   76MOL    H80 6230   5.774   3.326   3.014 -0.1254  0.7760 -0.6567
   76MOL    H81 6231   5.657   3.259   3.116  0.3436 -0.2108  0.4528
   76MOL    H82 6232   5.540   3.224   2.956  1.0219 -0.3179  0.1349
   77MOL     C1 6233   2.871   6.314   0.493 -0.3524  0.8918 -0.1736
   77MOL     O2 6234   2.810   6.280   0.614  0.0440  0.0886 -0.8204
   77MOL     H3 6235   2.963   6.372   0.498  1.3269 -1.7201  0.1244
   77MOL     H4 6236   2.889   6.222   0.437 -3.4267 -0.1290  0.3871
   77MOL     H5 6237   2.809   6.392   0.447  0.5790  3.1710  2.3158
   77MOL     C6 6238   2.683   6.224   0.603  0.2090  0.0557 -0.2516
   77MOL     O7 6239   2.680   6.104   0.534 -0.4342 -0.3059 -0.1291
   77MOL     H8 6240   2.623   6.284   0.535 -2.8615 -2.6266 -0.0267
   77MOL     H9 6241   2.637   6.225   0.702 -0.9717 -1.4024 -0.7692
   77MOL    C10 6242   2.704   5.988   0.612 -0.1982  0.1901  0.0488
   77MOL    O11 6243   2.600   5.963   0.702 -0.1528 -0.2941 -0.3238
   77MOL    H12 6244   2.798   6.004   0.666 -0.2201 -2.1393  0.8524
   77MOL    H13 6245   2.721   5.901   0.549 -3.3458 -0.7601  0.4500
   77MOL    C14 6246   2.478   5.932   0.640 -0.5799 -0.2124 -0.5381
   77MOL    O15 6247   2.383   5.904   0.733 -0.4396  0.5353 -0.5945
   77MOL    H16 6248   2.503   5.851   0.572 -1.0613  0.2431 -1.2579
   77MOL    H17 6249   2.453   6.025   0.589 -2.7195 -1.1211 -1.1764
   77MOL    C18 6250   2.393   5.775   0.780 -0.6820 -0.3175  0.9197
   77MOL    O19 6251   2.334   5.689   0.688 -0.1016  0.5584 -0.1357
   77MOL    H20 6252   2.336   5.776   0.874  0.7125 -1.1078  1.7841
   77MOL    H21 6253   2.497   5.749   0.801 -1.0580 -0.8393  2.2108
   77MOL    C22 6254   2.193   5.696   0.679  0.3025 -0.6714  0.4310
   77MOL    O23 6255   2.131   5.629   0.782  0.5567 -0.1032  0.0313
   77MOL    H24 6256   2.162   5.652   0.584  0.7643 -1.3310  0.5834
   77MOL    H25 6257   2.166   5.800   0.692  1.6455 -0.6443  3.2763
   77MOL    C26 6258   2.171   5.490   0.792  0.6708  0.0433  0.9974
   77MOL    O27 6259   2.116   5.420   0.687  0.4089 -0.0963 -0.0492
   77MOL    H28 6260   2.128   5.459   0.887  0.7809 -0.1664  0.9784
   77MOL    H29 6261   2.279   5.476   0.799  0.7299 -0.2924 -0.5068
   77MOL    C30 6262   1.999   5.352   0.717 -0.3917  0.6919  0.0457
   77MOL    O31 6263   1.899   5.432   0.773  0.2314  0.0280 -0.0549
   77MOL    H32 6264   2.017   5.264   0.779 -0.4462 -0.7054 -1.8945
   77MOL    H33 6265   1.969   5.307   0.623  0.6101  1.5979 -0.7282
   77MOL    C34 6266   1.815   5.490   0.680 -0.5388  0.5304  0.0870
   77MOL    O35 6267   1.731   5.395   0.613  0.3875  0.3147  0.0088
   77MOL    H36 6268   1.880   5.538   0.608 -1.8311  0.0307 -1.4300
   77MOL    H37 6269   1.756   5.560   0.738  0.4799  0.4019  1.3021
   77MOL    C38 6270   1.622   5.452   0.551  0.0093  0.4352 -0.3416
   77MOL    O39 6271   1.643   5.544   0.455  0.3374  0.8445 -0.0278
   77MOL    H40 6272   1.564   5.506   0.626  1.0230 -0.7525  1.3362
   77MOL    H41 6273   1.557   5.371   0.517 -0.8416  1.6052 -1.5797
   77MOL    C42 6274   1.731   5.496   0.359 -0.2820  0.4710 -0.4907
   77MOL    O43 6275   1.701   5.550   0.225  0.0568 -0.4980 -0.3848
   77MOL    H44 6276   1.719   5.389   0.345  2.0961 -0.0834  1.3870
   77MOL    H45 6277   1.836   5.514   0.382 -0.0218  0.0833 -1.3879
   77MOL    C46 6278   1.570   5.535   0.186 -0.1075 -0.0283 -0.2922
   77MOL    O47 6279   1.529   5.619   0.087  0.3371 -0.2224 -0.6857
   77MOL    H48 6280   1.500   5.554   0.267 -1.4964 -0.6122 -1.3338
   77MOL    H49 6281   1.567   5.429   0.164 -1.1700 -0.1196  0.2560
   77MOL    C50 6282   1.513   5.755   0.131  0.3145  0.2341  0.2993
   77MOL    O51 6283   1.383   5.761   0.186 -0.0345 -0.1250 -0.3194
   77MOL    H52 6284   1.513   5.822   0.045  0.5106 -3.0643 -2.3675
   77MOL    H53 6285   1.584   5.784   0.208 -2.5841  2.4563  2.2497
   77MOL    C54 6286   1.281   5.788   0.094 -0.2035  0.6054  0.3122
   77MOL    O55 6287   1.298   5.913   0.033 -0.3612  0.5302 -0.6801
   77MOL    H56 6288   1.180   5.784   0.136 -1.0919 -1.0875 -1.8491
   77MOL    H57 6289   1.284   5.711   0.017  0.8673  0.3145  0.6302
   77MOL    C58 6290   1.298   6.014   0.133  0.5025  0.0187 -0.2578
   77MOL    O59 6291   1.341   6.139   0.077 -0.1984 -0.0925  0.1984
   77MOL    H60 6292   1.332   5.991   0.234  0.0726  4.0686  0.9129
   77MOL    H61 6293   1.193   6.027   0.160  0.8018  1.3453  0.3195
   77MOL    C62 6294   1.481   6.151   0.058 -0.2183 -0.4717  0.6193
   77MOL    O63 6295   1.542   6.249   0.149  0.2991  0.7151  0.0442
   77MOL    H64 6296   1.482   6.197   7.743 -0.0794  0.3301  0.9979
   77MOL    H65 6297   1.526   6.051   0.051  0.8571  0.0445  0.0263
   77MOL    C66 6298   1.577   6.175   0.263 -0.0234 -0.0173  0.0831
   77MOL    O67 6299   1.691   6.099   0.239 -0.2425 -0.2592 -0.0540
   77MOL    H68 6300   1.505   6.103   0.302 -1.3266  2.1391  1.7608
   77MOL    H69 6301   1.599   6.250   0.339  1.9989  0.1340 -0.6194
   77MOL    C70 6302   1.781   6.095   0.346 -0.4675 -0.0752  0.5603
   77MOL    O71 6303   1.733   6.049   0.462  0.6818 -0.3699  0.0294
   77MOL    H72 6304   1.795   6.200   0.373  0.8467  0.6624 -2.7353
   77MOL    H73 6305   1.880   6.067   0.309 -1.1940 -2.6722  0.5394
   77MOL    C74 6306   1.749   5.916   0.472  0.4772 -0.1622 -0.1523
   77MOL    O75 6307   1.683   5.871   0.586  0.0251 -0.5146  0.5982
   77MOL    H76 6308   1.854   5.888   0.482  0.8027  0.4138 -1.7681
   77MOL    H77 6309   1.710   5.880   0.377  1.1089 -0.0591 -0.4531
   77MOL    C78 6310   1.739   5.911   0.705  0.4292  0.3038 -0.2258
   77MOL    O79 6311   1.668   5.844   0.809 -0.4222 -0.3588 -0.5457
   77MOL    H80 6312   1.725   6.016   0.729 -0.3230 -0.1997  1.5860
   77MOL    H81 6313   1.844   5.881   0.695 -0.1537 -0.8015 -4.0109
   77MOL    H82 6314   1.739   5.825   0.868 -1.8551 -1.5011  0.8757
   78MOL     C1 6315   2.358   0.307   4.261 -0.8260 -0.0138 -0.2105
   78MOL     O2 6316   2.482   0.243   4.250  0.1388  0.4228 -0.2642
   78MOL     H3 6317   2.346   0.337   4.365  0.4791 -0.6547  0.1387
   78MOL     H4 6318   2.356   0.400   4.204 -0.8718 -0.9569 -1.7809
   78MOL     H5 6319   2.268   0.248   4.245 -2.1391  1.5288  1.3210
   78MOL     C6 6320   2.508   0.192   4.117  0.2355 -0.1938 -0.7125
   78MOL     O7 6321   2.521   0.296   4.020  0.0730  0.2478  0.1864
   78MOL     H8 6322   2.426   0.131   4.079  0.2338 -0.5371 -0.1727
   78MOL     H9 6323   2.598   0.131   4.120  1.6867  1.7961 -2.8112
   78MOL    C10 6324   2.612   0.392   4.059 -0.0596  0.0365 -0.1455
   78MOL    O11 6325   2.661   0.463   3.954 -0.0484  0.0489  0.2544
   78MOL    H12 6326   2.695   0.330   4.090  0.1342 -0.1717 -1.0684
   78MOL    H13 6327   2.590   0.454   4.146  1.2033 -2.8891  2.3372
   78MOL    C14 6328   2.580   0.568   3.910 -0.5988 -0.0080  0.2792
   78MOL    O15 6329   2.605   0.683   3.983  0.2306 -0.5545  0.1690
   78MOL    H16 6330   2.477   0.533   3.913 -1.0005  1.0134 -1.2036
   78MOL    H17 6331   2.594   0.584   3.803 -3.2682  0.9982  0.0412
   78MOL    C18 6332   2.719   0.759   3.946 -0.0158  0.6130  0.0873
   78MOL    O19 6333   2.702   0.824   3.828  0.2152  0.5395 -0.1043
   78MOL    H20 6334   2.801   0.688   3.939  0.1101  0.9032 -1.5521
   78MOL    H21 6335   2.725   0.841   4.018 -0.2362 -1.0447  2.0425
   78MOL    C22 6336   2.591   0.907   3.826  0.5202 -0.3825 -0.8012
   78MOL    O23 6337   2.596   0.982   3.711 -0.1065 -0.9054  0.5079
   78MOL    H24 6338   2.579   0.976   3.909  0.7141 -1.4905  0.1616
   78MOL    H25 6339   2.501   0.846   3.834  0.0114  0.6174  1.3503
   78MOL    C26 6340   2.474   1.049   3.697 -0.3355  0.1247 -0.2453
   78MOL    O27 6341   2.362   0.964   3.662 -0.3484  0.4955 -0.2023
   78MOL    H28 6342   2.494   1.131   3.628  0.4269 -0.2670 -0.4993
   78MOL    H29 6343   2.446   1.112   3.782  1.1443  0.3715  0.0752
   78MOL    C30 6344   2.371   0.931   3.525 -0.4913 -0.3040  0.1074
   78MOL    O31 6345   2.321   1.024   3.442  0.4404 -0.1399 -0.2840
   78MOL    H32 6346   2.318   0.837   3.515 -3.0443  0.8968  1.6977
   78MOL    H33 6347   2.471   0.910   3.489  0.0626  1.8976  0.2877
   78MOL    C34 6348   2.183   1.016   3.431  0.1714  0.5177 -0.2435
   78MOL    O35 6349   2.124   1.027   3.555  0.2105  0.6867 -0.1882
   78MOL    H36 6350   2.151   0.922   3.388 -1.0879  0.6424  0.3855
   78MOL    H37 6351   2.149   1.091   3.359 -4.1271 -0.8252  0.2290
   78MOL    C38 6352   2.125   1.150   3.620  0.3160  0.3850  0.2470
   78MOL    O39 6353   2.036   1.150   3.729 -0.2063 -0.0227  0.0356
   78MOL    H40 6354   2.074   1.211   3.545  0.2468 -0.9235 -0.7872
   78MOL    H41 6355   2.223   1.188   3.648 -0.5626  1.9931  1.2068
   78MOL    C42 6356   2.093   1.076   3.832  0.1974 -0.0555 -0.0244
   78MOL    O43 6357   1.997   1.052   3.938  0.7118  0.6480  0.7561
   78MOL    H44 6358   2.183   1.121   3.874 -0.1248  0.0881  0.5198
   78MOL    H45 6359   2.130   0.982   3.793 -1.6725 -0.1801 -1.5824
   78MOL    C46 6360   1.890   0.971   3.890 -0.0859 -0.5738 -0.3896
   78MOL    O47 6361   1.922   0.837   3.892  0.3391  0.1471 -0.5502
   78MOL    H48 6362   1.849   1.001   3.794 -2.4271 -3.3027 -0.3163
   78MOL    H49 6363   1.813   1.001   3.962  0.9517  0.2706  0.3839
   78MOL    C50 6364   1.947   0.786   4.023  0.3362 -0.1868 -0.4271
   78MOL    O51 6365   1.989   0.649   4.015  0.2090 -0.3828  0.0003
   78MOL    H52 6366   1.858   0.787   4.086  0.5838 -0.3235 -0.0705
   78MOL    H53 6367   2.029   0.847   4.061  1.3049 -1.9794  0.4544
   78MOL    C54 6368   2.089   0.630   3.922  0.8647 -0.2767 -0.2090
   78MOL    O55 6369   2.167   0.525   3.958  0.3775  0.1765  0.1859
   78MOL    H56 6370   2.155   0.716   3.911  0.7368  0.1176  1.8700
   78MOL    H57 6371   2.054   0.607   3.821  0.6804 -1.2563  0.0654
   78MOL    C58 6372   2.104   0.400   3.968  0.3362  0.5417 -0.0213
   78MOL    O59 6373   2.116   0.319   3.855  0.1205  0.3262  0.1723
   78MOL    H60 6374   1.998   0.415   3.989  0.5000  0.9236  0.5457
   78MOL    H61 6375   2.122   0.346   4.061  2.3156  0.1279 -0.6266
   78MOL    C62 6376   2.248   0.291   3.815  0.9206 -0.6094 -0.4927
   78MOL    O63 6377   2.256   0.213   3.703  0.5067  0.1035  0.3298
   78MOL    H64 6378   2.315   0.261   3.896 -0.1423 -1.4411  0.0790
   78MOL    H65 6379   2.286   0.383   3.771 -0.7794  0.0042 -0.7109
   78MOL    C66 6380   2.237   0.078   3.737  1.1374 -0.4309 -0.6643
   78MOL    O67 6381   2.346   0.022   3.803  0.2362 -0.2869 -0.2151
   78MOL    H68 6382   2.224   0.022   3.644 -1.5287  0.6716 -1.0138
   78MOL    H69 6383   2.148   0.060   3.798 -0.7438  0.3464 -3.0756
   78MOL    C70 6384   2.464   0.051   3.736 -1.1786 -0.5002 -0.5336
   78MOL    O71 6385   2.549   7.721   3.749 -0.1780 -0.5947  0.0025
   78MOL    H72 6386   2.517   0.137   3.775 -0.6932 -1.6845  1.4706
   78MOL    H73 6387   2.441   0.065   3.630 -2.1196 -0.6268 -0.3540
   78MOL    C74 6388   2.596   7.693   3.876  0.2710  0.7658 -0.3053
   78MOL    O75 6389   2.711   7.759   3.919 -0.0451 -0.0188  0.7081
   78MOL    H76 6390   2.617   7.587   3.870 -0.5963  0.3798  2.6602
   78MOL    H77 6391   2.526   7.698   3.960  1.1684  1.7842  0.4102
   78MOL    C78 6392   2.815   7.744   3.822 -0.2412  0.0114 -0.6601
   78MOL    O79 6393   2.940   0.011   3.863 -0.0029  0.0245  0.1085
   78MOL    H80 6394   2.784   0.007   3.728  0.5838 -2.1470 -2.0504
   78MOL    H81 6395   2.840   7.641   3.797 -1.3070 -0.0496 -1.5000
   78MOL    H82 6396   2.971   7.746   3.938  0.3739  0.3237  0.1528
   79MOL     C1 6397   1.846   6.661   1.440 -0.1534  0.2101 -0.8074
   79MOL     O2 6398   1.840   6.794   1.494 -0.5238  0.6341 -0.6314
   79MOL     H3 6399   1.888   6.662   1.339  2.6131  0.1384  0.2794
   79MOL     H4 6400   1.885   6.588   1.511  1.5509  0.8830 -1.0205
   79MOL     H5 6401   1.741   6.634   1.437 -0.9384  2.9732  0.2400
   79MOL     C6 6402   1.968   6.843   1.514  0.8363 -0.2488 -0.7521
   79MOL     O7 6403   2.029   6.791   1.626 -0.0488  0.5338 -0.2895
   79MOL     H8 6404   1.960   6.952   1.516  1.4621 -0.2029 -0.6947
   79MOL     H9 6405   2.019   6.827   1.419  0.9485 -0.8104 -0.5960
   79MOL    C10 6406   1.976   6.842   1.744 -0.5616  0.5112 -0.3050
   79MOL    O11 6407   2.035   6.969   1.771  0.1093  0.9791 -0.4971
   79MOL    H12 6408   1.996   6.770   1.823  0.4774  1.0442 -0.0778
   79MOL    H13 6409   1.868   6.858   1.744 -0.5990  0.2398 -1.3889
   79MOL    C14 6410   2.024   6.988   1.916 -0.3778  0.2595 -0.2493
   79MOL    O15 6411   1.895   7.011   1.956 -0.1672  0.0188  0.2509
   79MOL    H16 6412   2.089   7.073   1.936 -0.0141 -0.2136  0.5960
   79MOL    H17 6413   2.071   6.909   1.974 -2.0423 -1.5872 -1.3164
   79MOL    C18 6414   1.877   7.145   1.991  0.4156  0.1352  0.2296
   79MOL    O19 6415   1.929   7.169   2.121  0.1810 -0.1343  0.1796
   79MOL    H20 6416   1.772   7.173   1.997  0.5074  0.7381 -0.9513
   79MOL    H21 6417   1.923   7.220   1.926  1.6120  0.0029  0.9053
   79MOL    C22 6418   1.865   7.097   2.223  0.5231  0.6497 -0.0862
   79MOL    O23 6419   1.770   7.168   2.301 -0.1672  0.1225 -0.4966
   79MOL    H24 6420   1.940   7.057   2.291  0.0110  1.4131  0.9512
   79MOL    H25 6421   1.820   7.003   2.191  2.8208 -0.6555  0.4549
   79MOL    C26 6422   1.840   7.262   2.379 -0.0208  0.0744 -0.0018
   79MOL    O27 6423   1.910   7.203   2.485  0.4975  0.1188 -0.0363
   79MOL    H28 6424   1.769   7.337   2.411  1.7337  1.8795 -0.2399
   79MOL    H29 6425   1.918   7.310   2.320  0.7423 -1.2346 -0.0849
   79MOL    C30 6426   1.811   7.136   2.572 -0.0368 -0.6324 -0.2205
   79MOL    O31 6427   1.765   7.221   2.667  0.4788 -0.7800 -0.4980
   79MOL    H32 6428   1.848   7.040   2.608  1.4035 -0.2637 -0.6796
   79MOL    H33 6429   1.726   7.107   2.510  0.3091  0.9622 -1.4903
   79MOL    C34 6430   1.863   7.292   2.736  0.4570  0.2644 -0.2603
   79MOL    O35 6431   1.954   7.202   2.787  0.0026 -0.4072 -0.0792
   79MOL    H36 6432   1.840   7.364   2.815 -0.6220 -2.2577  1.7585
   79MOL    H37 6433   1.912   7.363   2.668 -0.1562  1.2453  0.3126
   79MOL    C38 6434   1.898   7.132   2.893 -0.6357  0.2903  0.6116
   79MOL    O39 6435   1.857   7.203   3.001  0.3760  0.1302  0.3266
   79MOL    H40 6436   1.965   7.051   2.923 -0.5878 -0.4207 -1.3725
   79MOL    H41 6437   1.809   7.074   2.867 -1.0042  1.2319 -0.2557
   79MOL    C42 6438   1.961   7.265   3.070 -0.1171 -0.0539 -0.1306
   79MOL    O43 6439   1.973   7.217   3.200  0.0722 -0.4111 -0.0401
   79MOL    H44 6440   1.952   7.374   3.075  1.1849 -0.0087  1.5940
   79MOL    H45 6441   2.060   7.245   3.028 -0.3117  0.3070 -0.7745
   79MOL    C46 6442   2.062   7.113   3.227  0.7544  1.0553  0.2485
   79MOL    O47 6443   2.048   6.997   3.144 -0.3323  0.5036  0.3671
   79MOL    H48 6444   2.059   7.088   3.333  0.1826  2.4893  0.5814
   79MOL    H49 6445   2.164   7.139   3.197  0.4205  0.6899 -1.2477
   79MOL    C50 6446   1.934   6.916   3.174  0.6028 -0.8473 -0.9308
   79MOL    O51 6447   1.938   6.882   3.308  0.0226 -0.1090  0.1143
   79MOL    H52 6448   1.946   6.826   3.114  2.6191 -1.1296 -0.1330
   79MOL    H53 6449   1.839   6.962   3.146  0.7399  0.1062  0.1124
   79MOL    C54 6450   2.051   6.794   3.330 -0.4372  0.1741 -0.0989
   79MOL    O55 6451   2.028   6.662   3.280 -0.4675  0.1152 -0.0051
   79MOL    H56 6452   2.053   6.798   3.439  1.1286 -0.4451 -0.0925
   79MOL    H57 6453   2.149   6.829   3.299 -1.1203 -0.0041 -2.6067
   79MOL    C58 6454   1.915   6.609   3.346  0.2043  0.5536  0.6787
   79MOL    O59 6455   1.910   6.466   3.367 -0.0951  0.1993  0.5301
   79MOL    H60 6456   1.828   6.632   3.284  1.2074  0.0438 -0.9400
   79MOL    H61 6457   1.889   6.665   3.436  1.4223  1.1317  0.6716
   79MOL    C62 6458   1.927   6.386   3.255  0.7500 -0.4732  0.3095
   79MOL    O63 6459   1.841   6.280   3.252 -0.6523 -0.0287 -0.3288
   79MOL    H64 6460   2.033   6.364   3.239  0.2698 -0.9879 -2.3678
   79MOL    H65 6461   1.915   6.461   3.177 -0.1710 -0.2499  0.6568
   79MOL    C66 6462   1.710   6.324   3.237 -0.7808  0.1514 -0.0212
   79MOL    O67 6463   1.638   6.334   3.355  0.1642  0.1297  0.6365
   79MOL    H68 6464   1.652   6.252   3.179  0.0501  0.5465 -1.3750
   79MOL    H69 6465   1.704   6.417   3.180 -1.7739  0.3176  0.3457
   79MOL    C70 6466   1.645   6.232   3.444  0.3180  0.2552  0.6206
   79MOL    O71 6467   1.583   6.253   3.568  0.1540  0.0961  0.4608
   79MOL    H72 6468   1.752   6.210   3.455  0.7301  0.8092 -1.9202
   79MOL    H73 6469   1.622   6.136   3.398  0.6512  1.8631 -3.0742
   79MOL    C74 6470   1.451   6.271   3.548 -0.1389 -0.0444 -0.4561
   79MOL    O75 6471   1.386   6.146   3.526  0.3487  0.0122  0.0039
   79MOL    H76 6472   1.430   6.343   3.468 -1.0218  0.5448  0.2955
   79MOL    H77 6473   1.411   6.324   3.634 -0.3838 -0.2281 -0.4573
   79MOL    C78 6474   1.392   6.070   3.642  0.1835 -0.2527  0.2686
   79MOL    O79 6475   1.330   5.950   3.616  0.8559 -0.2654 -0.2642
   79MOL    H80 6476   1.350   6.118   3.731  1.9754  0.1898  0.8795
   79MOL    H81 6477   1.494   6.051   3.674 -0.5009 -4.3348  0.2941
   79MOL    H82 6478   1.397   5.892   3.583  0.5896 -0.3167 -0.7194
   80MOL     C1 6479   7.544   1.174   2.984 -0.4653  0.0996 -0.0559
   80MOL     O2 6480   7.466   1.080   3.060 -0.3972 -0.6090 -0.3896
   80MOL     H3 6481   7.601   1.235   3.055 -1.4856  0.4984  0.4265
   80MOL     H4 6482   7.613   1.126   2.914 -1.6045 -0.3405 -0.8926
   80MOL     H5 6483   7.490   1.251   2.929  0.2312 -0.6307 -1.7914
   80MOL     C6 6484   7.546   0.981   3.106 -0.3359  0.4383 -0.1853
   80MOL     O7 6485   7.631   1.018   3.214  0.1091 -0.0814 -0.1033
   80MOL     H8 6486   7.607   0.944   3.023 -0.0309  1.8740 -0.6265
   80MOL     H9 6487   7.484   0.895   3.130 -0.9114  0.8413 -0.2118
   80MOL    C10 6488   7.623   0.927   3.324  0.2855 -0.1317  0.1909
   80MOL    O11 6489   7.678   0.805   3.279  0.4477 -0.4699  0.2936
   80MOL    H12 6490   7.521   0.919   3.361  0.3309 -1.3791  0.0596
   80MOL    H13 6491   7.680   0.974   3.404  1.2734 -2.4525  0.8695
   80MOL    C14 6492   0.033   0.815   3.269 -0.6473 -0.2311  0.3417
   80MOL    O15 6493   0.101   0.853   3.389 -0.4751  0.8436  0.1270
   80MOL    H16 6494   0.062   0.885   3.192  1.1015 -2.0470 -0.7025
   80MOL    H17 6495   0.062   0.716   3.232  1.9917  0.4584  0.4987
   80MOL    C18 6496   0.240   0.855   3.365 -0.8089 -0.8874 -0.2456
   80MOL    O19 6497   0.271   0.977   3.304 -0.0402 -0.3894  0.2594
   80MOL    H20 6498   0.274   0.780   3.294 -1.2634 -1.3544  0.0287
   80MOL    H21 6499   0.290   0.837   3.460  0.9520  1.5418 -0.6509
   80MOL    C22 6500   0.270   1.087   3.402 -0.3744 -1.2620  0.0679
   80MOL    O23 6501   0.374   1.071   3.499  0.4678 -0.3479 -0.5601
   80MOL    H24 6502   0.167   1.091   3.437 -0.4894  1.5170 -0.4631
   80MOL    H25 6503   0.284   1.182   3.351 -1.4391  0.4150  2.7752
   80MOL    C26 6504   0.498   1.065   3.438  0.0216 -0.5076  0.5594
   80MOL    O27 6505   0.529   1.186   3.376 -0.3049  0.0246 -0.0868
   80MOL    H28 6506   0.501   0.976   3.375 -1.5774 -2.8386  3.6153
   80MOL    H29 6507   0.571   1.037   3.513 -0.3488  1.2201  1.5816
   80MOL    C30 6508   0.556   1.287   3.471 -0.4048  0.8803 -0.2697
   80MOL    O31 6509   0.546   1.412   3.410  0.3022 -0.2059  0.2762
   80MOL    H32 6510   0.648   1.279   3.529  0.1141 -2.0915 -1.4213
   80MOL    H33 6511   0.479   1.280   3.548 -1.1850 -0.5607 -1.1481
   80MOL    C34 6512   0.673   1.449   3.361  0.4329  1.3362  0.1022
   80MOL    O35 6513   0.763   1.494   3.455  0.3929  0.1164  0.1259
   80MOL    H36 6514   0.660   1.503   3.268  0.4834  0.8614 -0.1826
   80MOL    H37 6515   0.721   1.361   3.317  1.0810  0.9428  1.5405
   80MOL    C38 6516   0.712   1.609   3.522 -0.2780  0.0916 -0.5220
   80MOL    O39 6517   0.693   1.717   3.441 -0.0473 -0.4074  0.2869
   80MOL    H40 6518   0.789   1.626   3.596  0.9190 -2.2940 -1.1559
   80MOL    H41 6519   0.616   1.583   3.567 -0.6794  3.3715  0.5761
   80MOL    C42 6520   0.807   1.782   3.389  0.2497  0.1103 -0.1197
   80MOL    O43 6521   0.768   1.876   3.293 -0.2007 -0.0188 -0.3277
   80MOL    H44 6522   0.882   1.710   3.357  0.2514 -0.4766  1.1541
   80MOL    H45 6523   0.856   1.840   3.467 -0.9417 -0.4027  1.0345
   80MOL    C46 6524   0.735   1.821   3.162  0.0954  0.1546 -0.8625
   80MOL    O47 6525   0.846   1.770   3.093 -0.2617  0.3645  0.0992
   80MOL    H48 6526   0.682   1.902   3.114 -0.3976 -0.1003 -0.7506
   80MOL    H49 6527   0.667   1.736   3.172  1.4950 -1.1757 -2.3336
   80MOL    C50 6528   0.917   1.881   3.030  0.5821  0.5394  0.4316
   80MOL    O51 6529   0.860   1.933   2.914 -0.4695 -0.0795 -0.3879
   80MOL    H52 6530   1.018   1.842   3.016  1.3582  3.7630 -3.6736
   80MOL    H53 6531   0.916   1.959   3.106 -0.9333  0.5377  0.4388
   80MOL    C54 6532   0.924   2.041   2.873 -0.4954 -0.2414  0.3719
   80MOL    O55 6533   1.056   2.015   2.835  0.0238 -0.6451 -0.2343
   80MOL    H56 6534   0.932   2.120   2.948  1.4506 -1.8320  1.8974
   80MOL    H57 6535   0.880   2.082   2.782  0.9868  2.6927  0.8880
   80MOL    C58 6536   1.063   1.943   2.712  0.3292 -0.3181 -0.2270
   80MOL    O59 6537   1.044   2.023   2.600  0.4050 -0.1194  0.1703
   80MOL    H60 6538   0.992   1.861   2.724  1.4033 -1.1473  0.5348
   80MOL    H61 6539   1.166   1.908   2.705  1.0635  1.4778  1.2057
   80MOL    C62 6540   1.144   2.118   2.582 -0.3261  0.2104  0.1985
   80MOL    O63 6541   1.249   2.077   2.489 -0.7407 -0.8747  0.2918
   80MOL    H64 6542   1.191   2.146   2.676 -0.4740 -0.4008  0.4598
   80MOL    H65 6543   1.098   2.209   2.543 -2.0457 -0.0692  1.5010
   80MOL    C66 6544   1.205   2.088   2.361 -0.0646 -0.2842 -0.3205
   80MOL    O67 6545   1.170   2.220   2.326 -0.0511  0.0275 -0.8268
   80MOL    H68 6546   1.116   2.027   2.355  0.1556 -0.5666 -0.7829
   80MOL    H69 6547   1.264   2.040   2.283  2.6188  0.2371  1.3074
   80MOL    C70 6548   1.269   2.315   2.311 -0.4959 -0.0194 -0.3826
   80MOL    O71 6549   1.353   2.282   2.202 -0.1740 -0.8672  0.0198
   80MOL    H72 6550   1.328   2.319   2.403  2.8845  2.3333 -2.5345
   80MOL    H73 6551   1.221   2.413   2.304  3.4380  2.0275 -0.2994
   80MOL    C74 6552   1.320   2.330   2.078  0.1104 -0.2009 -0.8685
   80MOL    O75 6553   1.432   2.378   2.009 -0.7094  0.6362 -0.7395
   80MOL    H76 6554   1.265   2.423   2.092  3.3494  1.4490  1.4426
   80MOL    H77 6555   1.252   2.262   2.028  0.9460 -0.5877 -1.4819
   80MOL    C78 6556   1.527   2.283   1.974 -0.3823 -0.1098  0.2063
   80MOL    O79 6557   1.622   2.343   1.885  0.3569  0.1297  0.3562
   80MOL    H80 6558   1.468   2.201   1.933 -0.3108 -0.4204  0.7216
   80MOL    H81 6559   1.575   2.271   2.071 -2.9146  4.5515  2.1741
   80MOL    H82 6560   1.596   2.314   1.799 -4.0863  0.0612  1.5957
   81MOL     C1 6561   2.624   6.378   6.566  0.5098 -0.0845 -0.1162
   81MOL     O2 6562   2.702   6.299   6.654  0.2615  0.4818  0.4733
   81MOL     H3 6563   2.608   6.346   6.463 -1.5976 -2.3742  0.8875
   81MOL     H4 6564   2.529   6.407   6.611  0.8527  1.4965 -0.3825
   81MOL     H5 6565   2.666   6.479   6.568 -1.2711  0.6982 -0.5068
   81MOL     C6 6566   2.821   6.258   6.587 -0.1343  0.7930  0.2933
   81MOL     O7 6567   2.895   6.360   6.538  0.3796  0.0424 -0.0195
   81MOL     H8 6568   2.799   6.184   6.510  0.9956  1.1733 -0.4080
   81MOL     H9 6569   2.869   6.202   6.667  1.6292  0.0665 -1.2409
   81MOL    C10 6570   2.961   6.434   6.639  0.7056 -0.2541 -0.4256
   81MOL    O11 6571   3.061   6.352   6.700 -0.3054 -0.8765  0.5386
   81MOL    H12 6572   2.889   6.461   6.716 -1.3982  0.7029 -2.6549
   81MOL    H13 6573   3.006   6.521   6.589 -1.3689  0.0266 -1.8469
   81MOL    C14 6574   3.155   6.304   6.605  0.1595 -0.0277  0.3630
   81MOL    O15 6575   3.247   6.220   6.666 -0.2118  0.0592 -0.3736
   81MOL    H16 6576   3.197   6.391   6.555 -3.8743  1.3780 -0.7736
   81MOL    H17 6577   3.103   6.242   6.532 -0.1546  2.2597 -1.3858
   81MOL    C18 6578   3.350   6.281   6.739  0.5581  0.2306  0.3872
   81MOL    O19 6579   3.435   6.370   6.671  0.3220  0.4835 -0.0625
   81MOL    H20 6580   3.412   6.203   6.782 -0.3314 -0.0512  1.1736
   81MOL    H21 6581   3.295   6.333   6.816  0.7242 -0.9064  1.2901
   81MOL    C22 6582   3.504   6.455   6.752  0.3629  0.2814  0.1530
   81MOL    O23 6583   3.420   6.554   6.806 -0.4907 -0.0824  0.0648
   81MOL    H24 6584   3.583   6.509   6.701  0.8486 -0.7524 -0.2098
   81MOL    H25 6585   3.547   6.388   6.827 -4.3758 -0.7958  2.1007
   81MOL    C26 6586   3.381   6.648   6.716  0.2449  0.2666 -0.3941
   81MOL    O27 6587   3.299   6.596   6.617 -0.3545  0.2410  0.6651
   81MOL    H28 6588   3.458   6.715   6.679 -0.6270  1.4417 -0.1057
   81MOL    H29 6589   3.312   6.703   6.779 -0.7437 -0.4948 -0.7951
   81MOL    C30 6590   3.218   6.692   6.555  0.3651  0.2479  0.0506
   81MOL    O31 6591   3.293   6.808   6.510 -0.6248  0.0986 -0.0956
   81MOL    H32 6592   3.150   6.748   6.619  0.1338 -0.6059  0.5545
   81MOL    H33 6593   3.154   6.647   6.480  0.9148  0.8539 -0.7853
   81MOL    C34 6594   3.368   6.781   6.396 -0.3169 -0.1752  0.4533
   81MOL    O35 6595   3.475   6.703   6.434 -0.1396  0.2062 -0.6792
   81MOL    H36 6596   3.401   6.878   6.359  2.2885 -0.5554  1.6895
   81MOL    H37 6597   3.312   6.740   6.312 -2.3624 -2.0199  2.6453
   81MOL    C38 6598   3.558   6.663   6.326 -0.6816  0.4779 -0.0788
   81MOL    O39 6599   3.498   6.564   6.248 -0.4764 -0.4086  0.8498
   81MOL    H40 6600   3.657   6.629   6.359 -0.9773  1.9695  2.5040
   81MOL    H41 6601   3.585   6.751   6.268  1.1578 -0.2227 -0.3283
   81MOL    C42 6602   3.451   6.464   6.330 -0.0679  0.6350  0.0602
   81MOL    O43 6603   3.395   6.357   6.261  0.0388 -0.1511 -0.5063
   81MOL    H44 6604   3.378   6.489   6.407 -0.9432 -0.0549 -0.5339
   81MOL    H45 6605   3.527   6.417   6.393 -2.1222 -0.3238  1.9118
   81MOL    C46 6606   3.281   6.390   6.182 -0.1813  0.0633  0.4135
   81MOL    O47 6607   3.168   6.368   6.240 -0.0352  0.4121 -0.0035
   81MOL    H48 6608   3.303   6.325   6.097 -1.4877 -1.2559  1.0602
   81MOL    H49 6609   3.290   6.495   6.153 -1.9016 -0.0312 -0.5084
   81MOL    C50 6610   3.121   6.234   6.244  0.1340  0.3765 -1.0465
   81MOL    O51 6611   3.121   6.184   6.113 -0.2627 -0.1642  0.1286
   81MOL    H52 6612   3.022   6.248   6.285  0.8654  0.5016  0.6985
   81MOL    H53 6613   3.182   6.180   6.317 -0.9664  0.7053  0.1216
   81MOL    C54 6614   3.010   6.228   6.039  0.0792  0.1969 -0.1233
   81MOL    O55 6615   2.887   6.181   6.086 -0.7059 -0.3661 -0.7190
   81MOL    H56 6616   3.037   6.192   5.940  1.9114 -0.4916  0.5909
   81MOL    H57 6617   2.996   6.336   6.030 -2.5341 -0.3321 -3.1055
   81MOL    C58 6618   2.885   6.045   6.090  0.2455  0.0167 -0.0468
   81MOL    O59 6619   2.845   5.986   5.966 -0.8423 -0.2804 -0.0670
   81MOL    H60 6620   2.810   6.026   6.166 -0.1157 -2.5262 -0.9805
   81MOL    H61 6621   2.967   5.997   6.143 -0.7044 -1.6236 -0.0174
   81MOL    C62 6622   2.806   5.856   5.989  0.1416  0.6265 -0.4792
   81MOL    O63 6623   2.909   5.775   6.048 -0.6294  0.2847  0.2143
   81MOL    H64 6624   2.768   5.825   5.892 -1.3099 -0.9160  0.5453
   81MOL    H65 6625   2.726   5.846   6.062  0.6132 -0.4836 -0.1003
   81MOL    C66 6626   3.008   5.735   5.954 -0.0418  0.4435 -0.7372
   81MOL    O67 6627   2.968   5.670   5.842 -0.0571 -0.2951  0.0485
   81MOL    H68 6628   3.081   5.686   6.019  0.0741 -0.2785 -1.4168
   81MOL    H69 6629   3.051   5.830   5.921  1.1850  0.4484  0.8235
   81MOL    C70 6630   2.920   5.539   5.873  0.3746 -0.3406 -0.3700
   81MOL    O71 6631   3.005   5.465   5.952 -0.0491  0.0646 -0.1354
   81MOL    H72 6632   2.887   5.499   5.777 -0.2460  1.2749 -0.8550
   81MOL    H73 6633   2.833   5.558   5.935 -1.1842  0.7094 -2.8170
   81MOL    C74 6634   3.090   5.392   5.881 -0.1153 -0.3883  0.1777
   81MOL    O75 6635   3.033   5.291   5.800  0.0527 -0.2655  0.0777
   81MOL    H76 6636   3.164   5.343   5.944 -0.1232  1.3351  1.5640
   81MOL    H77 6637   3.146   5.453   5.811 -1.0134 -0.2615 -0.4399
   81MOL    C78 6638   2.953   5.207   5.878  0.3555 -0.4727 -0.1986
   81MOL    O79 6639   2.922   5.093   5.799 -0.0684  0.1101  0.0595
   81MOL    H80 6640   2.864   5.258   5.912  0.2202 -1.0108  0.2680
   81MOL    H81 6641   3.003   5.166   5.966  2.4572  0.4918 -0.8898
   81MOL    H82 6642   2.986   5.085   5.730  0.8404  1.3345  0.7416
   82MOL     C1 6643   7.216   2.796   0.955 -0.5474  0.0154 -0.0365
   82MOL     O2 6644   7.349   2.737   0.937  0.2093 -0.7414  0.1001
   82MOL     H3 6645   7.145   2.785   0.873 -1.0847  0.7781  0.3264
   82MOL     H4 6646   7.165   2.747   1.037  0.3568  0.5689  0.8773
   82MOL     H5 6647   7.230   2.901   0.982  0.5223  0.2339 -1.3480
   82MOL     C6 6648   7.428   2.777   1.044 -0.1497  0.6622  0.3859
   82MOL     O7 6649   7.367   2.757   1.166  0.7758  0.0331 -0.2798
   82MOL     H8 6650   7.464   2.879   1.032  1.3050  0.1373  0.1833
   82MOL     H9 6651   7.516   2.713   1.031 -0.4408  0.8228 -2.5810
   82MOL    C10 6652   7.448   2.715   1.267 -0.6533  0.0589 -0.1678
   82MOL    O11 6653   7.551   2.802   1.303  0.4536 -0.5751  0.0115
   82MOL    H12 6654   7.487   2.619   1.235 -0.2979  0.3289 -0.5539
   82MOL    H13 6655   7.375   2.694   1.346  0.6370 -2.2110  0.4611
   82MOL    C14 6656   7.614   2.767   1.423  0.3594  0.1793  0.0029
   82MOL    O15 6657   7.535   2.799   1.532 -0.3700 -0.1993 -0.9199
   82MOL    H16 6658   7.699   2.832   1.443  0.1892  0.6955 -0.9262
   82MOL    H17 6659   7.644   2.663   1.435  1.2512  0.4553  0.1478
   82MOL    C18 6660   7.596   2.752   1.657  0.8236 -0.3957 -1.0983
   82MOL    O19 6661   7.597   2.615   1.663  0.0202 -0.0027  0.5002
   82MOL    H20 6662   7.533   2.785   1.740 -1.0315  0.7093 -2.8823
   82MOL    H21 6663   7.689   2.808   1.672 -0.5083  1.7443 -0.6239
   82MOL    C22 6664   7.704   2.561   1.729  0.2134  0.5404  0.0407
   82MOL    O23 6665   7.723   2.605   1.858 -0.5299 -0.2694 -0.1100
   82MOL    H24 6666   0.004   2.578   1.661 -1.2222 -3.3044 -2.8960
   82MOL    H25 6667   7.681   2.454   1.723 -2.5151  1.1475 -1.2853
   82MOL    C26 6668   7.614   2.571   1.950  0.1193 -0.4034 -0.1957
   82MOL    O27 6669   7.632   2.450   1.999 -0.0540 -0.2858 -0.1418
   82MOL    H28 6670   7.519   2.577   1.896 -0.1127  0.1786  0.2655
   82MOL    H29 6671   7.599   2.631   2.040 -2.4964 -1.5374  0.1605
   82MOL    C30 6672   7.747   2.439   2.078  0.2729  0.4073 -0.5358
   82MOL    O31 6673   7.719   2.460   2.218 -0.0665  0.1204 -0.4008
   82MOL    H32 6674   0.048   2.500   2.047  0.0550  1.6743  1.2618
   82MOL    H33 6675   0.005   2.339   2.088 -1.1484 -0.1465 -0.0142
   82MOL    C34 6676   7.604   2.398   2.260 -0.1879 -0.4672 -0.0760
   82MOL    O35 6677   7.499   2.487   2.257  0.1139 -0.1318 -0.3795
   82MOL    H36 6678   7.620   2.369   2.364 -3.0505 -0.5190  0.3925
   82MOL    H37 6679   7.562   2.306   2.218  0.2857 -1.0714  0.7397
   82MOL    C38 6680   7.518   2.592   2.346 -0.1216 -0.8061 -0.3092
   82MOL    O39 6681   7.470   2.568   2.471 -0.6348  0.1928  0.2389
   82MOL    H40 6682   7.457   2.671   2.302  1.6366  1.4827  1.2497
   82MOL    H41 6683   7.622   2.620   2.362 -0.2540 -0.0073 -0.8400
   82MOL    C42 6684   7.441   2.679   2.548 -0.2757 -0.4287  1.1243
   82MOL    O43 6685   7.316   2.717   2.504 -0.1603  0.3593 -0.5465
   82MOL    H44 6686   7.518   2.757   2.539  0.5509 -1.2772  0.7115
   82MOL    H45 6687   7.428   2.641   2.649  1.3691 -4.6577 -0.1511
   82MOL    C46 6688   7.254   2.813   2.576 -0.1390 -0.3556  0.7389
   82MOL    O47 6689   7.339   2.925   2.597 -0.0359 -0.2233 -0.3797
   82MOL    H48 6690   7.241   2.780   2.678 -3.3830 -0.5012  0.3522
   82MOL    H49 6691   7.154   2.827   2.533 -0.3087  0.5809  1.4235
   82MOL    C50 6692   7.349   3.002   2.481 -0.0278 -0.5234 -0.7012
   82MOL    O51 6693   7.236   3.077   2.454  0.3295  0.4389 -0.0948
   82MOL    H52 6694   7.368   2.933   2.399  0.9539 -1.0567 -0.0339
   82MOL    H53 6695   7.432   3.072   2.478 -0.3242 -0.2097 -3.2595
   82MOL    C54 6696   7.228   3.196   2.531 -0.7484  0.8175  0.3573
   82MOL    O55 6697   7.170   3.180   2.654 -0.2102  0.7455  0.3025
   82MOL    H56 6698   7.167   3.277   2.491  0.1894  1.5785  0.4456
   82MOL    H57 6699   7.326   3.239   2.549 -0.0755 -0.6195  0.1395
   82MOL    C58 6700   7.037   3.154   2.671  0.5127  0.0048  0.4704
   82MOL    O59 6701   6.997   3.137   2.801  0.4723 -0.0254 -0.3100
   82MOL    H60 6702   7.002   3.071   2.610  1.6762  0.5448 -0.9652
   82MOL    H61 6703   6.970   3.236   2.645 -0.4607 -0.7725  0.5026
   82MOL    C62 6704   7.037   3.011   2.856 -0.0750 -0.1969  0.1832
   82MOL    O63 6705   6.972   2.905   2.805  0.1002  0.1666 -0.1592
   82MOL    H64 6706   7.031   2.997   2.963  0.0952 -0.2981  0.1799
   82MOL    H65 6707   7.145   3.005   2.839  0.1991  1.1252  1.3388
   82MOL    C66 6708   6.836   2.896   2.852  0.2153  0.3538  0.4691
   82MOL    O67 6709   6.823   2.857   2.987 -0.0506  0.0046 -0.1574
   82MOL    H68 6710   6.802   2.823   2.779 -0.5214  1.4298 -0.2920
   82MOL    H69 6711   6.776   2.984   2.827  0.5895  0.8056  1.1359
   82MOL    C70 6712   6.693   2.835   3.030  0.3334  0.4269 -0.8756
   82MOL    O71 6713   6.630   2.721   2.975  0.1173  0.0492  0.4404
   82MOL    H72 6714   6.634   2.925   3.014 -0.3563  0.5832  2.2750
   82MOL    H73 6715   6.693   2.824   3.138 -1.3104  1.3415 -0.7606
   82MOL    C74 6716   6.688   2.601   3.013 -0.6003  0.4355  0.5806
   82MOL    O75 6717   6.672   2.588   3.147  0.4114 -0.3689 -0.0058
   82MOL    H76 6718   6.788   2.602   2.969 -0.9283 -1.8991 -0.3095
   82MOL    H77 6719   6.630   2.528   2.956 -2.8449  2.1613  0.5999
   82MOL    C78 6720   6.533   2.581   3.175  0.8833 -0.5621  0.9272
   82MOL    O79 6721   6.511   2.614   3.307  0.1452 -0.1758  0.2147
   82MOL    H80 6722   6.490   2.481   3.172  1.1722 -0.6572 -0.4932
   82MOL    H81 6723   6.476   2.658   3.122 -0.3357 -0.5209  2.2687
   82MOL    H82 6724   6.489   2.531   3.346  1.6050 -0.1136  1.2305
   83MOL     C1 6725   4.494   4.742   6.557  0.0023 -0.8007  0.3011
   83MOL     O2 6726   4.450   4.873   6.540 -0.0635 -0.2576 -0.2891
   83MOL     H3 6727   4.474   4.696   6.654 -1.6932  0.7575  0.7222
   83MOL     H4 6728   4.426   4.685   6.494 -1.5251  1.1002  0.1714
   83MOL     H5 6729   4.596   4.730   6.522  0.0136 -1.4740  0.5564
   83MOL     C6 6730   4.325   4.894   6.609  0.2087  0.9114 -0.3910
   83MOL     O7 6731   4.233   4.790   6.579  0.0632  0.3188  0.5371
   83MOL     H8 6732   4.296   4.995   6.582  2.7681  1.8715  0.2935
   83MOL     H9 6733   4.341   4.882   6.716  0.1312 -1.3124 -0.6063
   83MOL    C10 6734   4.110   4.813   6.635 -0.3831  0.0848 -0.0703
   83MOL    O11 6735   4.124   4.765   6.766  0.3258  0.0771 -0.4649
   83MOL    H12 6736   4.035   4.746   6.593 -1.0151 -0.2696  1.6043
   83MOL    H13 6737   4.093   4.921   6.629  1.2912  0.3552 -0.0540
   83MOL    C14 6738   4.031   4.823   6.852  0.0082  0.8557  0.7623
   83MOL    O15 6739   4.056   4.961   6.871 -0.0677 -0.5259 -0.2669
   83MOL    H16 6740   4.017   4.758   6.939  0.0563  1.2004  1.0276
   83MOL    H17 6741   3.934   4.821   6.803  0.6422  3.7727 -0.6728
   83MOL    C18 6742   4.106   4.993   6.996 -0.2501  0.4844 -0.1895
   83MOL    O19 6743   4.003   4.984   7.094  0.0599  0.3650  0.0667
   83MOL    H20 6744   4.148   5.094   7.001  0.7601  0.0962 -0.7261
   83MOL    H21 6745   4.190   4.926   7.014 -0.9060 -0.7008 -1.5384
   83MOL    C22 6746   3.900   5.073   7.069 -0.1845 -0.5377 -0.1187
   83MOL    O23 6747   3.935   5.208   7.089 -0.5391 -0.3600  0.1111
   83MOL    H24 6748   3.807   5.059   7.124  0.5358  2.5050  1.9988
   83MOL    H25 6749   3.868   5.081   6.964 -0.2949 -1.4636 -0.1530
   83MOL    C26 6750   3.967   5.231   7.219  0.2066 -0.3104 -0.1152
   83MOL    O27 6751   3.945   5.364   7.241  0.5640 -0.1001  0.3908
   83MOL    H28 6752   4.060   5.188   7.256 -0.1313 -2.2944 -1.4975
   83MOL    H29 6753   3.891   5.183   7.280  1.4880 -1.2648  0.7433
   83MOL    C30 6754   4.069   5.434   7.223  0.8410  0.5792  0.0778
   83MOL    O31 6755   4.074   5.555   7.287  0.4555  0.0089  0.5170
   83MOL    H32 6756   4.096   5.443   7.118  0.2736  1.6287  0.0118
   83MOL    H33 6757   4.151   5.377   7.268  0.9834 -0.4253 -1.4265
   83MOL    C34 6758   3.994   5.648   7.223  0.3461 -0.2038 -0.0264
   83MOL    O35 6759   4.021   5.772   7.274  0.7757 -0.2122 -0.1083
   83MOL    H36 6760   3.887   5.628   7.237 -0.0299  2.2235  0.7012
   83MOL    H37 6761   4.012   5.645   7.116 -1.0583  0.1483 -0.2834
   83MOL    C38 6762   4.015   5.884   7.190  0.8165 -0.2866 -0.0676
   83MOL    O39 6763   3.877   5.922   7.159 -0.0085  0.7274 -0.1435
   83MOL    H40 6764   4.068   5.870   7.097  0.5767 -0.6276 -0.1531
   83MOL    H41 6765   4.066   5.960   7.249  0.7172 -1.5913  1.7391
   83MOL    C42 6766   3.878   6.021   7.068  0.3844 -0.3207  1.5271
   83MOL    O43 6767   3.938   6.128   7.137 -0.1218  0.7927 -0.7641
   83MOL    H44 6768   3.776   6.046   7.037  0.9037  1.6799  1.3296
   83MOL    H45 6769   3.942   6.001   6.982 -0.1536  0.5934  0.9061
   83MOL    C46 6770   3.843   6.196   7.212  0.4642  0.5686 -0.5816
   83MOL    O47 6771   3.774   6.289   7.140  0.1222 -0.3639  0.3927
   83MOL    H48 6772   3.910   6.241   7.285 -1.0037  1.5865  0.1534
   83MOL    H49 6773   3.780   6.121   7.259 -1.3248  1.4445 -1.5488
   83MOL    C50 6774   3.685   6.363   7.214  0.0949  0.9226 -0.4257
   83MOL    O51 6775   3.559   6.298   7.234 -0.3225 -0.2987 -0.4151
   83MOL    H52 6776   3.663   6.447   7.148 -3.2250  0.4343 -0.0450
   83MOL    H53 6777   3.735   6.399   7.304 -1.7903  1.8622  0.2848
   83MOL    C54 6778   3.483   6.286   7.116 -0.4314 -0.2922 -0.4609
   83MOL    O55 6779   3.433   6.409   7.070 -0.4383  0.2012 -0.2128
   83MOL    H56 6780   3.396   6.224   7.137 -0.0325 -0.9312 -0.6894
   83MOL    H57 6781   3.545   6.229   7.048  0.0015 -1.9751  1.3016
   83MOL    C58 6782   3.335   6.461   7.150 -0.4611 -0.0305  0.0289
   83MOL    O59 6783   3.208   6.412   7.120  0.0608 -0.1086  0.0277
   83MOL    H60 6784   3.333   6.569   7.137 -0.4036  0.0166  0.4128
   83MOL    H61 6785   3.354   6.435   7.254 -0.3805 -0.1688 -0.0210
   83MOL    C62 6786   3.144   6.475   7.013 -0.4777 -0.3956  0.0877
   83MOL    O63 6787   3.059   6.577   7.055  0.5098  0.2947 -0.3309
   83MOL    H64 6788   3.082   6.402   6.961 -0.8340 -0.2293  0.2768
   83MOL    H65 6789   3.213   6.511   6.937  0.3886 -0.1667  0.9801
   83MOL    C66 6790   2.975   6.617   6.951 -0.8263 -0.6266  0.7851
   83MOL    O67 6791   2.869   6.532   6.935 -0.0511  0.0126  0.0068
   83MOL    H68 6792   3.029   6.623   6.857  1.3121  0.1979  2.0277
   83MOL    H69 6793   2.918   6.707   6.975 -1.7577 -0.3505 -2.3444
   83MOL    C70 6794   2.781   6.533   7.041 -0.0953  0.5931 -0.2253
   83MOL    O71 6795   2.716   6.408   7.038 -0.2270  0.4433 -0.6568
   83MOL    H72 6796   2.700   6.605   7.031 -0.7081 -0.1179 -0.3583
   83MOL    H73 6797   2.837   6.545   7.134  0.0252 -1.1810 -0.0556
   83MOL    C74 6798   2.617   6.399   6.930 -0.6555  0.4925 -0.6306
   83MOL    O75 6799   2.509   6.489   6.946 -0.1577 -0.0316 -0.0325
   83MOL    H76 6800   2.585   6.297   6.908  2.8840 -0.1571 -3.2361
   83MOL    H77 6801   2.662   6.437   6.838  0.3507  1.9111  0.4297
   83MOL    C78 6802   2.434   6.461   7.066 -0.7507  0.2881  0.1385
   83MOL    O79 6803   2.322   6.543   7.077  0.0518  0.3382 -0.3961
   83MOL    H80 6804   2.508   6.479   7.145  1.3041 -1.9783 -1.2014
   83MOL    H81 6805   2.408   6.356   7.056 -1.0242  0.1246  2.2829
   83MOL    H82 6806   2.263   6.524   7.006 -0.0075  0.1711 -0.3029
   84MOL     C1 6807   0.063   1.564   2.229 -0.4302 -0.2166 -0.4473
   84MOL     O2 6808   0.044   1.421   2.216  0.2277 -0.0183  0.0514
   84MOL     H3 6809   0.163   1.585   2.192  0.8179 -0.9951  2.4006
   84MOL     H4 6810   7.772   1.623   2.176 -0.1088 -0.2625 -0.9515
   84MOL     H5 6811   0.063   1.601   2.331 -1.1373  2.6597 -1.4326
   84MOL     C6 6812   7.702   1.373   2.248  0.4147  0.1644  0.5405
   84MOL     O7 6813   7.599   1.435   2.186 -0.2352 -0.6082  0.1810
   84MOL     H8 6814   7.686   1.388   2.355  1.5117 -2.3326  1.0794
   84MOL     H9 6815   7.696   1.267   2.226  0.5418  0.2439  0.1111
   84MOL    C10 6816   7.604   1.422   2.045  0.1157  0.3937 -0.6921
   84MOL    O11 6817   7.478   1.443   1.990 -0.3922 -0.3126 -0.0174
   84MOL    H12 6818   7.622   1.315   2.033 -2.5922  0.0813 -2.2073
   84MOL    H13 6819   7.684   1.482   2.001  1.4613 -0.3804  0.6232
   84MOL    C14 6820   7.444   1.574   1.969  0.1801 -0.0246 -0.7808
   84MOL    O15 6821   7.486   1.607   1.844 -0.5111 -0.6241  0.3685
   84MOL    H16 6822   7.474   1.635   2.054  0.1661 -0.4581 -0.4594
   84MOL    H17 6823   7.335   1.585   1.965 -0.1666 -1.3163  2.8569
   84MOL    C18 6824   7.411   1.554   1.741 -0.4139 -0.4442 -0.2613
   84MOL    O19 6825   7.476   1.576   1.618 -0.4048  0.1926  0.2940
   84MOL    H20 6826   7.308   1.590   1.737 -0.2708 -0.2600 -3.2505
   84MOL    H21 6827   7.408   1.446   1.751 -0.3271 -0.2421  2.1336
   84MOL    C22 6828   7.471   1.709   1.576  1.3237 -0.0142  1.1280
   84MOL    O23 6829   7.344   1.735   1.517  0.4897  0.1886  0.4790
   84MOL    H24 6830   7.550   1.733   1.504  1.4018 -0.0593  1.1987
   84MOL    H25 6831   7.481   1.780   1.658  0.4868  1.0629  0.3211
   84MOL    C26 6832   7.329   1.676   1.385  0.2508 -0.4670 -0.2036
   84MOL    O27 6833   7.400   1.751   1.296 -0.3541  0.2172  0.4492
   84MOL    H28 6834   7.223   1.679   1.360  0.2492  1.1519 -0.0238
   84MOL    H29 6835   7.352   1.569   1.380  0.8227 -0.3490 -0.1746
   84MOL    C30 6836   7.342   1.869   1.251 -0.0183 -0.4878  0.7039
   84MOL    O31 6837   7.238   1.831   1.165  0.5635 -0.6680  0.4300
   84MOL    H32 6838   7.422   1.928   1.206  0.2795 -1.6015 -0.2283
   84MOL    H33 6839   7.289   1.936   1.319  0.7807  0.7255  0.1609
   84MOL    C34 6840   7.288   1.805   1.035 -0.0466  0.3303  0.1081
   84MOL    O35 6841   7.341   1.916   0.978  0.1398 -0.2216 -0.2985
   84MOL    H36 6842   7.208   1.767   0.971 -1.2994  2.2519  0.4946
   84MOL    H37 6843   7.359   1.723   1.045 -1.1435 -0.3685  2.5563
   84MOL    C38 6844   7.260   2.023   0.953 -0.1118  0.5297  0.8069
   84MOL    O39 6845   7.178   2.011   0.840 -0.3079 -0.1355  0.3795
   84MOL    H40 6846   7.317   2.116   0.949  0.0940  0.3494 -0.7113
   84MOL    H41 6847   7.183   2.021   1.030 -1.9138  0.5518 -0.9591
   84MOL    C42 6848   7.257   2.007   0.725 -0.5028  0.0636  0.1373
   84MOL    O43 6849   7.344   2.117   0.718  0.1571  0.1591  0.3153
   84MOL    H44 6850   7.186   1.994   0.643 -0.1607 -0.8423 -0.0246
   84MOL    H45 6851   7.328   1.925   0.735 -0.2852  0.5164  2.8311
   84MOL    C46 6852   7.392   2.143   0.585 -0.5730 -0.0787 -0.3075
   84MOL    O47 6853   7.286   2.175   0.490  0.1399  0.1345 -0.0172
   84MOL    H48 6854   7.452   2.065   0.538  1.1370  1.3351 -0.5422
   84MOL    H49 6855   7.458   2.229   0.592 -1.3628  0.7879 -2.9060
   84MOL    C50 6856   7.199   2.271   0.527  0.3690  0.3041 -0.2232
   84MOL    O51 6857   7.259   2.399   0.531  0.1095 -0.3683 -0.5464
   84MOL    H52 6858   7.165   2.246   0.627  0.4563  0.8601 -0.0514
   84MOL    H53 6859   7.108   2.259   0.467 -1.0052  0.0725  1.8602
   84MOL    C54 6860   7.300   2.446   0.409  0.4630 -0.2095 -0.6505
   84MOL    O55 6861   7.191   2.472   0.327 -0.4314 -0.6755  0.2978
   84MOL    H56 6862   7.368   2.371   0.370  2.4867  0.6331  1.1551
   84MOL    H57 6863   7.359   2.533   0.437  1.4703 -0.9581 -0.4197
   84MOL    C58 6864   7.228   2.498   0.192 -0.0622  0.4261 -0.9500
   84MOL    O59 6865   7.119   2.560   0.125 -0.1270  0.1298 -0.1923
   84MOL    H60 6866   7.225   2.394   0.158 -1.2636 -0.1859  0.9443
   84MOL    H61 6867   7.320   2.557   0.187 -0.3698  0.8939 -1.0917
   84MOL    C62 6868   7.123   2.698   0.134  0.5837  0.0330 -0.3069
   84MOL    O63 6869   7.235   2.757   0.089  0.0640  0.1376  0.3662
   84MOL    H64 6870   7.109   2.726   0.238  0.9957 -0.2478 -0.1754
   84MOL    H65 6871   7.042   2.737   0.072  0.1373 -0.1362  0.1638
   84MOL    C66 6872   7.240   2.757   7.733  0.0096 -0.8048  0.8392
   84MOL    O67 6873   7.156   2.859   7.682  0.2292  0.0122  0.9394
   84MOL    H68 6874   7.212   2.662   7.689  0.0915  0.1703 -1.4044
   84MOL    H69 6875   7.340   2.774   7.693 -0.5180  1.9530  0.5958
   84MOL    C70 6876   7.207   2.987   7.678 -0.0623  0.2826  1.0749
   84MOL    O71 6877   7.310   2.990   7.583  0.0471 -0.2516 -0.8103
   84MOL    H72 6878   7.251   3.001   7.777  0.4949  1.4897  0.6697
   84MOL    H73 6879   7.128   3.058   7.657 -0.7019 -1.4260 -2.7894
   84MOL    C74 6880   7.267   3.042   7.456 -0.4848 -0.0306 -0.7988
   84MOL    O75 6881   7.173   2.955   7.400 -0.1131  0.4431  0.1593
   84MOL    H76 6882   7.356   3.041   7.394 -0.7629  0.3249 -1.2110
   84MOL    H77 6883   7.230   3.144   7.468  0.6838  0.2413  0.6604
   84MOL    C78 6884   7.223   2.834   7.369  0.1055  0.4672  0.7267
   84MOL    O79 6885   7.120   2.756   7.307 -0.3968  0.1888 -0.4268
   84MOL    H80 6886   7.252   2.781   7.460 -0.5135 -1.0293  0.0721
   84MOL    H81 6887   7.310   2.834   7.303  0.5033 -0.2780  1.2371
   84MOL    H82 6888   7.057   2.746   7.377  0.9299 -1.9353  0.5043
   85MOL     C1 6889   6.410   1.755   2.697 -0.0954 -0.3710  0.1584
   85MOL     O2 6890   6.328   1.816   2.802  0.2145  0.3232  0.4154
   85MOL     H3 6891   6.451   1.837   2.637  1.6343 -2.8941 -2.1939
   85MOL     H4 6892   6.484   1.690   2.744  0.0582  0.0116  0.4571
   85MOL     H5 6893   6.359   1.696   2.621 -1.9261  1.1655  0.1478
   85MOL     C6 6894   6.264   1.732   2.893  0.0043  0.2690  0.0604
   85MOL     O7 6895   6.349   1.649   2.963  0.2045  0.1514  0.6282
   85MOL     H8 6896   6.204   1.656   2.842  2.8025 -2.1828  0.3041
   85MOL     H9 6897   6.191   1.788   2.952 -0.5820 -0.1211 -0.2921
   85MOL    C10 6898   6.420   1.713   3.068 -0.6688  0.2895  1.0546
   85MOL    O11 6899   6.511   1.610   3.117 -0.3890  0.0156  0.6344
   85MOL    H12 6900   6.347   1.743   3.143  0.6357 -1.2481  3.0108
   85MOL    H13 6901   6.470   1.805   3.036 -0.1171 -0.6020 -0.6993
   85MOL    C14 6902   6.623   1.615   3.033  0.1005 -0.0628 -0.0957
   85MOL    O15 6903   6.698   1.729   3.054  0.5185 -0.1482 -0.0906
   85MOL    H16 6904   6.599   1.604   2.927 -2.1102 -0.7571  0.4572
   85MOL    H17 6905   6.671   1.523   3.067 -1.1369 -0.1853  1.3529
   85MOL    C18 6906   6.820   1.731   2.979  0.2740 -0.1662  0.6811
   85MOL    O19 6907   6.927   1.695   3.057  0.3980  0.0847 -0.1299
   85MOL    H20 6908   6.828   1.836   2.950  0.4542 -0.5243 -0.6087
   85MOL    H21 6909   6.812   1.668   2.891 -1.7084  1.2049 -0.1767
   85MOL    C22 6910   7.048   1.712   2.997  0.4548 -0.0029  0.1365
   85MOL    O23 6911   7.077   1.846   2.968 -0.2355  0.6275 -0.2236
   85MOL    H24 6912   7.055   1.644   2.912 -1.6040  1.3605 -1.1749
   85MOL    H25 6913   7.126   1.675   3.063  2.1946  3.2154 -0.0091
   85MOL    C26 6914   7.095   1.927   3.082  0.3544 -0.0560  0.2647
   85MOL    O27 6915   7.212   1.906   3.154  0.1402 -0.1503  0.2106
   85MOL    H28 6916   7.012   1.905   3.149  0.3930 -1.6463 -0.1856
   85MOL    H29 6917   7.090   2.029   3.045  0.3822  0.3197  1.2581
   85MOL    C30 6918   7.332   1.942   3.085  0.0508  0.2880  0.5316
   85MOL    O31 6919   7.325   2.082   3.076  0.0996 -0.1178 -0.0353
   85MOL    H32 6920   7.329   1.903   2.983 -0.9615  0.4487  0.4910
   85MOL    H33 6921   7.424   1.910   3.134  1.2438  0.5126 -1.5085
   85MOL    C34 6922   7.365   2.151   3.190 -0.0068 -0.4007 -0.0711
   85MOL    O35 6923   7.333   2.286   3.185 -0.2766  0.1615  0.3950
   85MOL    H36 6924   7.473   2.148   3.202  0.1587  0.8926 -1.0585
   85MOL    H37 6925   7.302   2.125   3.275 -0.8793  0.9747 -0.2870
   85MOL    C38 6926   7.193   2.311   3.195 -0.9881 -0.6218 -0.6557
   85MOL    O39 6927   7.140   2.311   3.320 -0.0247  0.3890  0.5564
   85MOL    H40 6928   7.143   2.237   3.132 -1.3926 -2.1268  1.3861
   85MOL    H41 6929   7.176   2.407   3.145 -0.1256 -0.6876 -1.0793
   85MOL    C42 6930   7.003   2.321   3.320  0.0538  0.3166 -0.3230
   85MOL    O43 6931   6.946   2.196   3.293  0.1265  0.2034 -0.4122
   85MOL    H44 6932   6.975   2.399   3.249  0.6359 -0.2662 -1.1916
   85MOL    H45 6933   6.975   2.357   3.419  0.2726 -0.6014  0.0707
   85MOL    C46 6934   6.944   2.109   3.398  0.6947  0.2997 -0.4496
   85MOL    O47 6935   6.872   2.151   3.508 -0.4564 -0.0538 -0.1044
   85MOL    H48 6936   7.047   2.084   3.422  0.2817 -0.0908  0.9716
   85MOL    H49 6937   6.892   2.017   3.370 -1.2300  1.6585 -1.4728
   85MOL    C50 6938   6.729   2.134   3.495 -0.3462 -0.2437  0.1375
   85MOL    O51 6939   6.659   2.211   3.588  0.0416 -0.4619  0.1947
   85MOL    H52 6940   6.702   2.036   3.534  0.5344 -0.5944 -0.1149
   85MOL    H53 6941   6.676   2.139   3.400  0.1393  0.2141 -0.1131
   85MOL    C54 6942   6.650   2.347   3.562 -0.7064 -0.7728  0.4097
   85MOL    O55 6943   6.566   2.366   3.455  0.2151 -0.1139  0.1153
   85MOL    H56 6944   6.750   2.386   3.543 -0.3857 -1.9905 -0.4785
   85MOL    H57 6945   6.627   2.395   3.657  3.0569 -0.5223  1.2468
   85MOL    C58 6946   6.439   2.314   3.473  1.0029  0.2360 -0.0797
   85MOL    O59 6947   6.346   2.339   3.374  0.3363  0.0432 -0.0768
   85MOL    H60 6948   6.399   2.346   3.569  0.0204  0.1486 -0.4471
   85MOL    H61 6949   6.438   2.207   3.495 -0.0749 -0.2349 -2.2107
   85MOL    C62 6950   6.256   2.438   3.413  0.2536  0.0858  0.0869
   85MOL    O63 6951   6.153   2.400   3.503 -1.0688  0.0727  0.5583
   85MOL    H64 6952   6.220   2.479   3.318 -1.3072 -0.8371  0.2667
   85MOL    H65 6953   6.298   2.533   3.449  0.5629 -0.2943  0.7359
   85MOL    C66 6954   6.069   2.299   3.463 -0.4845  0.2728 -0.2588
   85MOL    O67 6955   6.006   2.339   3.346  0.3206 -0.1540  0.2000
   85MOL    H68 6956   6.010   2.280   3.552  1.0009  3.2192  1.4307
   85MOL    H69 6957   6.134   2.214   3.441  0.2169  1.1918 -1.8658
   85MOL    C70 6958   5.897   2.420   3.379 -0.1665  0.2023 -0.4363
   85MOL    O71 6959   5.792   2.342   3.427  0.2532  0.1806  0.2677
   85MOL    H72 6960   5.872   2.482   3.292  0.0769  1.1524  0.1587
   85MOL    H73 6961   5.925   2.479   3.466  0.1880  1.1561 -1.1797
   85MOL    C74 6962   5.725   2.272   3.328 -0.5221 -0.4398 -0.5738
   85MOL    O75 6963   5.632   2.360   3.266 -0.0442  0.1564 -0.1767
   85MOL    H76 6964   5.678   2.184   3.372  1.7272 -0.2838  2.2636
   85MOL    H77 6965   5.794   2.224   3.259 -0.4907 -0.4011 -0.5692
   85MOL    C78 6966   5.578   2.306   3.149  0.4819  0.1616 -0.1581
   85MOL    O79 6967   5.475   2.217   3.179  0.1761  0.5049  0.6462
   85MOL    H80 6968   5.648   2.266   3.075  2.2342 -0.5628  1.8624
   85MOL    H81 6969   5.540   2.390   3.091  2.0238 -0.3844 -2.0231
   85MOL    H82 6970   5.510   2.131   3.196 -0.0847  0.0545 -1.0411
   86MOL     C1 6971   5.044   6.491   0.032 -0.1228 -0.0501  1.0592
   86MOL     O2 6972   5.155   6.572   0.054 -0.4520  0.4663  0.3201
   86MOL     H3 6973   5.000   6.442   0.118  0.2675 -0.1430  1.2091
   86MOL     H4 6974   4.982   6.548   7.746  0.2762  2.8216  2.9545
   86MOL     H5 6975   5.079   6.411   7.750 -0.6271  0.6829 -0.1262
   86MOL     C6 6976   5.143   6.665   0.151 -0.1123 -0.2606 -0.0351
   86MOL     O7 6977   5.154   6.606   0.277 -0.2285 -0.3218  0.1838
   86MOL     H8 6978   5.042   6.706   0.150  0.7778  2.0405  0.8949
   86MOL     H9 6979   5.216   6.745   0.140 -0.4396  0.1375  0.6288
   86MOL    C10 6980   5.285   6.567   0.311  0.5323 -0.9880  0.7585
   86MOL    O11 6981   5.292   6.505   0.435 -0.8450  0.0177  0.4870
   86MOL    H12 6982   5.354   6.652   0.311  0.6355 -1.0731  0.6274
   86MOL    H13 6983   5.311   6.495   0.234  0.9288 -0.3548  0.2937
   86MOL    C14 6984   5.284   6.594   0.542  0.2873  0.2305 -0.0665
   86MOL    O15 6985   5.400   6.673   0.557 -0.3505  0.4521 -0.4435
   86MOL    H16 6986   5.253   6.541   0.632  1.4849 -1.4294 -0.6025
   86MOL    H17 6987   5.207   6.669   0.529 -0.8045 -0.0635  4.0898
   86MOL    C18 6988   5.492   6.612   0.637 -0.7769  0.8601 -0.3561
   86MOL    O19 6989   5.608   6.691   0.647  0.0588  0.1565 -0.0860
   86MOL    H20 6990   5.514   6.509   0.610 -1.3843  0.7914 -0.6016
   86MOL    H21 6991   5.458   6.606   0.740  3.0851 -3.2854  0.8278
   86MOL    C22 6992   5.709   6.624   0.714  0.5809 -0.2606 -0.0387
   86MOL    O23 6993   5.702   6.625   0.859  0.4154  0.0889  0.1224
   86MOL    H24 6994   5.803   6.675   0.692  0.7914  0.6384  2.6867
   86MOL    H25 6995   5.709   6.521   0.679 -1.1332 -0.4479  0.4679
   86MOL    C26 6996   5.799   6.542   0.915  0.3203 -0.1981 -0.3107
   86MOL    O27 6997   5.758   6.410   0.929  0.0048 -0.4955  0.0536
   86MOL    H28 6998   5.821   6.581   1.014  0.0338 -2.4851  0.6725
   86MOL    H29 6999   5.892   6.548   0.859  1.4720 -1.4714  1.4168
   86MOL    C30 7000   5.646   6.401   1.020  0.1499 -0.0014  0.4658
   86MOL    O31 7001   5.577   6.286   0.987  0.2369  0.8425 -0.1924
   86MOL    H32 7002   5.589   6.493   1.006  1.1408  0.4782 -0.4876
   86MOL    H33 7003   5.690   6.397   1.119 -1.3828 -1.5504  1.1073
   86MOL    C34 7004   5.628   6.172   1.050  0.2790 -0.1522 -0.3052
   86MOL    O35 7005   5.622   6.180   1.189 -0.5819  0.0994 -0.0728
   86MOL    H36 7006   5.732   6.165   1.019  0.8112  1.1581  1.1200
   86MOL    H37 7007   5.572   6.087   1.011  1.5084 -0.1751 -2.0838
   86MOL    C38 7008   5.489   6.197   1.238  0.2683 -0.3232  0.4316
   86MOL    O39 7009   5.458   6.328   1.236  0.7715 -0.9610 -0.7365
   86MOL    H40 7010   5.471   6.158   1.338 -0.4311 -0.9784  0.0588
   86MOL    H41 7011   5.418   6.138   1.180 -0.8671 -1.3779  2.8254
   86MOL    C42 7012   5.499   6.405   1.345 -1.1118  0.2237  0.2967
   86MOL    O43 7013   5.426   6.380   1.454  0.2520 -0.7445 -0.4014
   86MOL    H44 7014   5.473   6.504   1.305  0.4018  0.0015 -1.3475
   86MOL    H45 7015   5.606   6.403   1.364 -0.6278  0.1423 -2.2238
   86MOL    C46 7016   5.296   6.422   1.465  0.0042  0.1313 -0.0877
   86MOL    O47 7017   5.233   6.373   1.578 -0.0886 -0.2086 -0.2068
   86MOL    H48 7018   5.231   6.383   1.386  1.8931 -3.3045 -0.0403
   86MOL    H49 7019   5.283   6.530   1.476 -1.2340 -0.0160 -0.0812
   86MOL    C50 7020   5.237   6.231   1.575  0.3569 -0.7556  0.0049
   86MOL    O51 7021   5.148   6.177   1.478 -0.0519  0.7333  0.3909
   86MOL    H52 7022   5.226   6.180   1.671  0.5018 -0.4180  0.1983
   86MOL    H53 7023   5.340   6.199   1.557  0.2689 -1.4695  0.7270
   86MOL    C54 7024   5.019   6.196   1.503  0.2197  1.0130 -0.4504
   86MOL    O55 7025   4.969   6.092   1.592  0.0323  0.4244  0.2227
   86MOL    H56 7026   4.972   6.182   1.406  3.0276  3.1601 -2.1936
   86MOL    H57 7027   4.996   6.297   1.536  1.1591  1.2753 -0.5976
   86MOL    C58 7028   4.831   6.105   1.596  0.0651 -0.8564 -0.0100
   86MOL    O59 7029   4.774   6.078   1.473 -0.2249  0.1125  0.4811
   86MOL    H60 7030   4.792   6.197   1.641  2.2018  0.9078 -1.6395
   86MOL    H61 7031   4.813   6.022   1.664 -1.5520 -0.0881  0.5341
   86MOL    C62 7032   4.637   6.060   1.485  0.7348  0.0855 -0.7082
   86MOL    O63 7033   4.562   6.172   1.478 -0.1565  1.0085  0.0112
   86MOL    H64 7034   4.599   5.985   1.554  2.3604 -1.7801 -1.7927
   86MOL    H65 7035   4.609   6.012   1.392  0.5729 -3.1708  0.9630
   86MOL    C66 7036   4.483   6.205   1.587 -0.2084  0.5260  0.2698
   86MOL    O67 7037   4.402   6.097   1.638 -0.0964  0.1170  0.0412
   86MOL    H68 7038   4.414   6.282   1.553 -0.7229 -0.4307 -0.9440
   86MOL    H69 7039   4.548   6.254   1.659  0.7317 -0.6243  0.2258
   86MOL    C70 7040   4.294   6.060   1.555 -0.0405  0.3615  0.6119
   86MOL    O71 7041   4.337   5.989   1.445 -0.1941  0.4801 -0.0733
   86MOL    H72 7042   4.233   6.148   1.537 -0.4509 -0.2585 -1.1345
   86MOL    H73 7043   4.226   5.994   1.608 -1.8166  2.9903  1.6810
   86MOL    C74 7044   4.368   5.849   1.468 -0.4725  0.0896  0.8296
   86MOL    O75 7045   4.260   5.772   1.466 -0.9784 -0.6280  0.3120
   86MOL    H76 7046   4.409   5.841   1.569  1.2930 -1.0763  0.0476
   86MOL    H77 7047   4.431   5.816   1.385 -1.0886 -0.0609  0.4136
   86MOL    C78 7048   4.212   5.765   1.342  0.1213  0.0083 -0.2672
   86MOL    O79 7049   4.091   5.683   1.340  0.5405 -0.2260 -0.5821
   86MOL    H80 7050   4.285   5.724   1.272 -0.4183  0.7760 -1.3025
   86MOL    H81 7051   4.182   5.858   1.294 -0.6681 -0.6080 -0.9857
   86MOL    H82 7052   4.018   5.731   1.376  1.2868  0.3158  0.2034
   87MOL     C1 7053   7.392   1.949   1.984  0.0180 -0.7406 -0.2923
   87MOL     O2 7054   7.394   2.077   2.043  0.2197 -0.3270  0.4337
   87MOL     H3 7055   7.318   1.940   1.905  0.3481  1.6067 -0.9057
   87MOL     H4 7056   7.492   1.917   1.954  0.0385 -1.1495  0.2013
   87MOL     H5 7057   7.370   1.883   2.068 -1.8681 -1.1577 -1.1007
   87MOL     C6 7058   7.443   2.175   1.961  0.5564 -0.4602 -0.1605
   87MOL     O7 7059   7.347   2.193   1.859 -0.4456  0.2264  0.5287
   87MOL     H8 7060   7.543   2.142   1.932  0.2608  0.9177 -2.9672
   87MOL     H9 7061   7.432   2.261   2.027 -0.8811  0.4649 -1.5493
   87MOL    C10 7062   7.369   2.304   1.771 -0.8071  0.3473  0.3498
   87MOL    O11 7063   7.477   2.296   1.681  0.4595  0.0798  0.5923
   87MOL    H12 7064   7.385   2.387   1.839  1.3779  0.5952 -0.4219
   87MOL    H13 7065   7.275   2.317   1.717 -1.0775  0.5501  0.8640
   87MOL    C14 7066   7.475   2.195   1.588 -0.2554  0.0945  0.1567
   87MOL    O15 7067   7.354   2.210   1.517  0.0283  0.0431 -0.1464
   87MOL    H16 7068   7.471   2.094   1.629 -0.3050 -0.5058 -1.2855
   87MOL    H17 7069   7.571   2.199   1.536  0.5117 -0.0218  1.5435
   87MOL    C18 7070   7.339   2.321   1.435 -0.5628 -0.5036  0.1389
   87MOL    O19 7071   7.203   2.334   1.392 -0.5358 -0.8336  0.1859
   87MOL    H20 7072   7.403   2.322   1.346 -2.5973 -2.7648 -1.4156
   87MOL    H21 7073   7.348   2.414   1.490 -0.4825  0.5296 -1.5896
   87MOL    C22 7074   7.166   2.257   1.283  0.8419 -0.4276 -0.3138
   87MOL    O23 7075   7.212   2.303   1.164  0.3996  0.3857 -0.2387
   87MOL    H24 7076   7.058   2.254   1.274  1.0886 -0.1643 -4.0011
   87MOL    H25 7077   7.209   2.157   1.280  0.9548 -0.3399 -2.3459
   87MOL    C26 7078   7.139   2.416   1.125  0.0314  0.4304  0.5206
   87MOL    O27 7079   7.016   2.387   1.059  0.3324  0.6297 -0.0979
   87MOL    H28 7080   7.204   2.480   1.064 -0.0888 -1.2622 -1.4293
   87MOL    H29 7081   7.120   2.477   1.213 -1.8535 -0.4063  0.7143
   87MOL    C30 7082   7.046   2.340   0.926 -0.1949  0.0321 -0.3909
   87MOL    O31 7083   7.114   2.432   0.848  0.1639  0.0408 -0.3296
   87MOL    H32 7084   6.949   2.311   0.885 -0.6771  0.8690  0.1526
   87MOL    H33 7085   7.110   2.251   0.928 -0.6072 -0.2802 -1.1102
   87MOL    C34 7086   7.030   2.526   0.783  0.9743 -0.1019  0.2200
   87MOL    O35 7087   6.976   2.482   0.662  0.0302 -0.2426  0.0050
   87MOL    H36 7088   7.102   2.608   0.776  0.9171 -0.0158  0.6588
   87MOL    H37 7089   6.949   2.560   0.847  0.5923  1.2972 -0.9807
   87MOL    C38 7090   6.982   2.570   0.560  0.0644 -0.1842  0.3614
   87MOL    O39 7091   6.867   2.654   0.570 -0.2641  0.4957  0.1305
   87MOL    H40 7092   6.984   2.524   0.461  0.8173  1.4891 -0.4217
   87MOL    H41 7093   7.073   2.630   0.564 -1.7713  2.7190 -0.6626
   87MOL    C42 7094   6.763   2.590   0.505 -0.0283 -0.6985 -0.4359
   87MOL    O43 7095   6.639   2.620   0.563 -0.7891  0.0550 -0.0541
   87MOL    H44 7096   6.776   2.482   0.496 -0.5029 -0.6033 -2.3901
   87MOL    H45 7097   6.771   2.621   0.401  2.3436  0.2072 -0.0310
   87MOL    C46 7098   6.620   2.545   0.684  0.8320  0.4878  0.0250
   87MOL    O47 7099   6.587   2.408   0.659 -0.5904 -0.0208  0.0166
   87MOL    H48 7100   6.543   2.595   0.743  1.3683  1.8683 -0.4275
   87MOL    H49 7101   6.707   2.543   0.749  0.1310  1.0441  0.9910
   87MOL    C50 7102   6.458   2.386   0.612 -0.0719  0.6823 -0.6500
   87MOL    O51 7103   6.368   2.397   0.716 -0.2517 -0.8503  0.1383
   87MOL    H52 7104   6.453   2.298   0.547  0.6957 -0.5702  0.9724
   87MOL    H53 7105   6.432   2.457   0.532 -0.0790  0.4776 -0.8296
   87MOL    C54 7106   6.382   2.293   0.808 -0.3076  0.3825  0.1026
   87MOL    O55 7107   6.308   2.307   0.923 -0.5322  0.5955  0.3937
   87MOL    H56 7108   6.480   2.290   0.856 -0.6372 -2.8173  0.7396
   87MOL    H57 7109   6.375   2.195   0.761 -1.4473  1.1056 -1.2679
   87MOL    C58 7110   6.166   2.308   0.890 -0.3318  0.4747 -0.1223
   87MOL    O59 7111   6.115   2.187   0.846  0.1823 -0.1977  0.7000
   87MOL    H60 7112   6.143   2.369   0.802 -0.3502 -1.7635 -1.7222
   87MOL    H61 7113   6.106   2.359   0.965 -1.7903  4.0361 -3.4662
   87MOL    C62 7114   6.122   2.084   0.942  0.4091 -0.1675  0.0375
   87MOL    O63 7115   6.037   1.981   0.908 -0.5099 -0.0034 -0.3531
   87MOL    H64 7116   6.117   2.116   1.046  1.7408 -1.2028  0.4302
   87MOL    H65 7117   6.224   2.047   0.936  0.3971 -0.0232 -1.2704
   87MOL    C66 7118   5.909   2.023   0.948  0.2240  0.2614  0.7050
   87MOL    O67 7119   5.807   1.926   0.930 -0.2753  0.0791  0.1752
   87MOL    H68 7120   5.880   2.115   0.897  1.2795 -0.3794 -1.0786
   87MOL    H69 7121   5.908   2.041   1.055 -0.5487  2.0282  0.4302
   87MOL    C70 7122   5.779   1.914   0.793 -0.2179 -0.4003  0.0922
   87MOL    O71 7123   5.720   2.029   0.734  0.8948  0.9032 -0.3200
   87MOL    H72 7124   5.713   1.829   0.776  0.1998 -0.8702  0.8072
   87MOL    H73 7125   5.869   1.886   0.738 -0.3624 -0.2534 -0.2205
   87MOL    C74 7126   5.580   2.030   0.757 -1.0544  0.1571  0.2922
   87MOL    O75 7127   5.517   1.945   0.669  0.0632  0.3335 -0.0526
   87MOL    H76 7128   5.549   2.134   0.752  0.0577  0.4107 -1.9796
   87MOL    H77 7129   5.553   1.987   0.853 -0.3534 -0.5041  0.2036
   87MOL    C78 7130   5.501   1.994   0.541  0.2212  0.7276  0.3524
   87MOL    O79 7131   5.435   1.893   0.460  0.2012  0.0641 -0.3155
   87MOL    H80 7132   5.596   2.011   0.492 -0.0175  1.1565  0.0353
   87MOL    H81 7133   5.449   2.090   0.541 -1.8295 -0.3426 -0.9335
   87MOL    H82 7134   5.485   1.821   0.494  2.1370  1.8881  0.8221
   88MOL     C1 7135   3.123   5.651   3.179  0.5474  0.2506  0.0298
   88MOL     O2 7136   3.176   5.555   3.092  0.0412 -0.1965  0.2200
   88MOL     H3 7137   3.028   5.673   3.130 -0.0368 -1.1917  0.4796
   88MOL     H4 7138   3.095   5.614   3.278 -0.3680  0.9985  0.0590
   88MOL     H5 7139   3.193   5.734   3.187 -0.0815  0.7575  0.3170
   88MOL     C6 7140   3.310   5.534   3.091 -0.1363  0.1359 -0.4996
   88MOL     O7 7141   3.364   5.500   3.211 -0.1889 -0.3124  0.4526
   88MOL     H8 7142   3.351   5.634   3.072 -0.5518 -0.1718 -3.3080
   88MOL     H9 7143   3.336   5.463   3.012  2.1948 -0.8499  1.0942
   88MOL    C10 7144   3.335   5.363   3.242  0.2883 -0.0366  0.2866
   88MOL    O11 7145   3.387   5.332   3.368 -0.4783 -0.1368 -0.3588
   88MOL    H12 7146   3.374   5.296   3.165  0.4485  1.0164 -0.5516
   88MOL    H13 7147   3.227   5.350   3.247  0.0030  2.5830  1.9286
   88MOL    C14 7148   3.523   5.327   3.377 -0.2300  0.0713  0.2662
   88MOL    O15 7149   3.576   5.202   3.426  0.3153 -0.4691  0.0272
   88MOL    H16 7150   3.545   5.414   3.439  1.0371  0.4701 -0.7226
   88MOL    H17 7151   3.583   5.342   3.287 -0.4411 -1.5852 -0.1600
   88MOL    C18 7152   3.707   5.214   3.474 -0.4385  0.4658 -0.7791
   88MOL    O19 7153   3.730   5.104   3.559  0.7007 -0.1939  0.1127
   88MOL    H20 7154   3.718   5.308   3.529  0.2423  0.9305 -1.6983
   88MOL    H21 7155   3.779   5.208   3.392 -0.9090 -1.0377 -1.0904
   88MOL    C22 7156   3.652   5.099   3.672  0.3669  0.5908  0.3574
   88MOL    O23 7157   3.694   5.195   3.766 -0.2332 -0.2356  0.2702
   88MOL    H24 7158   3.646   5.001   3.719 -1.8944  1.4105  1.8926
   88MOL    H25 7159   3.549   5.117   3.640  0.5770  1.8371  0.3588
   88MOL    C26 7160   3.592   5.246   3.847  0.1736 -0.0391 -0.5041
   88MOL    O27 7161   3.543   5.359   3.773  0.3811 -0.2232 -0.3393
   88MOL    H28 7162   3.641   5.271   3.941  0.8434  2.2249 -1.4120
   88MOL    H29 7163   3.500   5.190   3.864  0.2329 -0.0666 -0.2791
   88MOL    C30 7164   3.613   5.474   3.811 -1.4050 -0.1352  0.1565
   88MOL    O31 7165   3.561   5.535   3.924 -0.1414 -0.0989 -0.3251
   88MOL    H32 7166   3.613   5.537   3.722 -0.9416 -0.2929  0.0408
   88MOL    H33 7167   3.718   5.443   3.816 -0.8266  1.6940 -0.3722
   88MOL    C34 7168   3.462   5.626   3.897 -0.7677  0.4004 -0.7328
   88MOL    O35 7169   3.508   5.757   3.848  0.4952  0.6831 -0.0578
   88MOL    H36 7170   3.417   5.640   3.995  0.6659 -2.5743  0.4203
   88MOL    H37 7171   3.394   5.571   3.833  0.2927  0.9040 -2.3396
   88MOL    C38 7172   3.567   5.830   3.951  0.1311 -0.1089 -0.2943
   88MOL    O39 7173   3.572   5.964   3.913 -0.5012 -0.4865  0.4114
   88MOL    H40 7174   3.668   5.791   3.964  0.0837 -0.4057 -0.8250
   88MOL    H41 7175   3.515   5.825   4.046  1.9921  1.6311  0.8557
   88MOL    C42 7176   3.638   6.052   3.995  0.5190  0.2786  0.5688
   88MOL    O43 7177   3.774   6.055   3.969  0.2513 -0.4136 -0.5686
   88MOL    H44 7178   3.628   6.022   4.099  1.0814  1.4766  0.9856
   88MOL    H45 7179   3.592   6.151   3.990 -0.9686 -0.4641 -0.7135
   88MOL    C46 7180   3.815   6.101   3.847  0.3238  0.3056 -0.6467
   88MOL    O47 7181   3.810   6.240   3.849 -0.3352  0.4279  0.3607
   88MOL    H48 7182   3.743   6.061   3.775  1.3594 -0.3798 -1.3171
   88MOL    H49 7183   3.911   6.052   3.834 -0.4728 -1.3715 -0.3604
   88MOL    C50 7184   3.913   6.298   3.921 -0.6295 -0.1370 -0.0781
   88MOL    O51 7185   3.892   6.433   3.924 -0.8812  0.0341  0.1148
   88MOL    H52 7186   4.008   6.285   3.870  1.0816  0.5381  2.8421
   88MOL    H53 7187   3.917   6.253   4.020 -2.0250  0.4242  0.2458
   88MOL    C54 7188   3.805   6.469   4.033 -0.3542 -0.2268 -0.5908
   88MOL    O55 7189   3.861   6.432   4.157  0.3534 -0.5451  0.3721
   88MOL    H56 7190   3.710   6.416   4.025 -0.6522  0.2384 -0.1284
   88MOL    H57 7191   3.782   6.575   4.034  5.3081  1.1908 -1.7607
   88MOL    C58 7192   3.955   6.524   4.204 -0.4016  0.1658 -0.1869
   88MOL    O59 7193   4.075   6.516   4.137  0.5347 -0.5255  0.4749
   88MOL    H60 7194   3.968   6.511   4.311  1.3236 -1.0280 -0.5245
   88MOL    H61 7195   3.911   6.624   4.201  1.3506  0.9257 -1.2479
   88MOL    C62 7196   4.170   6.447   4.209  0.4089  0.1294  0.5656
   88MOL    O63 7197   4.286   6.430   4.130 -0.0662 -0.1367 -0.0037
   88MOL    H64 7198   4.120   6.350   4.216  1.2204 -0.3674 -0.3924
   88MOL    H65 7199   4.192   6.483   4.309 -0.4045  2.2756 -0.0086
   88MOL    C66 7200   4.358   6.554   4.113  0.5366 -0.0613 -0.1817
   88MOL    O67 7201   4.471   6.536   4.034  0.1890  0.2029  0.2097
   88MOL    H68 7202   4.386   6.596   4.210 -2.9200  1.6289  0.1590
   88MOL    H69 7203   4.289   6.619   4.060 -1.7402 -1.3383  1.1318
   88MOL    C70 7204   4.441   6.478   3.909 -0.4394  0.3460 -0.1167
   88MOL    O71 7205   4.364   6.560   3.826  0.4713  0.0608  0.6350
   88MOL    H72 7206   4.402   6.377   3.919  1.3558 -0.3881 -0.3715
   88MOL    H73 7207   4.533   6.465   3.853 -0.3559 -0.4859  0.2028
   88MOL    C74 7208   4.238   6.505   3.803  0.3077  0.7104  0.2258
   88MOL    O75 7209   4.234   6.389   3.725  0.1790  0.0502  0.1946
   88MOL    H76 7210   4.169   6.574   3.755 -1.6090 -1.0128  0.4620
   88MOL    H77 7211   4.187   6.484   3.897  0.1703  1.4079  0.3124
   88MOL    C78 7212   4.283   6.412   3.602 -0.7030  0.3631  0.1812
   88MOL    O79 7213   4.258   6.295   3.533 -0.0398  0.2671 -0.1829
   88MOL    H80 7214   4.391   6.428   3.610 -0.5644  0.3939 -1.6202
   88MOL    H81 7215   4.245   6.501   3.552  0.0463 -0.4014 -1.7956
   88MOL    H82 7216   4.309   6.225   3.572 -0.6144  1.1204  2.1500
   89MOL     C1 7217   4.828   3.205   4.922  0.2233  0.0440  0.3770
   89MOL     O2 7218   4.787   3.336   4.951  0.5139  0.1416 -0.4090
   89MOL     H3 7219   4.753   3.127   4.939 -1.1711  1.1974 -0.3988
   89MOL     H4 7220   4.853   3.188   4.817  1.7407 -3.2341  1.1784
   89MOL     H5 7221   4.910   3.159   4.977 -1.8672 -2.3684  1.6110
   89MOL     C6 7222   4.676   3.383   4.871 -0.0257  0.4235 -0.3488
   89MOL     O7 7223   4.720   3.402   4.747  0.5491 -0.1899 -0.0331
   89MOL     H8 7224   4.635   3.476   4.911 -0.3545 -0.5171  1.5698
   89MOL     H9 7225   4.600   3.305   4.864  1.2717 -1.0782  1.6111
   89MOL    C10 7226   4.832   3.483   4.742 -0.3483  0.0626 -0.3191
   89MOL    O11 7227   4.872   3.509   4.611 -0.3008  0.6136  0.8362
   89MOL    H12 7228   4.918   3.456   4.803 -1.5416 -1.9220  0.5117
   89MOL    H13 7229   4.792   3.581   4.770  1.1986  0.4141  0.7144
   89MOL    C14 7230   4.937   3.400   4.545 -0.4177  0.0364  0.1159
   89MOL    O15 7231   4.863   3.285   4.523  0.1202 -0.1759  0.6424
   89MOL    H16 7232   5.027   3.398   4.607 -0.9948  0.0834  0.9622
   89MOL    H17 7233   4.984   3.436   4.453  1.3111 -0.2990  0.8602
   89MOL    C18 7234   4.758   3.299   4.430 -0.6542  0.3012  0.3244
   89MOL    O19 7235   4.806   3.278   4.300 -0.4850  0.2677  0.3226
   89MOL    H20 7236   4.713   3.397   4.447  0.6372  0.6977  1.5236
   89MOL    H21 7237   4.677   3.228   4.442  0.2783 -0.4670  2.3036
   89MOL    C22 7238   4.856   3.154   4.281 -0.1606 -0.1629 -0.5788
   89MOL    O23 7239   4.750   3.073   4.236 -0.3240 -0.2427 -0.6465
   89MOL    H24 7240   4.896   3.111   4.373  1.1109  3.1596  0.4970
   89MOL    H25 7241   4.932   3.154   4.203  0.4038  0.0114 -0.0276
   89MOL    C26 7242   4.714   3.106   4.109  0.4619  0.2590 -0.3151
   89MOL    O27 7243   4.813   3.067   4.023 -0.9666 -0.6569  0.1604
   89MOL    H28 7244   4.689   3.212   4.105 -1.6338 -0.2201 -0.6759
   89MOL    H29 7245   4.622   3.052   4.088  0.6935 -1.0125  1.8002
   89MOL    C30 7246   4.830   2.933   4.028 -0.3004 -0.2855  0.5076
   89MOL    O31 7247   4.716   2.871   3.967  0.0514  0.0630 -0.1321
   89MOL    H32 7248   4.842   2.894   4.129  1.7319  1.7432  1.0798
   89MOL    H33 7249   4.920   2.910   3.972 -1.1630  0.1451 -1.0995
   89MOL    C34 7250   4.749   2.742   3.929  0.2323 -0.8157  0.5985
   89MOL    O35 7251   4.836   2.740   3.827  0.2323  0.8471  0.2785
   89MOL    H36 7252   4.662   2.684   3.901 -1.0718  0.6043  1.6256
   89MOL    H37 7253   4.807   2.690   4.006  1.1361 -0.4810  0.1583
   89MOL    C38 7254   4.786   2.804   3.717 -0.2515 -0.1225  0.1687
   89MOL    O39 7255   4.678   2.737   3.660 -0.0721  0.9087  0.5419
   89MOL    H40 7256   4.867   2.793   3.644 -0.8114  0.3360 -0.5281
   89MOL    H41 7257   4.770   2.911   3.730  0.9003 -0.1831  2.4101
   89MOL    C42 7258   4.704   2.612   3.600 -0.2988  0.4882  0.1825
   89MOL    O43 7259   4.764   2.624   3.474  0.0007 -0.0379  0.2310
   89MOL    H44 7260   4.612   2.560   3.572  0.8019  0.2539 -3.2012
   89MOL    H45 7261   4.757   2.552   3.674  1.1983 -0.4509 -1.6210
   89MOL    C46 7262   4.695   2.711   3.388  0.4003  0.5054  0.1060
   89MOL    O47 7263   4.716   2.671   3.255 -0.4172 -0.9120 -0.3683
   89MOL    H48 7264   4.719   2.816   3.401 -2.4756  1.3764 -1.3078
   89MOL    H49 7265   4.587   2.711   3.403  0.0921 -1.1361 -1.8695
   89MOL    C50 7266   4.729   2.782   3.162 -0.1401 -0.0280 -0.1008
   89MOL    O51 7267   4.862   2.833   3.158  0.1070  0.4992  1.1922
   89MOL    H52 7268   4.655   2.859   3.184  1.2956  0.7362  2.1929
   89MOL    H53 7269   4.703   2.731   3.069  1.6588 -0.0434 -0.6165
   89MOL    C54 7270   4.953   2.741   3.113  0.1386 -0.1475 -0.0423
   89MOL    O55 7271   4.936   2.713   2.976  0.0792 -0.4287  0.0661
   89MOL    H56 7272   4.942   2.653   3.176  1.9400 -0.7065 -0.4816
   89MOL    H57 7273   5.052   2.775   3.144  1.2032 -1.5818 -1.7859
   89MOL    C58 7274   5.013   2.797   2.904 -1.1240 -1.0908 -0.7148
   89MOL    O59 7275   4.967   2.927   2.907 -0.1136 -0.4829 -0.5030
   89MOL    H60 7276   5.011   2.753   2.804 -0.3996 -1.0643 -0.7479
   89MOL    H61 7277   5.115   2.805   2.942 -1.0599 -0.8074 -0.9396
   89MOL    C62 7278   4.834   2.945   2.851  0.2211  0.3136  0.3053
   89MOL    O63 7279   4.818   3.074   2.795 -0.1851 -0.1079  0.1433
   89MOL    H64 7280   4.761   2.916   2.927  0.9673 -0.6837  0.6602
   89MOL    H65 7281   4.831   2.884   2.761  1.8582 -0.1063  0.5127
   89MOL    C66 7282   4.777   3.174   2.886 -0.0554  0.0696 -0.4998
   89MOL    O67 7283   4.634   3.166   2.890  0.5936  0.3096 -0.1962
   89MOL    H68 7284   4.809   3.271   2.849 -0.9038  0.7129  0.4342
   89MOL    H69 7285   4.826   3.166   2.983 -0.1788  0.4962 -0.4022
   89MOL    C70 7286   4.586   3.159   3.021 -0.2931 -0.1505  0.8746
   89MOL    O71 7287   4.577   3.280   3.081  0.4857 -0.1711  0.1531
   89MOL    H72 7288   4.638   3.084   3.081 -0.4365 -0.9267  0.0383
   89MOL    H73 7289   4.485   3.117   3.023 -0.6165  0.4817 -1.2670
   89MOL    C74 7290   4.483   3.362   3.020  0.1514 -0.8731 -0.0421
   89MOL    O75 7291   4.535   3.493   3.032  0.0376  0.1818 -0.0516
   89MOL    H76 7292   4.389   3.357   3.075  0.8011  1.1243  1.2952
   89MOL    H77 7293   4.452   3.343   2.918 -0.4160  2.4918 -0.5542
   89MOL    C78 7294   4.527   3.541   3.165  0.1880  0.4902  0.0361
   89MOL    O79 7295   4.397   3.582   3.204  0.2319  0.1502  0.4252
   89MOL    H80 7296   4.582   3.634   3.175  0.8569  0.4125 -2.6127
   89MOL    H81 7297   4.558   3.472   3.244  0.2845 -0.3592 -0.7309
   89MOL    H82 7298   4.368   3.644   3.139  1.2731  0.4364  0.2355
   90MOL     C1 7299   1.011   5.730   3.698 -0.6136 -0.9193  0.1219
   90MOL     O2 7300   0.918   5.778   3.604  0.1024  0.1972 -0.7687
   90MOL     H3 7301   1.058   5.818   3.741  0.4634  0.2552 -3.2696
   90MOL     H4 7302   0.960   5.672   3.774  0.4635 -0.2325  1.3852
   90MOL     H5 7303   1.089   5.671   3.650  1.3081  1.4752  0.1961
   90MOL     C6 7304   0.852   5.673   3.542  0.2265  0.7315 -0.3605
   90MOL     O7 7305   0.942   5.596   3.467 -0.0110  0.2728 -0.7148
   90MOL     H8 7306   0.778   5.716   3.474  0.9830 -1.1462 -2.4600
   90MOL     H9 7307   0.795   5.601   3.601 -1.7580  4.2707  2.1988
   90MOL    C10 7308   0.946   5.629   3.334  1.0024  0.1185  0.2160
   90MOL    O11 7309   1.070   5.597   3.282  0.3190  0.2524 -0.4127
   90MOL    H12 7310   0.938   5.737   3.323  2.7440  0.0784 -1.7471
   90MOL    H13 7311   0.866   5.587   3.274 -0.9178  2.9128  0.7620
   90MOL    C14 7312   1.170   5.691   3.313 -0.8516  0.0719 -0.0052
   90MOL    O15 7313   1.167   5.803   3.224  0.2069  0.0236 -0.1371
   90MOL    H16 7314   1.270   5.650   3.304 -1.3006 -1.1342  0.3254
   90MOL    H17 7315   1.161   5.721   3.418  0.0812  1.1704 -0.2307
   90MOL    C18 7316   1.259   5.900   3.259  0.1375  0.0857  0.6585
   90MOL    O19 7317   1.391   5.868   3.215 -0.0196 -0.1200  1.1711
   90MOL    H20 7318   1.265   5.913   3.367  1.7734 -0.9809  0.7144
   90MOL    H21 7319   1.227   5.998   3.222 -2.0282 -0.6637  0.5098
   90MOL    C22 7320   1.399   5.862   3.078 -0.1537 -0.1540 -0.3234
   90MOL    O23 7321   1.531   5.845   3.043  0.3756 -0.3302 -0.1773
   90MOL    H24 7322   1.347   5.944   3.028  0.7562  1.2312  0.9218
   90MOL    H25 7323   1.351   5.770   3.047  1.4864 -1.3722  0.6433
   90MOL    C26 7324   1.605   5.959   3.068 -0.2621  0.0115 -0.2128
   90MOL    O27 7325   1.703   5.975   2.972 -0.5922 -0.8086 -0.2041
   90MOL    H28 7326   1.649   5.944   3.167 -1.1975 -0.7460  0.0929
   90MOL    H29 7327   1.547   6.051   3.073  0.7933  0.6600  0.3876
   90MOL    C30 7328   1.658   6.018   2.845  0.3582 -0.0487  0.4216
   90MOL    O31 7329   1.626   6.157   2.835  0.4582 -0.3037 -0.1800
   90MOL    H32 7330   1.570   5.957   2.822  0.8562 -0.8420  0.5731
   90MOL    H33 7331   1.723   5.997   2.759  1.0980 -0.3590  1.0474
   90MOL    C34 7332   1.743   6.231   2.847 -0.0741 -0.2471  0.3495
   90MOL    O35 7333   1.726   6.336   2.935  0.0044 -0.1948 -0.1492
   90MOL    H36 7334   1.779   6.255   2.747 -0.2870  1.3712  0.6463
   90MOL    H37 7335   1.820   6.176   2.900 -0.1901 -1.0308 -0.2841
   90MOL    C38 7336   1.662   6.443   2.877  0.1537 -0.1535  0.2558
   90MOL    O39 7337   1.750   6.511   2.797  0.1098 -0.1783  0.4387
   90MOL    H40 7338   1.615   6.494   2.961  1.5549  0.7011  0.5268
   90MOL    H41 7339   1.579   6.410   2.814 -1.9136  1.2115  2.1686
   90MOL    C42 7340   1.854   6.568   2.867  0.2967  0.2293 -0.2683
   90MOL    O43 7341   1.815   6.679   2.950 -0.5580 -0.1006  0.1628
   90MOL    H44 7342   1.920   6.607   2.789  1.1389  0.2302  0.4441
   90MOL    H45 7343   1.913   6.500   2.928  0.3830  0.4341 -0.1242
   90MOL    C46 7344   1.745   6.775   2.881  1.1942 -0.1882 -0.2154
   90MOL    O47 7345   1.696   6.872   2.967  0.3691  0.7409 -0.2507
   90MOL    H48 7346   1.665   6.734   2.819  0.1066 -0.7730  1.5360
   90MOL    H49 7347   1.820   6.819   2.815  0.8049 -1.0150 -1.2211
   90MOL    C50 7348   1.584   6.825   3.043 -0.2707  0.7133  0.9352
   90MOL    O51 7349   1.469   6.793   2.972 -0.1693 -0.7316 -0.7235
   90MOL    H52 7350   1.571   6.888   3.131 -0.5755 -1.3758  2.4121
   90MOL    H53 7351   1.609   6.730   3.089 -1.3828 -0.6247 -1.1295
   90MOL    C54 7352   1.382   6.896   2.953 -1.3298 -0.3601 -0.6690
   90MOL    O55 7353   1.423   6.972   2.844 -0.0101 -0.2647 -0.2217
   90MOL    H56 7354   1.383   6.960   3.042 -0.6005 -0.7766 -0.3646
   90MOL    H57 7355   1.280   6.868   2.930 -2.0314  1.5310  0.0500
   90MOL    C58 7356   1.365   7.102   2.842  0.2823  0.0859  0.0375
   90MOL    O59 7357   1.385   7.180   2.952 -0.1901 -0.1189  0.4179
   90MOL    H60 7358   1.258   7.080   2.840 -0.4210  3.3832 -0.2028
   90MOL    H61 7359   1.400   7.153   2.753 -1.2586 -0.9650 -1.2019
   90MOL    C62 7360   1.521   7.206   2.976  0.4704  0.0071  1.0320
   90MOL    O63 7361   1.550   7.274   3.094 -0.0351  0.1248  0.3282
   90MOL    H64 7362   1.566   7.272   2.902  1.9449 -1.1632  0.8787
   90MOL    H65 7363   1.584   7.117   2.980 -0.8278 -1.1262 -2.1815
   90MOL    C66 7364   1.489   7.213   3.208 -0.4529  0.3630 -0.1028
   90MOL    O67 7365   1.546   7.092   3.233  0.5223 -0.5921 -0.2580
   90MOL    H68 7366   1.384   7.185   3.200  0.3422 -2.4260 -1.6401
   90MOL    H69 7367   1.493   7.275   3.297  0.0003  0.8164 -0.4430
   90MOL    C70 7368   1.678   7.094   3.285 -0.0917  0.2413  0.2754
   90MOL    O71 7369   1.687   7.163   3.409  0.3551 -0.1940 -0.1702
   90MOL    H72 7370   1.743   7.148   3.216 -0.4334 -0.1403 -0.3546
   90MOL    H73 7371   1.709   6.989   3.294 -2.1448 -0.4171 -0.0443
   90MOL    C74 7372   1.632   7.096   3.514 -0.2210  0.1394  0.1559
   90MOL    O75 7373   1.704   6.986   3.548  0.6660  0.2561  0.2732
   90MOL    H76 7374   1.529   7.058   3.509 -0.2608  0.3026 -0.2713
   90MOL    H77 7375   1.633   7.169   3.594 -4.2748 -0.6150  1.0414
   90MOL    C78 7376   1.820   7.016   3.619  0.8982 -0.1021 -0.0942
   90MOL    O79 7377   1.866   6.892   3.666  0.3743 -0.4959 -0.8079
   90MOL    H80 7378   1.804   7.080   3.706 -0.2861  0.6440 -0.8502
   90MOL    H81 7379   1.890   7.060   3.548  1.5292 -1.3490 -0.2529
   90MOL    H82 7380   1.813   6.867   3.740 -0.7663  1.0118 -1.0922
   91MOL     C1 7381   7.742   5.104   6.717  0.1423  0.6817  0.6885
   91MOL     O2 7382   0.010   4.981   6.762  0.5518  0.3241  0.5008
   91MOL     H3 7383   0.033   5.159   6.660  0.0166 -2.8774 -3.1453
   91MOL     H4 7384   7.657   5.077   6.654  0.9719  2.0869 -1.0765
   91MOL     H5 7385   7.696   5.176   6.785 -1.1549  1.6035 -1.1193
   91MOL     C6 7386   0.089   5.000   6.878  0.1379 -0.5232  0.1527
   91MOL     O7 7387   0.204   5.080   6.845  0.3217  0.7904  0.0257
   91MOL     H8 7388   0.116   4.902   6.916 -1.2586 -0.6716  0.7923
   91MOL     H9 7389   0.031   5.056   6.951  0.1162 -0.7073  0.2769
   91MOL    C10 7390   0.308   5.014   6.786 -0.5556 -0.8570  0.3695
   91MOL    O11 7391   0.370   4.939   6.881 -0.1253  0.1539  0.6999
   91MOL    H12 7392   0.373   5.100   6.768  0.5197 -2.1607 -2.2408
   91MOL    H13 7393   0.276   4.973   6.690  1.7223  1.0526 -1.2656
   91MOL    C14 7394   0.471   4.856   6.823 -0.2267 -0.2850  0.1705
   91MOL    O15 7395   0.527   4.774   6.908 -0.4003  0.2172  0.1562
   91MOL    H16 7396   0.547   4.924   6.785  0.0823  0.3676  1.8931
   91MOL    H17 7397   0.420   4.819   6.734 -0.1388  1.5955 -0.6703
   91MOL    C18 7398   0.608   4.681   6.849 -0.5930 -0.4159  0.0541
   91MOL    O19 7399   0.719   4.742   6.796  0.5733 -0.1014 -0.0971
   91MOL    H20 7400   0.555   4.626   6.772  0.9766 -0.5563 -0.9417
   91MOL    H21 7401   0.640   4.596   6.911 -1.3507 -1.7264 -1.3093
   91MOL    C22 7402   0.807   4.651   6.742  0.0285 -0.2172 -0.4645
   91MOL    O23 7403   0.870   4.578   6.841 -0.9793 -0.6553  0.1570
   91MOL    H24 7404   0.893   4.707   6.706  1.0725 -1.0117  0.7480
   91MOL    H25 7405   0.758   4.597   6.661 -1.0610 -0.8222  0.5800
   91MOL    C26 7406   0.958   4.655   6.922 -0.3534 -0.4626  0.2875
   91MOL    O27 7407   1.078   4.673   6.841 -0.1910  0.6062  0.8913
   91MOL    H28 7408   0.969   4.604   7.018  0.2123  0.4403  0.7121
   91MOL    H29 7409   0.921   4.755   6.948  1.9453  0.1662  1.2314
   91MOL    C30 7410   1.185   4.709   6.919 -0.6083  0.2510  0.7687
   91MOL    O31 7411   1.242   4.602   6.977 -0.5911  1.0327  1.3302
   91MOL    H32 7412   1.157   4.782   6.995 -2.6039  0.8624 -0.4958
   91MOL    H33 7413   1.245   4.765   6.847 -0.0139 -0.9923  0.2826
   91MOL    C34 7414   1.331   4.547   6.887  0.4943  0.0430 -0.5657
   91MOL    O35 7415   1.448   4.623   6.874 -0.3615  0.6237 -0.2017
   91MOL    H36 7416   1.279   4.518   6.795  0.7401 -0.6500 -0.4911
   91MOL    H37 7417   1.355   4.455   6.941 -0.0904 -0.2888 -0.8584
   91MOL    C38 7418   1.526   4.629   6.995 -0.8618  0.3421  0.0492
   91MOL    O39 7419   1.632   4.717   6.980  0.1708 -0.1543 -0.1474
   91MOL    H40 7420   1.565   4.532   7.025 -0.3417  0.7964  0.8491
   91MOL    H41 7421   1.459   4.663   7.074 -1.4756  1.8283 -1.0718
   91MOL    C42 7422   1.599   4.851   7.010  0.4834  0.4070  0.1631
   91MOL    O43 7423   1.701   4.929   6.958  0.1775  0.5707  0.0034
   91MOL    H44 7424   1.576   4.854   7.117 -1.7314 -1.9270 -0.2022
   91MOL    H45 7425   1.508   4.860   6.951  2.7968  0.8064 -3.4533
   91MOL    C46 7426   1.645   5.055   6.932 -0.3394 -0.3244  0.3559
   91MOL    O47 7427   1.543   5.048   6.834  0.5664 -0.2527  0.0584
   91MOL    H48 7428   1.717   5.130   6.898 -1.7130  0.1521 -1.6070
   91MOL    H49 7429   1.595   5.100   7.018 -3.3437  1.9852 -2.4480
   91MOL    C50 7430   1.595   5.011   6.712  0.5436  0.1813 -0.6061
   91MOL    O51 7431   1.502   5.003   6.610 -0.1939 -1.0408  0.0395
   91MOL    H52 7432   1.644   4.916   6.727 -2.7419 -0.9968  3.6611
   91MOL    H53 7433   1.672   5.082   6.683 -1.4211  1.4577 -2.9896
   91MOL    C54 7434   1.397   4.907   6.641  0.0110 -0.2397  0.0859
   91MOL    O55 7435   1.283   4.966   6.688  0.3508  0.0770 -0.4065
   91MOL    H56 7436   1.424   4.837   6.719  1.4126 -1.7888 -1.7457
   91MOL    H57 7437   1.384   4.849   6.550  0.3395 -0.3545  0.1119
   91MOL    C58 7438   1.219   5.043   6.593  0.5164 -0.0490 -0.0611
   91MOL    O59 7439   1.141   4.960   6.513 -0.4352 -0.1769  0.1666
   91MOL    H60 7440   1.289   5.104   6.536 -1.0504  1.5211 -0.3722
   91MOL    H61 7441   1.145   5.106   6.643 -0.7899 -1.0486 -0.7310
   91MOL    C62 7442   1.078   4.858   6.584 -0.1969 -0.5139  0.4665
   91MOL    O63 7443   1.008   4.785   6.493 -0.6025  0.1945  0.1112
   91MOL    H64 7444   1.010   4.891   6.662 -0.3024 -0.8366  0.5085
   91MOL    H65 7445   1.149   4.789   6.630  1.3752  1.2882  0.8351
   91MOL    C66 7446   1.089   4.710   6.411  0.1041 -1.2120  0.7196
   91MOL    O67 7447   1.117   4.588   6.473 -0.2278 -0.3724  0.6581
   91MOL    H68 7448   1.181   4.757   6.377 -1.4403  0.6628 -0.9142
   91MOL    H69 7449   1.031   4.697   6.320 -2.5614 -0.3353  2.2418
   91MOL    C70 7450   1.249   4.543   6.453 -0.0958 -0.7022  0.7159
   91MOL    O71 7451   1.268   4.504   6.316 -0.9884 -0.0873  0.1869
   91MOL    H72 7452   1.279   4.457   6.512 -1.8488 -1.2620  0.8117
   91MOL    H73 7453   1.318   4.624   6.478 -1.0598  0.2250  0.4293
   91MOL    C74 7454   1.224   4.379   6.294 -0.2886  0.5608 -0.0831
   91MOL    O75 7455   1.323   4.280   6.325 -0.2763  0.1103 -0.1622
   91MOL    H76 7456   1.202   4.361   6.189 -0.4420  2.1566 -0.3365
   91MOL    H77 7457   1.131   4.351   6.343  0.8709 -3.5361 -0.0729
   91MOL    C78 7458   1.434   4.296   6.247  0.2114 -0.2970 -0.3940
   91MOL    O79 7459   1.529   4.202   6.277 -0.3811  0.2853 -0.2649
   91MOL    H80 7460   1.478   4.393   6.270 -0.4118  0.5529 -2.6992
   91MOL    H81 7461   1.424   4.291   6.139  1.5559  1.1240 -0.6067
   91MOL    H82 7462   1.558   4.215   6.366  1.7486 -0.6242 -0.8069
   92MOL     C1 7463   0.558   5.220   7.550  0.6673  0.3669 -0.0508
   92MOL     O2 7464   0.603   5.103   7.613  0.1287  0.1674 -0.2759
   92MOL     H3 7465   0.610   5.298   7.605  1.7853 -0.4486  0.0736
   92MOL     H4 7466   0.581   5.251   7.448  0.6059  1.0676  0.1478
   92MOL     H5 7467   0.450   5.228   7.560  0.6894  0.5063  0.0650
   92MOL     C6 7468   0.537   4.994   7.558  0.4089  0.2021 -0.3044
   92MOL     O7 7469   0.405   4.968   7.600  0.1710 -0.5656  0.0351
   92MOL     H8 7470   0.604   4.908   7.562  1.5134  1.0511 -0.2339
   92MOL     H9 7471   0.525   5.002   7.450 -1.9642 -0.8196 -0.1258
   92MOL    C10 7472   0.399   4.921   7.731  0.1885  0.4809  0.8460
   92MOL    O11 7473   0.489   4.808   7.756  0.7540 -0.3673 -0.1274
   92MOL    H12 7474   0.294   4.900   7.754 -0.0465  2.2649  1.4984
   92MOL    H13 7475   0.430   5.005   0.010  1.7351  0.5812 -0.0353
   92MOL    C14 7476   0.430   4.687   7.718  0.4315 -0.0941 -0.1974
   92MOL    O15 7477   0.533   4.598   7.702  0.3327  0.1080 -0.0721
   92MOL    H16 7478   0.382   4.681   7.620  1.2527 -0.9136 -0.5529
   92MOL    H17 7479   0.351   4.668   0.007 -0.3093  1.9153 -0.4478
   92MOL    C18 7480   0.584   4.543   0.042 -0.3080 -0.2638 -0.2335
   92MOL    O19 7481   0.494   4.460   0.116 -0.3723  0.1548 -0.8100
   92MOL    H20 7482   0.626   4.622   0.105  0.0929 -1.5078  1.0655
   92MOL    H21 7483   0.668   4.482   0.010 -0.8115  0.1188 -2.3850
   92MOL    C22 7484   0.497   4.324   0.080  0.1975 -0.0678  0.1357
   92MOL    O23 7485   0.612   4.257   0.127 -0.0641  0.0761  0.3602
   92MOL    H24 7486   0.479   4.309   7.757  0.3833  1.6444 -0.1563
   92MOL    H25 7487   0.417   4.272   0.132 -1.0787  0.3029 -1.4115
   92MOL    C26 7488   0.631   4.269   0.271 -0.0945  0.1363 -0.2212
   92MOL    O27 7489   0.613   4.143   0.338  0.0238 -0.0938 -0.5319
   92MOL    H28 7490   0.556   4.335   0.315 -0.0602  0.0855 -0.0850
   92MOL    H29 7491   0.730   4.313   0.280 -0.9226  3.4526 -5.3703
   92MOL    C30 7492   0.726   4.068   0.336  0.0773 -0.0686  0.1444
   92MOL    O31 7493   0.837   4.117   0.415 -0.8835  0.1400  0.4191
   92MOL    H32 7494   0.752   4.042   0.233  1.6257  1.2109  0.1931
   92MOL    H33 7495   0.700   3.971   0.379  2.5290  0.1751  2.2976
   92MOL    C34 7496   0.813   4.114   0.552  0.5282  0.2590  0.5604
   92MOL    O35 7497   0.786   3.986   0.604  0.1063  0.0860  0.1450
   92MOL    H36 7498   0.731   4.181   0.579 -0.9078  0.0430 -3.0251
   92MOL    H37 7499   0.907   4.153   0.589  0.7520 -0.5600  0.8694
   92MOL    C38 7500   0.897   3.905   0.591  0.2492  0.3094 -0.2733
   92MOL    O39 7501   1.007   3.953   0.664 -0.5203 -0.2943  0.0739
   92MOL    H40 7502   0.928   3.894   0.487 -1.8108 -1.4925 -0.7369
   92MOL    H41 7503   0.876   3.803   0.625 -1.5586  1.5886  2.6293
   92MOL    C42 7504   1.122   3.885   0.625  0.1283 -0.7051  0.6750
   92MOL    O43 7505   1.141   3.782   0.718 -0.4180 -0.3587  0.1921
   92MOL    H44 7506   1.213   3.946   0.631  0.4393 -1.2245  1.3415
   92MOL    H45 7507   1.127   3.834   0.529  1.0650  0.7215 -0.0544
   92MOL    C46 7508   1.197   3.824   0.838  0.9337  0.3039  0.1118
   92MOL    O47 7509   1.333   3.818   0.827  0.3397  0.2699 -0.1723
   92MOL    H48 7510   1.147   3.767   0.916  0.2930  1.5151  0.6128
   92MOL    H49 7511   1.173   3.926   0.871 -2.0175 -0.8505  1.7514
   92MOL    C50 7512   1.384   3.699   0.834  0.1820 -0.3772 -0.1663
   92MOL    O51 7513   1.525   3.702   0.862 -0.2145  0.3571  0.5621
   92MOL    H52 7514   1.363   3.641   0.744 -0.8532 -0.7942  0.3350
   92MOL    H53 7515   1.344   3.645   0.920 -0.0983  1.6181  0.9752
   92MOL    C54 7516   1.561   3.752   0.988  1.3481 -0.3714 -0.0941
   92MOL    O55 7517   1.546   3.648   1.081  0.2534  0.0288 -0.2666
   92MOL    H56 7518   1.498   3.836   1.017 -0.6468 -1.7288 -0.4169
   92MOL    H57 7519   1.660   3.798   0.986  1.8075 -1.3401  0.2325
   92MOL    C58 7520   1.650   3.549   1.064  0.6758  0.2272 -0.5193
   92MOL    O59 7521   1.784   3.593   1.080 -0.1266 -0.3845  0.5882
   92MOL    H60 7522   1.641   3.503   0.965  1.2243 -3.8957  1.2505
   92MOL    H61 7523   1.613   3.464   1.121 -1.2755  0.9496 -0.6540
   92MOL    C62 7524   1.874   3.491   1.116  0.0090 -0.2982 -0.4353
   92MOL    O63 7525   1.841   3.441   1.239  0.2648  0.1067 -0.2557
   92MOL    H64 7526   1.972   3.540   1.117 -1.7739  3.3959  1.0125
   92MOL    H65 7527   1.886   3.417   1.036  1.6875 -0.0142 -0.4778
   92MOL    C66 7528   1.907   3.509   1.342 -0.2743 -0.3105  0.3589
   92MOL    O67 7529   2.049   3.500   1.340  0.1997 -0.5263  0.2573
   92MOL    H68 7530   1.874   3.465   1.435  0.1889 -0.6154  0.3806
   92MOL    H69 7531   1.868   3.610   1.355 -0.4944 -0.4146  0.4921
   92MOL    C70 7532   2.108   3.540   1.462 -0.0517  0.3188 -0.3817
   92MOL    O71 7533   2.075   3.666   1.500  0.7277 -0.6178 -0.4824
   92MOL    H72 7534   2.216   3.536   1.449 -0.1493  1.3465 -1.5669
   92MOL    H73 7535   2.072   3.478   1.544 -0.3360  1.8548  0.6866
   92MOL    C74 7536   2.150   3.763   1.430 -0.6304 -0.0427 -0.7981
   92MOL    O75 7537   2.116   3.890   1.475 -0.3500  0.1850 -0.0593
   92MOL    H76 7538   2.128   3.748   1.325  1.0260 -0.4090 -1.1005
   92MOL    H77 7539   2.255   3.745   1.454 -0.5107  0.4983 -0.9071
   92MOL    C78 7540   1.984   3.934   1.436 -0.3592  0.3151  0.4421
   92MOL    O79 7541   1.978   4.069   1.396 -0.9546 -0.1540  0.2543
   92MOL    H80 7542   1.910   3.921   1.514  0.1253  0.7076  0.9725
   92MOL    H81 7543   1.947   3.884   1.346 -3.4193  0.5300  1.5380
   92MOL    H82 7544   1.975   4.105   1.483 -0.6484 -0.7109  0.5000
   93MOL     C1 7545   7.542   5.068   0.104 -0.0304 -0.4958 -0.7721
   93MOL     O2 7546   7.423   5.078   0.186 -0.2794 -0.1227  0.2916
   93MOL     H3 7547   7.611   5.152   0.116 -0.4820 -0.4825  1.9066
   93MOL     H4 7548   7.603   4.981   0.128 -1.8606 -1.8108 -0.8474
   93MOL     H5 7549   7.524   5.060   7.780 -0.6328 -0.3125 -0.6833
   93MOL     C6 7550   7.458   5.087   0.322 -0.1451  0.6802 -0.1858
   93MOL     O7 7551   7.516   5.206   0.355  0.6098  0.5469  0.2061
   93MOL     H8 7552   7.522   5.004   0.350 -2.8711 -1.2160  0.6466
   93MOL     H9 7553   7.367   5.079   0.381  0.9919 -1.4615  1.3200
   93MOL    C10 7554   7.431   5.318   0.352  0.5850  0.5031  0.9318
   93MOL    O11 7555   7.340   5.313   0.460  0.2351  0.1641 -0.3169
   93MOL    H12 7556   7.389   5.323   0.251  1.6206  1.2309  0.5340
   93MOL    H13 7557   7.495   5.404   0.369  0.3691  0.8082  0.2488
   93MOL    C14 7558   7.238   5.409   0.452  0.4589  0.1948 -0.2228
   93MOL    O15 7559   7.156   5.409   0.332 -0.3966  0.4729 -0.2745
   93MOL    H16 7560   7.284   5.507   0.447 -0.7146  0.6843 -1.6002
   93MOL    H17 7561   7.182   5.391   0.544  0.2981 -2.1565 -0.7388
   93MOL    C18 7562   7.057   5.310   0.337 -0.3431 -0.1511  0.0032
   93MOL    O19 7563   6.933   5.366   0.364 -0.3987  0.0533  0.0848
   93MOL    H20 7564   7.075   5.232   0.411 -0.1230  0.6314  0.7802
   93MOL    H21 7565   7.060   5.252   0.244 -1.0063  0.8992 -0.6805
   93MOL    C22 7566   6.872   5.425   0.255 -0.6652  0.2133 -0.9268
   93MOL    O23 7567   6.766   5.347   0.211 -0.6871 -0.0005  0.0776
   93MOL    H24 7568   6.931   5.445   0.165  0.3554  3.0012  0.3135
   93MOL    H25 7569   6.838   5.523   0.290  0.4379  0.5970 -0.9101
   93MOL    C26 7570   6.665   5.320   0.304  0.1124 -0.1027  0.1313
   93MOL    O27 7571   6.630   5.440   0.359  0.3280 -0.0734  0.5883
   93MOL    H28 7572   6.690   5.250   0.383 -1.0258  0.0632  0.6525
   93MOL    H29 7573   6.581   5.272   0.253  2.1922 -1.6200 -1.9461
   93MOL    C30 7574   6.530   5.424   0.458 -0.0151  1.1887 -0.1524
   93MOL    O31 7575   6.412   5.393   0.392  0.0341  0.1302  0.2505
   93MOL    H32 7576   6.525   5.515   0.517 -1.3059  0.8475  0.2842
   93MOL    H33 7577   6.545   5.333   0.516 -2.2644  0.6657 -0.3285
   93MOL    C34 7578   6.348   5.509   0.352  0.3478 -0.2031  0.0075
   93MOL    O35 7579   6.287   5.564   0.465  0.6184  0.0308  0.1056
   93MOL    H36 7580   6.281   5.464   0.278 -0.4183  0.2053  0.4507
   93MOL    H37 7581   6.420   5.566   0.293  0.2941 -1.7430 -1.5979
   93MOL    C38 7582   6.164   5.505   0.496 -0.5623  0.0204 -0.1661
   93MOL    O39 7583   6.054   5.560   0.439  0.0851  0.4027  0.0864
   93MOL    H40 7584   6.162   5.518   0.604  0.7365  1.4202 -0.2993
   93MOL    H41 7585   6.149   5.397   0.485  1.1556 -0.2201 -0.3098
   93MOL    C42 7586   5.933   5.492   0.470  0.8421  0.5064  0.0817
   93MOL    O43 7587   5.918   5.373   0.395 -0.3859 -0.0408 -0.2221
   93MOL    H44 7588   5.853   5.563   0.448 -1.1182 -1.6586  0.1512
   93MOL    H45 7589   5.929   5.469   0.576  1.1494  0.8379  0.1687
   93MOL    C46 7590   5.871   5.396   0.266  0.5449  1.2159 -0.2847
   93MOL    O47 7591   5.740   5.369   0.260 -0.3410 -0.3358 -0.0049
   93MOL    H48 7592   5.916   5.307   0.222 -1.8195 -0.8074  1.2873
   93MOL    H49 7593   5.916   5.483   0.218  3.2806 -0.9587 -1.8898
   93MOL    C50 7594   5.708   5.343   0.125 -0.2731  0.1514 -0.0699
   93MOL    O51 7595   5.716   5.461   0.050  0.3909  0.2011 -0.5273
   93MOL    H52 7596   5.604   5.312   0.128 -0.5908  1.1097 -0.7665
   93MOL    H53 7597   5.768   5.260   0.090  0.1186 -0.1428  1.2608
   93MOL    C54 7598   5.664   5.441   7.710  0.5746 -0.6318  0.5694
   93MOL    O55 7599   5.750   5.367   7.629  0.5326 -0.4030 -0.4640
   93MOL    H56 7600   5.651   5.536   7.658  2.2742 -0.9475 -0.4538
   93MOL    H57 7601   5.568   5.391   7.698  0.0442  0.2583  1.0362
   93MOL    C58 7602   5.864   5.436   7.610 -1.4375 -0.4762  0.0243
   93MOL    O59 7603   5.846   5.564   7.550  0.3830 -0.1056 -0.2088
   93MOL    H60 7604   5.930   5.384   7.540  1.3354  2.0304  0.7007
   93MOL    H61 7605   5.911   5.451   7.707 -1.1329 -2.6892  0.2389
   93MOL    C62 7606   5.966   5.627   7.512 -0.1829 -0.6482 -0.7634
   93MOL    O63 7607   6.036   5.561   7.409 -0.2152 -0.1968 -0.3632
   93MOL    H64 7608   6.035   5.636   7.595 -1.2351  2.0254 -0.0904
   93MOL    H65 7609   5.931   5.727   7.485 -0.9055 -0.8394 -0.5715
   93MOL    C66 7610   5.984   5.588   7.276 -0.2043  0.2795 -0.9200
   93MOL    O67 7611   5.995   5.718   7.248  0.0783  0.5016  0.8429
   93MOL    H68 7612   5.876   5.575   7.273  0.1249 -2.7636 -1.5919
   93MOL    H69 7613   6.034   5.523   7.204 -0.3156  1.5759 -2.1722
   93MOL    C70 7614   6.124   5.750   7.191  0.1671 -0.3887  0.8293
   93MOL    O71 7615   6.110   5.735   7.055 -0.0502  0.3698  0.2324
   93MOL    H72 7616   6.204   5.684   7.225  0.8282 -0.4467 -0.8088
   93MOL    H73 7617   6.145   5.853   7.218 -0.6108 -0.1162  0.3848
   93MOL    C74 7618   6.232   5.769   6.987  0.1067 -0.3620 -0.8074
   93MOL    O75 7619   6.244   5.906   6.970  1.2685 -0.4096  0.1245
   93MOL    H76 7620   6.232   5.707   6.897  1.8580 -1.8334  0.1903
   93MOL    H77 7621   6.312   5.732   7.050  0.9841  3.3072  0.3368
   93MOL    C78 7622   6.188   5.947   6.853 -0.3662  0.7846 -0.6665
   93MOL    O79 7623   6.167   6.085   6.841  0.0927  0.6140  0.4539
   93MOL    H80 7624   6.086   5.910   6.848 -0.2683  0.2318  1.3470
   93MOL    H81 7625   6.240   5.911   6.763  1.9432 -0.7075  1.2033
   93MOL    H82 7626   6.122   6.109   6.921  0.1070 -2.5280  1.4947
   94MOL     C1 7627   5.583   2.095   3.677 -0.9922  0.0259 -0.3616
   94MOL     O2 7628   5.668   1.991   3.720 -0.3756 -0.1936 -0.3064
   94MOL     H3 7629   5.576   2.170   3.756 -0.4695  0.2484 -0.5197
   94MOL     H4 7630   5.628   2.151   3.595 -1.4911 -0.8421 -1.2352
   94MOL     H5 7631   5.483   2.068   3.645 -1.1933 -2.3480  2.0740
   94MOL     C6 7632   5.798   2.026   3.756 -0.0197  0.1295 -0.6946
   94MOL     O7 7633   5.877   2.069   3.650 -0.3866 -0.1573 -0.7078
   94MOL     H8 7634   5.837   1.945   3.818 -0.1278 -1.3726 -2.5608
   94MOL     H9 7635   5.784   2.111   3.824 -4.3609 -0.5116 -0.6316
   94MOL    C10 7636   5.914   1.971   3.563  0.2517 -0.3319 -0.0226
   94MOL    O11 7637   6.010   1.884   3.624  0.0166  0.3354 -0.2872
   94MOL    H12 7638   5.951   2.031   3.480  3.9943 -1.0414  1.0689
   94MOL    H13 7639   5.818   1.925   3.539  0.4275 -0.5191 -0.3639
   94MOL    C14 7640   6.139   1.945   3.645 -0.7060  0.8001 -0.0418
   94MOL    O15 7641   6.205   1.986   3.527 -0.1120 -0.0374  0.0005
   94MOL    H16 7642   6.209   1.884   3.702 -0.5168  1.3267  0.2932
   94MOL    H17 7643   6.129   2.028   3.715 -0.7379 -0.2454  1.2143
   94MOL    C18 7644   6.246   1.880   3.447 -0.0394 -0.0292  0.2890
   94MOL    O19 7645   6.352   1.808   3.509 -0.1745  0.7156  0.2831
   94MOL    H20 7646   6.274   1.912   3.346 -3.2024  1.6938 -0.1065
   94MOL    H21 7647   6.160   1.817   3.424 -1.1835  0.5940  2.6535
   94MOL    C22 7648   6.470   1.881   3.528 -0.0856 -0.4080 -0.1676
   94MOL    O23 7649   6.530   1.928   3.409  0.4505  0.1152 -0.4089
   94MOL    H24 7650   6.536   1.810   3.577  1.5919  0.2689 -1.4041
   94MOL    H25 7651   6.449   1.970   3.588  1.1349  0.4490 -0.9902
   94MOL    C26 7652   6.600   1.828   3.347  0.1249 -0.1287 -0.6034
   94MOL    O27 7653   6.731   1.825   3.397  0.3706  0.4393 -0.6705
   94MOL    H28 7654   6.605   1.855   3.242  2.1103  1.3952 -0.1558
   94MOL    H29 7655   6.553   1.731   3.363 -0.5484  0.1858 -0.6620
   94MOL    C30 7656   6.804   1.715   3.382 -0.4050  0.0573  0.2816
   94MOL    O31 7657   6.748   1.607   3.441 -0.0656 -0.4354  0.6391
   94MOL    H32 7658   6.900   1.745   3.424 -0.9476  2.0322  0.1824
   94MOL    H33 7659   6.830   1.704   3.277  0.5846 -1.8572  0.6962
   94MOL    C34 7660   6.749   1.611   3.580  0.5918  0.4615 -0.7224
   94MOL    O35 7661   6.861   1.557   3.624  0.2046 -0.2830  0.3350
   94MOL    H36 7662   6.665   1.552   3.617  1.8355 -0.0211  1.4715
   94MOL    H37 7663   6.727   1.708   3.624 -1.5143 -0.3000 -0.0366
   94MOL    C38 7664   6.881   1.424   3.592  0.4046  0.2839  0.3440
   94MOL    O39 7665   6.798   1.346   3.678 -0.5040  0.0490  0.2682
   94MOL    H40 7666   6.984   1.391   3.602  0.6162  0.0316 -2.4765
   94MOL    H41 7667   6.851   1.391   3.493  2.6523 -2.1798  0.4407
   94MOL    C42 7668   6.859   1.328   3.798 -0.8748  0.6807  0.5122
   94MOL    O43 7669   6.961   1.235   3.793  0.5953  0.7054 -0.2881
   94MOL    H44 7670   6.791   1.302   3.879 -0.4904  1.5515  1.1250
   94MOL    H45 7671   6.901   1.425   3.827 -1.6711  1.6700 -1.5704
   94MOL    C46 7672   6.918   1.107   3.767 -0.0344  0.2439  0.3944
   94MOL    O47 7673   6.866   1.033   3.880  0.8924 -0.2374  0.0470
   94MOL    H48 7674   7.008   1.058   3.731 -0.8838  0.0552 -1.5691
   94MOL    H49 7675   6.843   1.101   3.688  2.2143  1.8168 -1.9414
   94MOL    C50 7676   6.959   1.029   3.988  0.1304  0.7365  0.6636
   94MOL    O51 7677   6.956   0.904   4.049  0.4831  0.1251  0.3092
   94MOL    H52 7678   6.945   1.101   4.069  1.4325  1.9676 -0.1736
   94MOL    H53 7679   7.060   1.039   3.948  0.4291 -1.1968  0.8990
   94MOL    C54 7680   6.838   0.876   4.116 -0.4085 -0.1792  0.0001
   94MOL    O55 7681   6.813   0.740   4.115  0.3169  0.0024  0.6743
   94MOL    H56 7682   6.755   0.922   4.063 -0.2382 -1.0524 -1.0416
   94MOL    H57 7683   6.849   0.925   4.214  3.5506  0.7237 -0.8113
   94MOL    C58 7684   6.918   0.668   4.179 -0.5766 -1.0565 -0.0086
   94MOL    O59 7685   6.884   0.536   4.202 -0.1474  0.6582 -0.5811
   94MOL    H60 7686   6.932   0.716   4.276 -0.2855  1.2931 -1.1931
   94MOL    H61 7687   7.015   0.667   4.129 -0.6677  0.3840 -0.2092
   94MOL    C62 7688   6.897   0.450   4.089  0.5126 -0.5048  0.2634
   94MOL    O63 7689   7.030   0.430   4.050 -0.0514 -0.1606 -0.5551
   94MOL    H64 7690   6.842   0.505   4.012  3.8583  0.0948 -1.8051
   94MOL    H65 7691   6.843   0.357   4.110  1.9120 -1.3349  0.1996
   94MOL    C66 7692   7.088   0.331   4.126 -0.1927  0.1878 -0.6696
   94MOL    O67 7693   7.219   0.296   4.088  0.2640 -0.0792  0.1692
   94MOL    H68 7694   7.026   0.241   4.122 -0.8340  0.6491 -1.0979
   94MOL    H69 7695   7.095   0.376   4.225  1.9711 -1.8428  0.1646
   94MOL    C70 7696   7.218   0.178   4.008  0.5578 -0.3458 -0.1546
   94MOL    O71 7697   7.342   0.112   3.996 -0.3347 -0.0354  0.7942
   94MOL    H72 7698   7.171   0.188   3.909 -0.2168 -1.9964  0.0145
   94MOL    H73 7699   7.151   0.108   4.058  1.0443 -0.8820 -0.2469
   94MOL    C74 7700   7.415   0.173   3.896 -0.2196 -0.5235 -0.2789
   94MOL    O75 7701   7.377   0.131   3.769 -0.3143  0.2296  0.4054
   94MOL    H76 7702   7.521   0.152   3.909 -0.4889 -1.9659 -0.3382
   94MOL    H77 7703   7.410   0.281   3.905 -0.2420 -0.7282  2.4608
   94MOL    C78 7704   7.388   7.778   3.751  0.0793  0.2389  0.3227
   94MOL    O79 7705   7.342   7.749   3.621  0.1556  0.2017 -0.0569
   94MOL    H80 7706   7.323   7.734   3.826  0.8835  1.1125  1.5484
   94MOL    H81 7707   7.489   7.739   3.762 -0.0939 -0.4746 -0.5120
   94MOL    H82 7708   7.403   7.766   3.550  1.1397 -2.2333  0.1604
   95MOL     C1 7709   4.081   7.366   5.905 -0.8500  0.1622  0.4131
   95MOL     O2 7710   3.960   7.283   5.910 -0.2163  0.1272  0.3892
   95MOL     H3 7711   4.057   7.472   5.894  0.6156  0.2630 -2.1669
   95MOL     H4 7712   4.154   7.350   5.984  2.5650  1.5300 -2.3130
   95MOL     H5 7713   4.136   7.339   5.814 -1.3120 -0.0835  0.2033
   95MOL     C6 7714   3.980   7.162   5.984  0.1117 -0.6569  0.7457
   95MOL     O7 7715   3.853   7.109   6.008  0.1717 -0.1182 -0.4278
   95MOL     H8 7716   4.032   7.192   6.074  2.3904  1.3076 -1.1439
   95MOL     H9 7717   4.041   7.097   5.920  2.4411  3.0607 -0.9985
   95MOL    C10 7718   3.799   7.058   5.892  0.3289  0.6839  0.4399
   95MOL    O11 7719   3.853   6.933   5.865  0.2126 -0.0576 -0.1316
   95MOL    H12 7720   3.818   7.111   5.798 -1.6945  2.8857  1.2255
   95MOL    H13 7721   3.691   7.046   5.895  0.4737 -0.7442  0.4994
   95MOL    C14 7722   3.803   6.827   5.943  1.0209  0.4090 -0.5529
   95MOL    O15 7723   3.667   6.796   5.907  0.0364 -0.0447  0.0586
   95MOL    H16 7724   3.814   6.856   6.048 -0.2785  1.2060 -0.6302
   95MOL    H17 7725   3.860   6.735   5.931  0.1796 -0.1358 -0.3857
   95MOL    C18 7726   3.654   6.708   5.794 -0.5573  0.0318  0.3200
   95MOL    O19 7727   3.666   6.573   5.838  0.2481 -0.0775 -0.4810
   95MOL    H20 7728   3.714   6.731   5.706 -2.6907  0.1007 -1.1418
   95MOL    H21 7729   3.550   6.725   5.769 -0.8123  0.2076  1.4615
   95MOL    C22 7730   3.546   6.511   5.884 -0.1295  0.0067 -0.4083
   95MOL    O23 7731   3.464   6.480   5.786 -0.4342 -0.9576  0.2824
   95MOL    H24 7732   3.497   6.573   5.959 -1.5135 -0.2585 -1.0932
   95MOL    H25 7733   3.556   6.419   5.943 -0.2257  1.0912  1.3445
   95MOL    C26 7734   3.487   6.352   5.732  0.0867 -0.0053 -0.1642
   95MOL    O27 7735   3.447   6.248   5.816  0.0883 -0.3401 -0.0445
   95MOL    H28 7736   3.593   6.332   5.720  0.5570  2.1365  0.1333
   95MOL    H29 7737   3.444   6.354   5.631  1.1116  0.2786 -0.5995
   95MOL    C30 7738   3.318   6.215   5.798  0.2539  0.4849  0.9103
   95MOL    O31 7739   3.299   6.149   5.676  0.7617  0.0691 -0.4637
   95MOL    H32 7740   3.255   6.304   5.801 -2.3152 -1.1397 -1.5023
   95MOL    H33 7741   3.282   6.149   5.877  1.8011 -0.7674  0.5981
   95MOL    C34 7742   3.377   6.032   5.668  0.3104  0.1815 -0.1411
   95MOL    O35 7743   3.301   5.935   5.728 -0.1694 -0.2556 -0.1292
   95MOL    H36 7744   3.470   6.037   5.726  1.3168  1.8351 -1.8449
   95MOL    H37 7745   3.408   6.012   5.566 -0.3766 -1.6354 -0.0189
   95MOL    C38 7746   3.200   5.895   5.638 -0.3595  0.4389 -0.4859
   95MOL    O39 7747   3.238   5.784   5.563 -0.3204 -0.2014  0.3726
   95MOL    H40 7748   3.181   5.969   5.560  0.7011  0.8123 -0.3946
   95MOL    H41 7749   3.112   5.861   5.693 -2.0437  0.8988 -2.7875
   95MOL    C42 7750   3.279   5.677   5.649 -0.3277  0.2060  0.1218
   95MOL    O43 7751   3.274   5.558   5.577 -0.4935  0.0469  0.4717
   95MOL    H44 7752   3.215   5.671   5.737 -1.8713 -0.8965 -1.0414
   95MOL    H45 7753   3.379   5.702   5.683  1.1833 -2.2979 -2.3492
   95MOL    C46 7754   3.147   5.529   5.526 -0.0214  0.1175  0.6820
   95MOL    O47 7755   3.149   5.417   5.440  0.0060  0.0978 -0.3971
   95MOL    H48 7756   3.100   5.613   5.475  0.0679  0.2494  0.8183
   95MOL    H49 7757   3.070   5.508   5.600 -0.7895 -1.2905 -0.4762
   95MOL    C50 7758   3.224   5.446   5.324  0.1462 -0.4939  0.5062
   95MOL    O51 7759   3.151   5.541   5.250 -0.1480  0.8241  0.1717
   95MOL    H52 7760   3.235   5.349   5.276  0.9761 -1.4525  2.5795
   95MOL    H53 7761   3.321   5.489   5.350 -0.0946  0.0583  0.5054
   95MOL    C54 7762   3.189   5.545   5.114  0.1497  0.0879 -0.5945
   95MOL    O55 7763   3.326   5.547   5.090  0.3914 -0.3764 -0.3894
   95MOL    H56 7764   3.123   5.617   5.065 -0.0537  0.2595 -0.0628
   95MOL    H57 7765   3.156   5.450   5.070 -0.1934 -0.7465  1.4286
   95MOL    C58 7766   3.373   5.678   5.091  0.2395 -0.2189 -0.3279
   95MOL    O59 7767   3.340   5.736   4.968 -0.3110 -0.6282  0.5514
   95MOL    H60 7768   3.481   5.669   5.096  0.4460  0.3998 -2.9071
   95MOL    H61 7769   3.327   5.724   5.179  2.5392 -0.1048  0.8512
   95MOL    C62 7770   3.389   5.868   4.965 -0.0109  0.0776  0.0346
   95MOL    O63 7771   3.319   5.954   5.055 -0.1577  1.2388  0.3714
   95MOL    H64 7772   3.392   5.914   4.867  0.0817 -1.9877 -0.9533
   95MOL    H65 7773   3.495   5.872   4.988  0.4628 -1.5250 -1.7592
   95MOL    C66 7774   3.185   5.975   5.027 -0.1411 -0.2544 -0.3684
   95MOL    O67 7775   3.139   6.078   5.115 -0.1708  0.6968 -0.1697
   95MOL    H68 7776   3.124   5.885   5.037 -0.0674 -0.3147 -0.4644
   95MOL    H69 7777   3.160   6.013   4.928 -2.3009 -1.9857 -0.5186
   95MOL    C70 7778   3.126   6.033   5.249 -0.2098 -0.1294  0.3179
   95MOL    O71 7779   3.146   6.126   5.351 -0.1421 -0.4810  0.1543
   95MOL    H72 7780   3.217   5.974   5.264 -0.6394 -0.7442  0.5304
   95MOL    H73 7781   3.027   5.988   5.254 -0.4727  0.3331 -0.7602
   95MOL    C74 7782   3.051   6.235   5.340  0.1835  0.2982  0.3197
   95MOL    O75 7783   3.065   6.340   5.434  0.2120  0.6300  0.2442
   95MOL    H76 7784   2.950   6.195   5.351 -0.0573  0.3563 -1.5758
   95MOL    H77 7785   3.079   6.294   5.253  0.8572 -2.1297 -1.1600
   95MOL    C78 7786   3.191   6.391   5.445  0.0233 -0.1325  0.5310
   95MOL    O79 7787   3.186   6.466   5.563 -0.4238 -0.1884 -0.3659
   95MOL    H80 7788   3.214   6.451   5.357  0.0540  0.8017  1.1766
   95MOL    H81 7789   3.266   6.313   5.460 -0.7535 -1.3521 -1.7189
   95MOL    H82 7790   3.188   6.559   5.545 -1.4624 -0.2660 -0.9169
   96MOL     C1 7791   0.755   4.962   0.073  0.9599  0.3891  0.1002
   96MOL     O2 7792   0.866   4.916   0.151 -0.2260 -0.4546  0.6251
   96MOL     H3 7793   0.774   4.924   7.756 -0.3363 -1.8179  0.6608
   96MOL     H4 7794   0.670   4.907   0.114  1.7975 -1.4579 -0.5744
   96MOL     H5 7795   0.732   5.069   0.072 -0.0666  0.1622 -1.8740
   96MOL     C6 7796   0.857   4.784   0.198  0.3001 -0.3731 -0.3532
   96MOL     O7 7797   0.768   4.766   0.300 -0.1368 -0.7503  0.6466
   96MOL     H8 7798   0.954   4.749   0.234 -1.4156 -1.4702  3.4733
   96MOL     H9 7799   0.831   4.724   0.111 -3.3172 -1.3114  1.2895
   96MOL    C10 7800   0.809   4.812   0.422  0.2683  0.6173  0.3530
   96MOL    O11 7801   0.910   4.736   0.474  0.0397  0.2940 -0.3924
   96MOL    H12 7802   0.720   4.814   0.485 -0.3090  2.2412 -0.4630
   96MOL    H13 7803   0.845   4.913   0.404 -1.8609  1.1123 -1.4608
   96MOL    C14 7804   0.868   4.609   0.507 -0.1784  0.3045 -0.2468
   96MOL    O15 7805   0.789   4.616   0.618  0.1303  0.4769 -0.2433
   96MOL    H16 7806   0.957   4.549   0.526  0.1043  1.3226  1.8076
   96MOL    H17 7807   0.825   4.558   0.421 -2.4371  0.6154  0.6529
   96MOL    C18 7808   0.720   4.498   0.644  0.0264  0.8023  0.1650
   96MOL    O19 7809   0.641   4.461   0.541 -0.2534 -0.0408 -0.5553
   96MOL    H20 7810   0.651   4.515   0.726 -1.0249  0.2347 -0.5933
   96MOL    H21 7811   0.787   4.413   0.655 -0.3260  0.2067 -1.9370
   96MOL    C22 7812   0.518   4.521   0.534  0.2698 -0.3439  0.3286
   96MOL    O23 7813   0.425   4.480   0.622 -0.0415 -0.1720 -0.1319
   96MOL    H24 7814   0.479   4.518   0.432 -0.2762 -3.6925  0.5854
   96MOL    H25 7815   0.541   4.623   0.566  0.0060  0.3388 -1.5539
   96MOL    C26 7816   0.300   4.541   0.598 -0.5088 -0.1670  0.0559
   96MOL    O27 7817   0.244   4.525   0.470 -0.2217  0.5344 -0.2937
   96MOL    H28 7818   0.308   4.648   0.618  0.3529 -0.4028  1.0322
   96MOL    H29 7819   0.224   4.512   0.670 -0.5923 -0.7931 -0.2852
   96MOL    C30 7820   0.213   4.389   0.436  0.0361  0.3244 -0.2000
   96MOL    O31 7821   0.131   4.395   0.327  0.3026  0.7409 -0.6288
   96MOL    H32 7822   0.172   4.331   0.519 -0.5884  0.0925 -0.6603
   96MOL    H33 7823   0.304   4.338   0.406 -0.9707 -1.0867 -0.9381
   96MOL    C34 7824   7.780   4.414   0.381  0.4085 -0.1824  0.3152
   96MOL    O35 7825   7.729   4.292   0.425  0.2467 -0.1050 -0.1644
   96MOL    H36 7826   7.724   4.458   0.299 -0.4813  0.5091  1.2763
   96MOL    H37 7827   7.769   4.486   0.463 -2.7260 -0.2945  0.0562
   96MOL    C38 7828   7.665   4.216   0.329  0.0368 -0.0198 -0.2444
   96MOL    O39 7829   7.543   4.280   0.307 -0.2025 -0.0867  0.4430
   96MOL    H40 7830   7.654   4.110   0.351  0.6236  0.0745  0.5178
   96MOL    H41 7831   7.713   4.232   0.233 -1.2192  1.7342 -0.6118
   96MOL    C42 7832   7.453   4.256   0.404 -0.2630  0.1771  0.4645
   96MOL    O43 7833   7.419   4.123   0.422  0.1786 -0.4481 -0.0587
   96MOL    H44 7834   7.364   4.318   0.405  0.8810  1.8827 -0.6177
   96MOL    H45 7835   7.496   4.290   0.498  0.8302 -0.0766  0.0636
   96MOL    C46 7836   7.320   4.074   0.326  0.2598  0.1145  0.5749
   96MOL    O47 7837   7.188   4.120   0.359  0.2093  0.3223 -0.4677
   96MOL    H48 7838   7.334   3.966   0.325 -0.3799  0.0343 -0.0925
   96MOL    H49 7839   7.354   4.103   0.227  1.0304 -1.7436  0.2615
   96MOL    C50 7840   7.144   4.080   0.489  0.2228  0.4168  0.3977
   96MOL    O51 7841   7.106   3.951   0.490  0.1902 -0.1158 -0.2476
   96MOL    H52 7842   7.065   4.143   0.530 -0.2581 -0.4986  0.8782
   96MOL    H53 7843   7.226   4.106   0.556  0.0307 -1.5527  1.4492
   96MOL    C54 7844   6.994   3.925   0.415  0.2621 -0.0435  0.3120
   96MOL    O55 7845   6.881   3.992   0.467 -0.4012  0.0884 -0.3053
   96MOL    H56 7846   6.972   3.819   0.410 -1.3341  0.2855  0.2365
   96MOL    H57 7847   7.001   3.967   0.314 -0.4348  1.5094  0.8878
   96MOL    C58 7848   6.816   3.913   0.565 -0.1283  0.0396 -0.4607
   96MOL    O59 7849   6.744   3.804   0.513 -1.0936 -0.2311  0.5252
   96MOL    H60 7850   6.742   3.976   0.614 -1.9894 -1.0351 -1.7796
   96MOL    H61 7851   6.888   3.892   0.644  0.7793  2.3756 -0.6322
   96MOL    C62 7852   6.633   3.838   0.435  0.4703 -0.6074 -1.1366
   96MOL    O63 7853   6.607   3.741   0.349 -0.2789 -0.1934 -0.1544
   96MOL    H64 7854   6.657   3.935   0.391  0.7647  0.9631  2.3023
   96MOL    H65 7855   6.553   3.862   0.505  0.2569  0.1265 -1.6240
   96MOL    C66 7856   6.690   3.735   0.241 -1.4039 -0.0460  0.9738
   96MOL    O67 7857   6.682   3.841   0.151 -0.3144 -1.0073  0.1721
   96MOL    H68 7858   6.673   3.644   0.184  3.1626 -1.6306  1.8985
   96MOL    H69 7859   6.796   3.726   0.267 -1.5569 -2.0920  0.9861
   96MOL    C70 7860   6.756   3.824   0.035 -0.5742  0.1283  0.3555
   96MOL    O71 7861   6.706   3.717   7.748 -0.0115  0.3077  0.1558
   96MOL    H72 7862   6.862   3.808   0.054  0.0458  3.5774  0.1742
   96MOL    H73 7863   6.756   3.916   7.759  1.5906 -0.6895 -0.9597
   96MOL    C74 7864   6.762   3.694   7.616  0.9471  0.6908  0.0125
   96MOL    O75 7865   6.877   3.618   7.627  0.9651  0.3455 -0.1102
   96MOL    H76 7866   6.783   3.788   7.565  1.0325  1.1409  0.8623
   96MOL    H77 7867   6.691   3.643   7.552 -1.1253  1.1219  1.9016
   96MOL    C78 7868   6.848   3.483   7.610  0.7246  0.0466 -0.0477
   96MOL    O79 7869   6.975   3.413   7.622  0.6779  0.3318  0.5209
   96MOL    H80 7870   6.808   3.469   7.510  0.7922 -1.5659  0.1406
   96MOL    H81 7871   6.769   3.443   7.674  2.8046 -0.7545  2.0644
   96MOL    H82 7872   6.998   3.390   7.533 -1.8572 -0.1864 -0.0496
   97MOL     C1 7873   2.094   1.807   7.242  0.1586  0.4866 -0.8455
   97MOL     O2 7874   1.970   1.826   7.303  0.2777 -0.0630 -0.7207
   97MOL     H3 7875   2.109   1.699   7.230 -0.5732  0.3173 -0.2649
   97MOL     H4 7876   2.085   1.848   7.142 -3.3469  2.7632  0.3045
   97MOL     H5 7877   2.178   1.847   7.299  2.1108 -2.6587 -1.3471
   97MOL     C6 7878   1.919   1.953   7.305  0.2141 -0.0425 -0.2860
   97MOL     O7 7879   1.881   1.997   7.173 -0.6889  0.5894 -0.0366
   97MOL     H8 7880   1.985   2.027   7.349 -0.7936  0.4945  0.3570
   97MOL     H9 7881   1.830   1.955   7.369  0.9633 -2.8569  0.9389
   97MOL    C10 7882   1.832   2.125   7.174  1.2299  0.1149 -1.0059
   97MOL    O11 7883   1.704   2.134   7.233  0.3399 -0.1516  0.1195
   97MOL    H12 7884   1.817   2.160   7.072  0.3771  0.0281 -0.9172
   97MOL    H13 7885   1.899   2.191   7.230  0.7825  0.1981 -0.5600
   97MOL    C14 7886   1.599   2.084   7.162  0.6401  1.0865 -0.2964
   97MOL    O15 7887   1.480   2.106   7.243  0.4067  0.3505 -0.2834
   97MOL    H16 7888   1.617   1.978   7.145 -0.4728  0.5619  1.6637
   97MOL    H17 7889   1.576   2.148   7.077  1.6856  1.9083  0.0334
   97MOL    C18 7890   1.463   2.004   7.337 -0.2425  0.3516 -0.7374
   97MOL    O19 7891   1.429   1.884   7.284  0.3527  0.2560  0.5476
   97MOL    H20 7892   1.395   2.014   7.422 -0.2740  0.4536 -0.7754
   97MOL    H21 7893   1.561   1.978   7.378 -1.8376  0.3438  3.2831
   97MOL    C22 7894   1.314   1.891   7.211  0.8491  0.1451 -0.3855
   97MOL    O23 7895   1.196   1.906   7.296  0.1722 -0.5507 -0.0870
   97MOL    H24 7896   1.305   1.804   7.146 -0.7345  0.1410 -0.1779
   97MOL    H25 7897   1.299   1.980   7.150 -2.3758 -0.0203  0.0933
   97MOL    C26 7898   1.157   1.782   7.351  0.1994  0.1295 -0.1472
   97MOL    O27 7899   1.096   1.696   7.260 -0.0293  0.1794 -0.2345
   97MOL    H28 7900   1.098   1.800   7.441 -0.2603  1.1489 -0.6440
   97MOL    H29 7901   1.245   1.730   7.389 -1.7078 -1.8649  1.6732
   97MOL    C30 7902   0.951   1.715   7.258 -0.5569  0.4231 -0.4244
   97MOL    O31 7903   0.894   1.686   7.377 -0.5447  0.5434  0.1968
   97MOL    H32 7904   0.917   1.654   7.175 -1.8618 -1.6213  1.5659
   97MOL    H33 7905   0.925   1.815   7.224 -1.5313  0.1760 -0.4120
   97MOL    C34 7906   0.896   1.545   7.403  0.0559 -0.4055  0.6117
   97MOL    O35 7907   0.794   1.478   7.337  0.5417  0.2478 -0.1127
   97MOL    H36 7908   0.883   1.520   7.508 -1.2053 -0.9188  0.3339
   97MOL    H37 7909   0.993   1.511   7.367  1.4973  1.6217  2.3707
   97MOL    C38 7910   0.665   1.489   7.396 -0.0258 -0.6979  0.4540
   97MOL    O39 7911   0.664   1.423   7.517  0.1334 -0.5322 -0.0684
   97MOL    H40 7912   0.587   1.454   7.328 -0.0780  0.2949 -0.0108
   97MOL    H41 7913   0.647   1.596   7.409  0.0498 -0.6907  0.5015
   97MOL    C42 7914   0.654   1.286   7.515 -0.3876 -0.3608  0.1681
   97MOL    O43 7915   0.537   1.241   7.458 -0.5307 -0.1464  0.0165
   97MOL    H44 7916   0.661   1.249   7.617 -1.0890 -0.2325  0.2692
   97MOL    H45 7917   0.744   1.246   7.468  0.6480  0.6808  1.2352
   97MOL    C46 7918   0.417   1.273   7.523  0.3850 -0.6404  0.2482
   97MOL    O47 7919   0.313   1.257   7.434  0.1166 -0.0781 -0.3478
   97MOL    H48 7920   0.418   1.374   7.564  1.8397 -0.2028 -0.8169
   97MOL    H49 7921   0.402   1.212   7.612 -0.1982 -1.7526 -0.6054
   97MOL    C50 7922   0.288   1.371   7.360 -0.9339 -0.1736 -0.3556
   97MOL    O51 7923   0.220   1.462   7.447  0.8399 -0.0655  0.0779
   97MOL    H52 7924   0.221   1.335   7.282  0.4140  1.0697 -2.1343
   97MOL    H53 7925   0.380   1.409   7.317 -0.3052 -0.0664  1.0528
   97MOL    C54 7926   0.082   1.456   7.441 -0.2553  0.0131 -0.3854
   97MOL    O55 7927   0.022   1.518   7.339  0.2349  0.3896 -0.1153
   97MOL    H56 7928   0.043   1.509   7.528 -3.5089 -3.2174  0.2924
   97MOL    H57 7929   0.046   1.353   7.439  2.4558 -0.9441 -0.7921
   97MOL    C58 7930   0.036   1.657   7.345 -0.0034  0.1639 -0.2816
   97MOL    O59 7931   7.728   1.719   7.435  0.8758  0.9792 -0.3567
   97MOL    H60 7932   0.026   1.700   7.245 -0.5150 -1.6945 -1.0466
   97MOL    H61 7933   0.135   1.674   7.386 -0.1324 -1.4982  0.7517
   97MOL    C62 7934   7.596   1.696   7.394 -0.0599  0.7298 -0.2330
   97MOL    O63 7935   7.563   1.777   7.296 -0.3752  0.1709  0.3363
   97MOL    H64 7936   7.528   1.713   7.478  0.7844  2.7043  0.0755
   97MOL    H65 7937   7.585   1.590   7.369 -2.2820  0.5335  1.4736
   97MOL    C66 7938   7.571   1.909   7.320  0.3378  0.0571  0.9018
   97MOL    O67 7939   7.478   1.944   7.426 -0.3569  0.4528 -0.4343
   97MOL    H68 7940   7.548   1.971   7.233 -1.6619 -2.4054 -0.3833
   97MOL    H69 7941   7.676   1.925   7.346  0.8314 -0.7254 -0.5224
   97MOL    C70 7942   7.476   2.085   7.447 -0.0250  0.2728 -0.5747
   97MOL    O71 7943   7.601   2.145   7.482  0.0719  0.5315 -0.4232
   97MOL    H72 7944   7.399   2.111   7.520  0.7163 -0.2563  0.4203
   97MOL    H73 7945   7.444   2.144   7.362 -1.5484  0.4552  0.1181
   97MOL    C74 7946   7.650   2.110   7.615  0.2031 -0.3448 -0.2842
   97MOL    O75 7947   7.587   2.190   7.705 -0.2606  0.2665 -0.0871
   97MOL    H76 7948   7.754   2.137   7.634  0.2827 -0.6095 -0.3484
   97MOL    H77 7949   7.646   2.003   7.634  1.6831 -0.4818 -0.7177
   97MOL    C78 7950   7.593   2.327   7.671 -0.5676 -0.6919  0.1399
   97MOL    O79 7951   7.505   2.400   7.754  0.1505 -0.2931 -0.5852
   97MOL    H80 7952   7.568   2.353   7.568  0.1968  0.4070  0.2122
   97MOL    H81 7953   7.697   2.360   7.684 -0.5938 -0.3328 -0.5627
   97MOL    H82 7954   7.540   2.406   0.058  0.1668 -2.2633 -0.4181
   98MOL     C1 7955   0.487   2.189   3.468 -0.2336  0.3541 -0.2330
   98MOL     O2 7956   0.542   2.166   3.339  0.4320  0.0752 -0.2087
   98MOL     H3 7957   0.379   2.203   3.455 -0.3500 -0.3994 -0.0695
   98MOL     H4 7958   0.506   2.115   3.545 -2.5657  0.7397  0.7671
   98MOL     H5 7959   0.529   2.281   3.508  2.2988 -1.3095  1.0719
   98MOL     C6 7960   0.679   2.170   3.333 -0.3797 -0.0853  0.1127
   98MOL     O7 7961   0.726   2.301   3.345  0.2003 -0.0796 -0.4487
   98MOL     H8 7962   0.697   2.125   3.236  1.4627  0.6415  0.1048
   98MOL     H9 7963   0.723   2.108   3.411 -0.3204 -1.4598 -0.9943
   98MOL    C10 7964   0.851   2.316   3.301 -0.1814 -0.8258 -0.1876
   98MOL    O11 7965   0.946   2.252   3.381  0.4065  0.1800 -0.5564
   98MOL    H12 7966   0.871   2.423   3.301  1.5168 -1.1225  0.0976
   98MOL    H13 7967   0.868   2.282   3.199 -0.5083  0.6623 -0.7442
   98MOL    C14 7968   1.074   2.236   3.317  0.2618 -0.5517  0.0319
   98MOL    O15 7969   1.079   2.122   3.237  0.3384 -0.2444  0.6669
   98MOL    H16 7970   1.143   2.231   3.401 -1.9207 -2.5894  1.7665
   98MOL    H17 7971   1.088   2.318   3.247  0.7241 -0.5201  0.1616
   98MOL    C18 7972   1.118   2.010   3.304  0.2255 -0.3080 -0.6746
   98MOL    O19 7973   1.251   1.987   3.296 -0.0950  0.4730  0.0784
   98MOL    H20 7974   1.076   1.914   3.275  3.3395 -0.7925 -3.9350
   98MOL    H21 7975   1.099   2.022   3.411 -1.0058 -0.7107 -0.8453
   98MOL    C22 7976   1.308   1.969   3.173  0.2403  0.0690  0.5728
   98MOL    O23 7977   1.289   1.835   3.138  0.4416  0.3297  0.3755
   98MOL    H24 7978   1.411   2.004   3.179  0.2109 -0.2674  4.1887
   98MOL    H25 7979   1.262   2.028   3.094  0.5963 -0.4060  0.0087
   98MOL    C26 7980   1.371   1.752   3.218 -0.0843 -0.3080 -0.2299
   98MOL    O27 7981   1.501   1.749   3.171  0.7716 -0.1738 -0.3826
   98MOL    H28 7982   1.328   1.652   3.221  0.8904 -0.7451 -0.6144
   98MOL    H29 7983   1.389   1.796   3.317 -0.6008 -0.7718  0.0702
   98MOL    C30 7984   1.512   1.651   3.074  1.3321 -0.1114  0.0718
   98MOL    O31 7985   1.546   1.524   3.127 -0.1668 -0.4028 -0.1824
   98MOL    H32 7986   1.588   1.698   3.012 -0.6251  0.6666 -1.7945
   98MOL    H33 7987   1.422   1.637   3.014  1.5864 -0.9412 -0.1203
   98MOL    C34 7988   1.656   1.541   3.208  0.3306 -0.0779  0.4191
   98MOL    O35 7989   1.709   1.411   3.238 -0.4704  0.3424  0.1798
   98MOL    H36 7990   1.615   1.586   3.299  1.4525 -0.1770  0.9848
   98MOL    H37 7991   1.735   1.600   3.160  1.5001 -2.9691 -1.3364
   98MOL    C38 7992   1.793   1.413   3.355 -0.0901  0.3336  0.2302
   98MOL    O39 7993   1.919   1.482   3.341 -0.0409  0.2762  0.1167
   98MOL    H40 7994   1.815   1.308   3.377  1.1931  0.4136 -0.6036
   98MOL    H41 7995   1.754   1.457   3.446  1.9483 -0.7436  1.6804
   98MOL    C42 7996   2.000   1.428   3.235  0.8420 -0.5677  0.6188
   98MOL    O43 7997   2.115   1.500   3.228 -0.4025  0.0786 -0.1397
   98MOL    H44 7998   1.948   1.415   3.140  1.4245 -0.2204  0.2518
   98MOL    H45 7999   2.028   1.330   3.274 -0.7598 -0.8504  1.1224
   98MOL    C46 8000   2.191   1.498   3.345  0.1889 -0.3052  0.1467
   98MOL    O47 8001   2.231   1.364   3.382 -0.4249  0.1722  0.0121
   98MOL    H48 8002   2.129   1.530   3.429  2.6950  2.0339  1.1890
   98MOL    H49 8003   2.278   1.562   3.331 -0.2512  0.2480 -0.1128
   98MOL    C50 8004   2.334   1.321   3.296  0.3571  0.4266 -0.6776
   98MOL    O51 8005   2.442   1.396   3.334  0.3678 -0.2088 -0.2598
   98MOL    H52 8006   2.306   1.327   3.191 -0.2364 -1.4059 -0.6434
   98MOL    H53 8007   2.356   1.215   3.307  1.2444  0.7226  0.5955
   98MOL    C54 8008   2.546   1.379   3.251 -0.1875  0.2483  0.4739
   98MOL    O55 8009   2.581   1.242   3.229  0.3646  0.4964  0.4384
   98MOL    H56 8010   2.638   1.431   3.279 -0.1419 -0.1128  1.0080
   98MOL    H57 8011   2.520   1.420   3.154  0.6996 -0.4772 -0.0774
   98MOL    C58 8012   2.636   1.181   3.338 -0.0939  0.2171 -0.0945
   98MOL    O59 8013   2.765   1.227   3.368  0.1427  0.6141  0.2624
   98MOL    H60 8014   2.649   1.075   3.319 -1.5329 -0.2880  1.5456
   98MOL    H61 8015   2.571   1.181   3.426  0.9549  0.2540  0.6820
   98MOL    C62 8016   2.844   1.220   3.251 -0.0833  0.1553  0.2269
   98MOL    O63 8017   2.976   1.218   3.282 -0.1673 -0.0024  0.3605
   98MOL    H64 8018   2.834   1.317   3.204 -2.2909 -0.2914 -0.3092
   98MOL    H65 8019   2.822   1.140   3.180 -0.7334  0.7671 -0.2698
   98MOL    C66 8020   3.022   1.096   3.324 -0.4096 -0.3283  0.3240
   98MOL    O67 8021   3.012   0.995   3.228 -0.3001  0.5358  0.5227
   98MOL    H68 8022   2.959   1.072   3.410  0.4116 -0.1963  0.9655
   98MOL    H69 8023   3.128   1.107   3.344  0.3961 -2.3201 -2.5571
   98MOL    C70 8024   3.099   1.025   3.118  0.0729  0.4511 -0.6141
   98MOL    O71 8025   3.077   0.941   3.009 -0.1138 -0.3305  0.3948
   98MOL    H72 8026   3.198   1.001   3.157 -0.6250 -0.2285  0.7757
   98MOL    H73 8027   3.093   1.133   3.104  1.4780  0.8204  1.4369
   98MOL    C74 8028   3.128   0.809   3.009 -0.4100  0.4469  0.4862
   98MOL    O75 8029   3.267   0.806   2.977  0.1764 -0.1664  0.1759
   98MOL    H76 8030   3.072   0.748   2.939 -3.0937  1.5628  1.6107
   98MOL    H77 8031   3.116   0.765   3.108  0.8501  1.0574  0.9326
   98MOL    C78 8032   3.298   0.864   2.851  0.1771  0.0129  0.4505
   98MOL    O79 8033   3.428   0.832   2.821 -0.0560 -0.4332  0.2065
   98MOL    H80 8034   3.296   0.973   2.846  1.0760  0.0625  1.0464
   98MOL    H81 8035   3.239   0.817   2.772 -3.0113 -0.1470  2.8625
   98MOL    H82 8036   3.471   0.872   2.895 -0.2058  0.2749 -0.0861
   99MOL     C1 8037   6.112   5.991   7.490 -0.0330  0.0847 -0.2726
   99MOL     O2 8038   6.185   5.995   7.615 -0.1638 -0.0347 -0.2424
   99MOL     H3 8039   6.024   5.927   7.499 -2.3507  3.2594  0.2558
   99MOL     H4 8040   6.070   6.088   7.466  2.7706  1.5177  0.3454
   99MOL     H5 8041   6.178   5.959   7.409  0.2332  0.0661 -0.0500
   99MOL     C6 8042   6.112   6.069   7.713  0.0030 -0.9937 -0.2922
   99MOL     O7 8043   6.117   6.204   7.688  0.3495 -0.4677 -0.4174
   99MOL     H8 8044   6.151   6.052   0.030  1.2242  1.3508 -0.3424
   99MOL     H9 8045   6.006   6.045   7.713  0.4444 -3.0414 -0.0438
   99MOL    C10 8046   6.223   6.265   7.747  0.3476 -0.0081 -0.5975
   99MOL    O11 8047   6.187   6.328   0.082 -0.1624 -0.3019 -0.1454
   99MOL    H12 8048   6.266   6.335   7.676 -0.3532  0.7271 -0.3078
   99MOL    H13 8049   6.304   6.193   7.756  0.1405 -0.5261 -2.6735
   99MOL    C14 8050   6.287   6.344   0.177 -0.1719  0.0411  0.1030
   99MOL    O15 8051   6.386   6.434   0.123 -0.2251  0.0917  0.5245
   99MOL    H16 8052   6.338   6.252   0.207  0.6124  1.2412  2.5361
   99MOL    H17 8053   6.246   6.401   0.260  2.0590 -0.7162  1.7909
   99MOL    C18 8054   6.339   6.562   0.094  0.7649  0.5151 -0.4391
   99MOL    O19 8055   6.345   6.641   0.213 -0.5116  0.4892 -0.0948
   99MOL    H20 8056   6.235   6.562   0.061  0.5180  0.9712  0.3451
   99MOL    H21 8057   6.405   6.606   0.020 -0.3656  0.6660 -1.3726
   99MOL    C22 8058   6.349   6.772   0.181 -0.6751  0.3324  0.1019
   99MOL    O23 8059   6.479   6.810   0.155  0.2435 -0.3453 -0.0938
   99MOL    H24 8060   6.304   6.826   0.265 -1.8341  0.8100 -0.8058
   99MOL    H25 8061   6.298   6.795   0.087  0.8141  0.9071 -0.5720
   99MOL    C26 8062   6.550   6.834   0.269 -0.7959 -0.0718 -0.7388
   99MOL    O27 8063   6.570   6.968   0.294 -0.4840  0.0654  0.1971
   99MOL    H28 8064   6.646   6.790   0.243 -0.5817 -0.1422  0.1414
   99MOL    H29 8065   6.524   6.781   0.361 -1.3505  1.9618  0.2910
   99MOL    C30 8066   6.685   7.002   0.371  0.1253 -0.5524  0.0600
   99MOL    O31 8067   6.664   6.969   0.500  0.2029 -0.5257  0.1215
   99MOL    H32 8068   6.705   7.109   0.370  0.6754 -0.6536  0.3406
   99MOL    H33 8069   6.771   6.962   0.319  0.9094 -1.0528  1.7116
   99MOL    C34 8070   6.550   7.016   0.550  0.0226 -0.1428  0.3361
   99MOL    O35 8071   6.543   6.982   0.684  0.1618  0.1396 -0.0497
   99MOL    H36 8072   6.460   6.974   0.506  1.0465 -4.8627  2.5267
   99MOL    H37 8073   6.555   7.125   0.544  0.3159 -0.1153  1.0600
   99MOL    C38 8074   6.534   6.849   0.709 -0.0311  0.1462 -0.3202
   99MOL    O39 8075   6.411   6.794   0.669 -0.1866  0.1623  0.3154
   99MOL    H40 8076   6.552   6.841   0.816  1.1811 -0.6953 -0.5784
   99MOL    H41 8077   6.615   6.796   0.659  0.7901 -0.9658  2.1042
   99MOL    C42 8078   6.310   6.814   0.762  0.2036 -0.2576  0.4358
   99MOL    O43 8079   6.186   6.792   0.716 -0.1003 -0.3141 -0.0678
   99MOL    H44 8080   6.300   6.921   0.783 -1.3972 -0.5548  1.2619
   99MOL    H45 8081   6.344   6.768   0.854  2.6685 -0.1803 -0.3835
   99MOL    C46 8082   6.173   6.667   0.668 -0.3002 -0.2317 -0.4159
   99MOL    O47 8083   6.043   6.649   0.620  0.0975  0.1819  0.3925
   99MOL    H48 8084   6.181   6.595   0.749 -1.2322 -1.1982 -1.1708
   99MOL    H49 8085   6.241   6.649   0.584 -1.6408  2.9628 -2.3116
   99MOL    C50 8086   6.023   6.712   0.498 -0.1373 -0.7302 -0.0874
   99MOL    O51 8087   6.051   6.631   0.387 -0.0260  0.4807  0.2046
   99MOL    H52 8088   6.088   6.798   0.483 -1.5906  0.0583 -2.0901
   99MOL    H53 8089   5.925   6.758   0.492  1.1809  2.0013 -2.0414
   99MOL    C54 8090   5.941   6.572   0.341  0.0892  0.2187  0.2861
   99MOL    O55 8091   5.875   6.648   0.243 -0.1018 -0.0656  0.4866
   99MOL    H56 8092   5.873   6.549   0.422 -0.1297 -1.9266 -0.5006
   99MOL    H57 8093   5.968   6.475   0.301 -0.2093  0.0559  0.4787
   99MOL    C58 8094   5.941   6.659   0.120 -0.3260 -0.6664 -0.3471
   99MOL    O59 8095   5.847   6.691   0.026  0.0610  0.2452  0.4921
   99MOL    H60 8096   5.985   6.562   0.096  0.7200 -0.4925  0.8605
   99MOL    H61 8097   6.021   6.732   0.119 -1.1624  0.2547 -2.4306
   99MOL    C62 8098   5.811   6.822   0.026  0.2306  0.1273 -0.2763
   99MOL    O63 8099   5.878   6.902   7.717 -0.4647 -0.4777  0.3898
   99MOL    H64 8100   5.820   6.857   0.128 -1.4544  0.7884 -0.3396
   99MOL    H65 8101   5.704   6.818   0.005  0.0210 -2.5410  1.1058
   99MOL    C66 8102   5.816   6.900   7.591  0.8188 -0.2439  0.6137
   99MOL    O67 8103   5.698   6.980   7.588 -0.1078  0.1971 -0.0784
   99MOL    H68 8104   5.790   6.797   7.566  0.4719 -0.4235  1.6910
   99MOL    H69 8105   5.885   6.939   7.516  0.3406  0.3098  0.4577
   99MOL    C70 8106   5.737   7.117   7.593 -0.2972  0.6113  0.3629
   99MOL    O71 8107   5.821   7.150   7.485 -0.0570  0.3156  0.2039
   99MOL    H72 8108   5.779   7.135   7.692 -1.4032  0.8092  0.8072
   99MOL    H73 8109   5.642   7.170   7.588 -1.0298 -0.8118 -1.3881
   99MOL    C74 8110   5.751   7.197   7.373  0.1701  0.3495 -0.2176
   99MOL    O75 8111   5.684   7.315   7.396 -0.1085  0.2762 -0.0632
   99MOL    H76 8112   5.684   7.115   7.348  0.2816  1.0619 -3.1015
   99MOL    H77 8113   5.823   7.202   7.290  1.3795  1.3552  0.8670
   99MOL    C78 8114   5.780   7.421   7.385 -0.1782  0.3908 -0.3953
   99MOL    O79 8115   5.737   7.540   7.448 -0.3516 -0.0213  0.1806
   99MOL    H80 8116   5.798   7.448   7.280 -0.6846  0.9586 -0.3377
   99MOL    H81 8117   5.870   7.396   7.442 -0.5019  0.9251  0.3538
   99MOL    H82 8118   5.754   7.545   7.541  1.2358 -0.8520 -0.0619
  100MOL     C1 8119   6.935   5.822   5.296  0.0480 -0.0623 -0.0504
  100MOL     O2 8120   6.965   5.681   5.299  0.0060  0.4574 -0.0185
  100MOL     H3 8121   7.010   5.897   5.322  0.1534  0.2946 -1.3059
  100MOL     H4 8122   6.902   5.850   5.196 -0.3978  0.8071  0.3395
  100MOL     H5 8123   6.848   5.850   5.355 -1.0432  0.2115 -1.7390
  100MOL     C6 8124   7.086   5.640   5.246  0.3991  0.2479  0.2009
  100MOL     O7 8125   7.110   5.679   5.114 -0.2607  0.4137 -1.1045
  100MOL     H8 8126   7.102   5.533   5.264 -1.4117  0.2204  1.8105
  100MOL     H9 8127   7.163   5.682   5.311  2.1358  0.0787 -1.6905
  100MOL    C10 8128   7.058   5.601   5.022 -0.4087  0.6288 -0.3977
  100MOL    O11 8129   7.115   5.472   5.032  0.1522  0.3545  0.4530
  100MOL    H12 8130   7.070   5.645   4.923  0.8537 -0.5266 -0.7832
  100MOL    H13 8131   6.955   5.590   5.057  0.2793  0.3106  1.5829
  100MOL    C14 8132   7.026   5.371   5.001 -0.2039  0.4023  0.5242
  100MOL    O15 8133   6.985   5.373   4.864 -0.3509  1.1745  0.2397
  100MOL    H16 8134   6.939   5.373   5.067  0.6050 -0.6519  1.6562
  100MOL    H17 8135   7.069   5.277   5.034  0.1608  0.2309 -0.4261
  100MOL    C18 8136   7.083   5.332   4.775 -0.4204 -0.7060 -0.0610
  100MOL    O19 8137   7.149   5.444   4.716  0.7119 -0.3653 -0.4198
  100MOL    H20 8138   7.017   5.284   4.703 -1.6059 -0.7528  1.0290
  100MOL    H21 8139   7.159   5.264   4.813 -0.4707 -0.8784 -0.2684
  100MOL    C22 8140   7.071   5.519   4.635 -0.1248  0.8871 -0.2793
  100MOL    O23 8141   7.028   5.451   4.521  0.5819 -0.5742  0.2449
  100MOL    H24 8142   7.117   5.616   4.616 -0.1078  1.0629  0.6370
  100MOL    H25 8143   6.984   5.556   4.688  0.9083  1.6108  0.9374
  100MOL    C26 8144   7.126   5.448   4.419 -0.4483  0.5700  0.4236
  100MOL    O27 8145   7.146   5.572   4.360 -0.4074 -0.0341 -0.3482
  100MOL    H28 8146   7.097   5.376   4.342  1.0141  1.0473 -0.6034
  100MOL    H29 8147   7.227   5.427   4.454 -1.3626 -0.5754  2.4301
  100MOL    C30 8148   7.038   5.617   4.291  0.3324 -0.0412 -0.0999
  100MOL    O31 8149   6.949   5.692   4.368  0.5804  0.3448  0.0612
  100MOL    H32 8150   6.980   5.535   4.248  0.1832  0.3026 -0.5604
  100MOL    H33 8151   7.061   5.675   4.201 -0.0363  3.8787  2.2142
  100MOL    C34 8152   7.018   5.805   4.420  0.4280  0.1780  0.0844
  100MOL    O35 8153   7.042   5.899   4.325  0.2278  0.0959 -0.2933
  100MOL    H36 8154   7.115   5.786   4.467  0.7670 -0.7731 -0.9904
  100MOL    H37 8155   6.953   5.849   4.496  0.6962  1.4482 -0.4084
  100MOL    C38 8156   6.926   5.947   4.258 -0.0308 -0.3339  0.1873
  100MOL    O39 8157   6.887   6.069   4.323 -0.0771  0.3951 -0.1062
  100MOL    H40 8158   6.849   5.870   4.250  0.2437 -0.5783 -0.1231
  100MOL    H41 8159   6.953   5.954   4.153 -3.5820 -0.0695 -0.7747
  100MOL    C42 8160   6.921   6.181   4.244 -0.2678  0.8889  0.1771
  100MOL    O43 8161   7.051   6.195   4.196  0.2874  0.1149 -0.3041
  100MOL    H44 8162   6.897   6.267   4.305  1.7944  2.6082 -1.3587
  100MOL    H45 8163   6.855   6.189   4.158  1.8033 -2.7650 -1.8874
  100MOL    C46 8164   7.137   6.235   4.304  0.4336  0.0602  0.1023
  100MOL    O47 8165   7.134   6.373   4.322  0.1773  0.2258 -0.5228
  100MOL    H48 8166   7.239   6.195   4.300  1.1894  1.9424  0.1951
  100MOL    H49 8167   7.111   6.195   4.402 -1.0442  0.7028 -0.0237
  100MOL    C50 8168   7.221   6.448   4.240 -0.0211  0.2245 -0.3637
  100MOL    O51 8169   7.354   6.428   4.284  0.5355  0.3022  0.2331
  100MOL    H52 8170   7.213   6.557   4.244 -2.1065  0.0508  0.7546
  100MOL    H53 8171   7.199   6.418   4.137  0.3232 -0.1313 -0.3348
  100MOL    C54 8172   7.387   6.484   4.408  0.6517  0.5640 -1.0752
  100MOL    O55 8173   7.433   6.617   4.390  1.0343  0.0045  0.4920
  100MOL    H56 8174   7.472   6.431   4.450 -0.0368  0.4510  0.2186
  100MOL    H57 8175   7.309   6.464   4.481 -0.3436  1.6263 -1.8307
  100MOL    C58 8176   7.362   6.710   4.463  0.1425 -0.2110  0.5764
  100MOL    O59 8177   7.397   6.717   4.594 -0.5498  0.0678  0.6138
  100MOL    H60 8178   7.256   6.689   4.449 -0.3551  1.7664  1.2251
  100MOL    H61 8179   7.375   6.809   4.418  0.2317  0.3604  1.8390
  100MOL    C62 8180   7.520   6.779   4.609 -0.2504  0.2027 -0.5411
  100MOL    O63 8181   7.513   6.917   4.570  0.1197  0.1309  0.4317
  100MOL    H64 8182   7.603   6.735   4.555  1.2469 -0.1819  1.9844
  100MOL    H65 8183   7.564   6.767   4.708 -3.6905 -1.2640  0.9032
  100MOL    C66 8184   7.457   6.991   4.670  0.0089  0.7531  0.3465
  100MOL    O67 8185   7.540   6.998   4.776 -0.0598 -0.2620 -0.7129
  100MOL    H68 8186   7.368   6.930   4.685  0.7529 -0.6600 -0.8274
  100MOL    H69 8187   7.414   7.083   4.630 -2.4002 -0.6163 -0.3684
  100MOL    C70 8188   7.481   7.070   4.886 -0.1485 -0.6856  0.1670
  100MOL    O71 8189   7.460   7.204   4.843  0.2315 -0.1133  0.1267
  100MOL    H72 8190   7.546   7.090   4.971 -0.5278 -0.7974  0.4854
  100MOL    H73 8191   7.384   7.027   4.909 -1.2550  1.4067 -0.4179
  100MOL    C74 8192   7.412   7.285   4.942 -0.0446 -0.0824  0.0930
  100MOL    O75 8193   7.352   7.395   4.885 -0.3174  0.2079 -0.3515
  100MOL    H76 8194   7.499   7.298   5.006 -1.4911  2.4852  1.6521
  100MOL    H77 8195   7.338   7.226   4.995  0.0776 -2.2189 -2.0273
  100MOL    C78 8196   7.434   7.507   4.875  0.2374 -0.2635 -0.5115
  100MOL    O79 8197   7.357   7.602   4.810  0.8383 -0.1804  0.2229
  100MOL    H80 8198   7.526   7.483   4.822  0.5865 -0.9736  0.4135
  100MOL    H81 8199   7.462   7.534   4.977 -1.6403  0.6307 -0.2166
  100MOL    H82 8200   7.359   7.583   4.718 -0.0487  2.6935 -0.4494
  101MOL     C1 8201   5.255   1.894   5.146 -0.7942  0.4035  0.3040
  101MOL     O2 8202   5.180   1.809   5.230 -0.1606 -0.0070 -0.3083
  101MOL     H3 8203   5.232   1.997   5.173 -0.2438  0.2038  1.5557
  101MOL     H4 8204   5.364   1.888   5.155 -0.8323 -0.1792  0.4343
  101MOL     H5 8205   5.228   1.875   5.042  1.3054 -1.2051  0.0169
  101MOL     C6 8206   5.048   1.843   5.218  0.7736  0.2668  0.1366
  101MOL     O7 8207   5.022   1.961   5.282 -0.1730 -0.6618  0.0858
  101MOL     H8 8208   4.993   1.762   5.265 -2.0060  0.1987 -3.0012
  101MOL     H9 8209   5.010   1.831   5.116  0.2367  0.9317  0.2552
  101MOL    C10 8210   5.027   1.955   5.422 -0.0011  0.6957 -0.2557
  101MOL    O11 8211   4.919   1.885   5.474  0.6416 -0.5245 -0.2678
  101MOL    H12 8212   5.031   2.056   5.463  0.7423  0.9236 -0.8746
  101MOL    H13 8213   5.121   1.911   5.453 -0.0183  0.9916  0.2182
  101MOL    C14 8214   4.798   1.945   5.441 -0.5763  0.2635 -0.0325
  101MOL    O15 8215   4.694   1.881   5.497  0.0436  0.2678  0.0122
  101MOL    H16 8216   4.790   1.934   5.333 -0.5317  0.3143 -0.0408
  101MOL    H17 8217   4.802   2.053   5.457 -1.1636  0.0257  1.9142
  101MOL    C18 8218   4.687   1.890   5.634  0.8227 -0.0403 -0.9858
  101MOL    O19 8219   4.555   1.883   5.680  0.4374 -0.3836 -0.6784
  101MOL    H20 8220   4.733   1.985   5.664  0.2011 -0.2919  0.8261
  101MOL    H21 8221   4.750   1.816   5.683  1.7454  0.4082 -1.4765
  101MOL    C22 8222   4.497   1.760   5.687  0.5569  0.0969  0.2249
  101MOL    O23 8223   4.532   1.687   5.804  0.0293 -0.3956 -0.0610
  101MOL    H24 8224   4.528   1.700   5.601 -0.9695 -0.3507 -0.0272
  101MOL    H25 8225   4.389   1.772   5.676  0.6413  0.3583 -0.3068
  101MOL    C26 8226   4.482   1.737   5.922  0.4179  0.1471 -0.1374
  101MOL    O27 8227   4.354   1.692   5.953  0.7234  0.3045  0.0848
  101MOL    H28 8228   4.494   1.846   5.923  0.1477  0.1756  0.1792
  101MOL    H29 8229   4.548   1.706   6.003 -1.6615 -2.1959  0.7114
  101MOL    C30 8230   4.349   1.552   5.971  0.3623 -0.4371 -0.2673
  101MOL    O31 8231   4.396   1.520   6.095 -0.3695  0.6392 -0.1680
  101MOL    H32 8232   4.417   1.514   5.894  0.5402 -1.8721  0.5811
  101MOL    H33 8233   4.253   1.502   5.955  1.8953 -3.0837 -1.3940
  101MOL    C34 8234   4.303   1.465   6.184  0.5363 -0.8982 -0.1622
  101MOL    O35 8235   4.373   1.423   6.294  0.3601  1.0173  0.4397
  101MOL    H36 8236   4.252   1.378   6.142  0.0276 -0.9993  0.6482
  101MOL    H37 8237   4.221   1.532   6.212  1.2346 -0.6001  1.1979
  101MOL    C38 8238   4.448   1.306   6.269 -0.0804 -0.3031 -0.0727
  101MOL    O39 8239   4.546   1.296   6.372  0.1928  0.4325 -0.3499
  101MOL    H40 8240   4.493   1.305   6.169  0.4802 -1.9138  0.1748
  101MOL    H41 8241   4.372   1.230   6.256  0.9633 -1.3892  0.0519
  101MOL    C42 8242   4.498   1.249   6.495  0.1461 -0.0889 -0.0340
  101MOL    O43 8243   4.558   1.133   6.528  0.7265  0.2148 -0.1238
  101MOL    H44 8244   4.389   1.244   6.490  0.1653  1.4677 -2.6727
  101MOL    H45 8245   4.515   1.322   6.574  1.6542 -2.0709  1.5323
  101MOL    C46 8246   4.523   1.031   6.434  0.5011  0.0096 -0.3644
  101MOL    O47 8247   4.388   1.013   6.416 -0.7427  0.0076  0.1284
  101MOL    H48 8248   4.565   0.936   6.467  0.8020 -0.1738 -1.2596
  101MOL    H49 8249   4.553   1.055   6.332 -0.9404  2.8869 -0.1568
  101MOL    C50 8250   4.326   0.930   6.508  0.4036  0.2144 -0.5385
  101MOL    O51 8251   4.366   0.799   6.502  0.2747  0.1047  0.3267
  101MOL    H52 8252   4.218   0.920   6.497  0.5199 -0.0532 -1.5015
  101MOL    H53 8253   4.343   0.963   6.610  0.8179  1.2779 -0.9531
  101MOL    C54 8254   4.314   0.745   6.379  0.0377 -0.1137  1.0373
  101MOL    O55 8255   4.360   0.622   6.352 -0.4008 -0.1951 -0.6335
  101MOL    H56 8256   4.325   0.807   6.290 -1.4822 -2.8782 -1.1505
  101MOL    H57 8257   4.208   0.726   6.392  0.0581 -0.1068  1.2003
  101MOL    C58 8258   4.493   0.625   6.308 -0.4842 -0.1268  0.0861
  101MOL    O59 8259   4.504   0.649   6.170  0.0877  0.3752  0.2206
  101MOL    H60 8260   4.541   0.531   6.336 -1.1302 -1.2235 -2.4494
  101MOL    H61 8261   4.557   0.701   6.355 -0.0496 -0.1484 -0.4671
  101MOL    C62 8262   4.472   0.537   6.100  0.7160 -0.5026  0.4753
  101MOL    O63 8263   4.557   0.429   6.126 -0.5316  0.1817 -0.2457
  101MOL    H64 8264   4.472   0.554   5.993  0.7329  1.2783  0.7441
  101MOL    H65 8265   4.366   0.521   6.122  0.8541 -1.0070  0.7847
  101MOL    C66 8266   4.685   0.456   6.078  0.2602  0.1407 -0.6893
  101MOL    O67 8267   4.682   0.482   5.938 -0.4486 -0.1160  0.3317
  101MOL    H68 8268   4.761   0.386   6.115  0.3710  0.4070 -0.4140
  101MOL    H69 8269   4.718   0.550   6.121 -0.6103 -0.1174  0.6038
  101MOL    C70 8270   4.710   0.369   5.859 -0.0473  0.2228 -0.1099
  101MOL    O71 8271   4.826   0.297   5.889 -0.5020  0.0709  0.0866
  101MOL    H72 8272   4.706   0.383   5.751 -1.0902  1.0554  0.0355
  101MOL    H73 8273   4.627   0.300   5.874  1.9403 -2.3168 -0.3633
  101MOL    C74 8274   4.937   0.378   5.854 -0.7423  0.5779  0.2508
  101MOL    O75 8275   4.961   0.356   5.716 -0.3806 -0.3251 -0.3037
  101MOL    H76 8276   5.026   0.360   5.915 -2.0063  3.1122  2.9558
  101MOL    H77 8277   4.910   0.483   5.867  0.0845  0.9062 -0.6532
  101MOL    C78 8278   5.034   0.237   5.704  0.0030 -0.0270 -0.0737
  101MOL    O79 8279   5.068   0.217   5.569  0.1079  0.0164  0.4985
  101MOL    H80 8280   4.967   0.160   5.742 -0.4410  0.9932  1.2628
  101MOL    H81 8281   5.125   0.237   5.764  0.0357 -1.7107 -0.0917
  101MOL    H82 8282   4.998   0.256   5.518  0.7102  1.1139  0.4954
  102MOL     C1 8283   4.339   2.768   3.707 -0.3955  0.2944 -0.0539
  102MOL     O2 8284   4.223   2.808   3.778 -0.4631  0.2906 -1.0611
  102MOL     H3 8285   4.344   2.813   3.608 -0.1726 -2.3026 -1.2702
  102MOL     H4 8286   4.438   2.770   3.751 -0.4266  2.4504 -0.0715
  102MOL     H5 8287   4.321   2.662   3.686  0.6707  0.0203  0.3803
  102MOL     C6 8288   4.105   2.795   3.707 -0.2448 -0.4577  0.4688
  102MOL     O7 8289   4.084   2.665   3.688  0.4166  0.3433 -0.2905
  102MOL     H8 8290   4.098   2.841   3.608 -4.5940 -0.9476  0.4405
  102MOL     H9 8291   4.029   2.848   3.765  0.7112  1.9179 -0.4090
  102MOL    C10 8292   4.056   2.593   3.803  0.2167 -0.3108  0.1178
  102MOL    O11 8293   3.940   2.637   3.863 -0.2631  0.4556  0.7464
  102MOL    H12 8294   4.132   2.618   3.877  0.2231  0.6980 -0.2124
  102MOL    H13 8295   4.063   2.486   3.784 -1.4072 -0.1326 -1.5860
  102MOL    C14 8296   3.830   2.590   3.805  0.2124  0.0830 -0.7693
  102MOL    O15 8297   3.823   2.457   3.803  0.1117  0.4792 -0.1104
  102MOL    H16 8298   3.824   2.617   3.700 -2.2332  0.7896 -0.4806
  102MOL    H17 8299   3.747   2.637   3.856 -0.8573 -2.0388 -0.4845
  102MOL    C18 8300   3.736   2.401   3.895  1.1043  0.1567 -0.2111
  102MOL    O19 8301   3.609   2.402   3.860 -0.0419 -0.0882 -0.3124
  102MOL    H20 8302   3.740   2.462   3.985  0.5730  1.5605 -1.1238
  102MOL    H21 8303   3.769   2.301   3.922  4.1833  1.1774 -0.0414
  102MOL    C22 8304   3.558   2.281   3.811  0.0402 -0.0105 -1.0188
  102MOL    O23 8305   3.555   2.175   3.907  0.3977  0.2602  0.1304
  102MOL    H24 8306   3.614   2.251   3.722 -0.0437  1.5751 -1.6204
  102MOL    H25 8307   3.457   2.304   3.776 -0.6540 -1.9672 -0.3839
  102MOL    C26 8308   3.469   2.073   3.870  0.1400  0.0276 -0.0154
  102MOL    O27 8309   3.514   1.981   3.777 -0.2658  0.7767  0.3716
  102MOL    H28 8310   3.382   2.113   3.818  1.0430  0.7595 -0.9891
  102MOL    H29 8311   3.432   2.028   3.962  0.6678 -0.2861  0.0480
  102MOL    C30 8312   3.609   1.886   3.832 -0.2695 -0.4336 -0.7075
  102MOL    O31 8313   3.547   1.781   3.918  0.1212  0.2282 -0.0218
  102MOL    H32 8314   3.694   1.939   3.874 -0.4609 -1.2264  0.6951
  102MOL    H33 8315   3.655   1.826   3.753  0.8908 -0.8887  0.2964
  102MOL    C34 8316   3.467   1.695   3.847  0.4840  0.1062  0.0516
  102MOL    O35 8317   3.535   1.596   3.778 -0.1160 -0.0173  0.1550
  102MOL    H36 8318   3.405   1.746   3.774 -0.4327 -0.6543  0.2902
  102MOL    H37 8319   3.392   1.658   3.917 -0.1433  0.2635 -0.5336
  102MOL    C38 8320   3.607   1.522   3.864 -0.1843  0.3238 -0.5019
  102MOL    O39 8321   3.562   1.392   3.879  0.7087  0.1830 -0.1787
  102MOL    H40 8322   3.615   1.561   3.966 -0.0387 -0.0619 -0.3632
  102MOL    H41 8323   3.707   1.525   3.822  1.5294 -3.0362  3.0102
  102MOL    C42 8324   3.588   1.308   3.765  0.3558  0.5680 -0.0593
  102MOL    O43 8325   3.518   1.185   3.780  0.4932 -0.3370 -0.4512
  102MOL    H44 8326   3.693   1.278   3.756  0.7751  1.4949  1.6767
  102MOL    H45 8327   3.568   1.374   3.681  0.0138  0.6075  0.0545
  102MOL    C46 8328   3.563   1.106   3.886 -0.0321 -0.1768  0.0990
  102MOL    O47 8329   3.693   1.065   3.864 -0.0620  0.5432  0.2105
  102MOL    H48 8330   3.497   1.019   3.889 -3.2822  2.2430  1.0851
  102MOL    H49 8331   3.537   1.144   3.985 -3.3272  2.3448 -1.6198
  102MOL    C50 8332   3.696   0.973   3.763 -0.0309  0.7231  0.0901
  102MOL    O51 8333   3.827   0.936   3.737  0.5797  0.5564  0.5267
  102MOL    H52 8334   3.643   1.003   3.672  1.7229  1.1348 -0.8165
  102MOL    H53 8335   3.650   0.880   3.796  0.9628  0.3247  0.3486
  102MOL    C54 8336   3.890   1.045   3.664  0.0438  0.4168 -0.5223
  102MOL    O55 8337   3.816   1.087   3.551  0.5652 -0.0626  0.3284
  102MOL    H56 8338   3.989   1.014   3.629  0.1454  0.8891 -0.6561
  102MOL    H57 8339   3.911   1.131   3.727 -0.8332 -0.7758  1.4150
  102MOL    C58 8340   3.818   1.004   3.440  0.0863 -0.2104 -0.2255
  102MOL    O59 8341   3.939   0.999   3.383 -0.0600  0.1013 -0.5036
  102MOL    H60 8342   3.742   1.034   3.368  1.2830  0.2844 -1.3070
  102MOL    H61 8343   3.794   0.901   3.470  1.3756 -0.4609 -0.0456
  102MOL    C62 8344   3.972   1.115   3.310 -0.6495 -0.1383 -0.4618
  102MOL    O63 8345   4.090   1.105   3.241  0.2317 -0.4540 -0.0493
  102MOL    H64 8346   3.992   1.201   3.374  0.8192 -0.5964 -0.2842
  102MOL    H65 8347   3.897   1.136   3.234 -2.8086 -0.8131  1.4378
  102MOL    C66 8348   4.089   0.987   3.165  0.4469  0.4715  0.2741
  102MOL    O67 8349   4.205   0.970   3.095 -0.3615 -0.1811 -0.0771
  102MOL    H68 8350   4.014   1.003   3.088  0.3312  1.1324  0.5144
  102MOL    H69 8351   4.068   0.888   3.205  2.0364 -1.9757 -4.6184
  102MOL    C70 8352   4.321   0.996   3.167 -0.1376 -0.0828 -0.4621
  102MOL    O71 8353   4.327   0.919   3.285 -0.3555  0.0324 -0.5465
  102MOL    H72 8354   4.326   1.104   3.179  3.0460 -0.0568 -1.4971
  102MOL    H73 8355   4.396   0.966   3.093 -1.9645 -1.7738 -1.6862
  102MOL    C74 8356   4.439   0.957   3.359 -0.0370 -0.1457  0.3942
  102MOL    O75 8357   4.424   1.083   3.431 -0.3390  0.3589  0.6096
  102MOL    H76 8358   4.529   0.970   3.299 -0.0910 -2.3624 -0.1901
  102MOL    H77 8359   4.455   0.879   3.433 -1.1640 -0.7777 -0.0230
  102MOL    C78 8360   4.338   1.066   3.542 -0.6503 -0.1342 -0.6907
  102MOL    O79 8361   4.352   1.171   3.633 -0.3035  0.1981 -0.0071
  102MOL    H80 8362   4.360   0.973   3.595 -2.9647 -1.1314 -1.3985
  102MOL    H81 8363   4.236   1.063   3.503  0.2125 -0.0359 -3.0233
  102MOL    H82 8364   4.445   1.184   3.649 -0.6454  0.0846  2.2448
  103MOL     C1 8365   4.959   4.755   7.485  0.4536 -0.1712  0.5946
  103MOL     O2 8366   4.928   4.647   7.564 -0.5581 -0.1032  0.2261
  103MOL     H3 8367   4.912   4.847   7.521  0.4022  0.0383  0.0047
  103MOL     H4 8368   5.068   4.759   7.483  0.4402  4.4988  2.6414
  103MOL     H5 8369   4.918   4.733   7.386  3.1222  1.1465 -0.8683
  103MOL     C6 8370   4.795   4.626   7.584 -0.4126  0.1983 -0.9941
  103MOL     O7 8371   4.771   4.567   7.712  0.3613  0.2421 -0.4357
  103MOL     H8 8372   4.745   4.564   7.510  1.4522 -2.0765 -0.3970
  103MOL     H9 8373   4.735   4.717   7.583  0.4904  0.7978 -2.3637
  103MOL    C10 8374   4.806   4.431   7.721 -0.7354  0.5507 -0.4732
  103MOL    O11 8375   4.729   4.348   7.640 -0.3508 -0.4818 -0.0753
  103MOL    H12 8376   4.819   4.394   0.039 -0.6826 -1.6407 -1.2357
  103MOL    H13 8377   4.911   4.426   7.691 -0.6569 -0.7711 -0.0127
  103MOL    C14 8378   4.603   4.326   7.689 -0.1837  0.5389  0.0878
  103MOL    O15 8379   4.605   4.270   0.026  0.2298 -0.0039 -0.1179
  103MOL    H16 8380   4.550   4.270   7.612  1.3853 -1.5059  0.4291
  103MOL    H17 8381   4.554   4.421   7.709 -2.3442 -0.3562 -0.8345
  103MOL    C18 8382   4.627   4.134   0.033  0.8689  0.1764 -0.7287
  103MOL    O19 8383   4.519   4.067   7.766  0.1684 -0.2309  0.0163
  103MOL    H20 8384   4.643   4.107   0.138  1.8761  3.6308  0.0519
  103MOL    H21 8385   4.713   4.108   7.754 -0.0106 -1.8115 -1.1775
  103MOL    C22 8386   4.538   3.936   7.744  0.1593 -0.2920 -0.4449
  103MOL    O23 8387   4.609   3.906   7.622  0.6525 -0.3865 -0.2846
  103MOL    H24 8388   4.444   3.880   7.739 -0.1370  0.1239  0.4177
  103MOL    H25 8389   4.573   3.882   0.048  0.5456 -0.0024 -0.4205
  103MOL    C26 8390   4.555   3.973   7.514 -0.2235 -0.5117  0.2135
  103MOL    O27 8391   4.418   3.962   7.509  0.6411 -0.2916 -0.0717
  103MOL    H28 8392   4.603   3.938   7.422 -1.9454  1.4344 -1.4646
  103MOL    H29 8393   4.595   4.074   7.509  1.4940 -1.1043  1.4225
  103MOL    C30 8394   4.365   4.051   7.424 -0.0241 -0.4472  0.5957
  103MOL    O31 8395   4.368   3.996   7.295  0.8597 -0.7907 -0.0957
  103MOL    H32 8396   4.403   4.153   7.425  0.5162 -0.6536  1.5504
  103MOL    H33 8397   4.263   4.070   7.455  0.1820  0.8028  0.5131
  103MOL    C34 8398   4.310   4.083   7.198  0.7056  0.3160 -0.3360
  103MOL    O35 8399   4.403   4.186   7.165  0.4274 -0.1724  0.4433
  103MOL    H36 8400   4.213   4.122   7.227 -0.2132 -1.7833 -0.5129
  103MOL    H37 8401   4.281   4.030   7.107  1.2082 -0.1366 -0.2381
  103MOL    C38 8402   4.538   4.137   7.134 -0.0741  0.6874 -0.2644
  103MOL    O39 8403   4.621   4.133   7.250  0.3033  0.5021  0.7634
  103MOL    H40 8404   4.584   4.205   7.063 -0.2506  0.8566 -0.2178
  103MOL    H41 8405   4.530   4.039   7.088  0.4653  0.4066  0.2406
  103MOL    C42 8406   4.676   4.256   7.277 -0.0657 -0.0171 -0.0371
  103MOL    O43 8407   4.766   4.301   7.179  0.0093  0.2910  0.1722
  103MOL    H44 8408   4.725   4.254   7.374  0.6513  2.2352 -0.3182
  103MOL    H45 8409   4.594   4.328   7.275 -1.5985 -1.7383 -0.8587
  103MOL    C46 8410   4.893   4.245   7.190  0.0530  0.1533 -0.2613
  103MOL    O47 8411   4.903   4.143   7.098  0.3353  0.3011 -0.1258
  103MOL    H48 8412   4.918   4.203   7.287  0.0769  0.7611 -0.0063
  103MOL    H49 8413   4.968   4.321   7.169  0.3975 -0.3148 -0.7398
  103MOL    C50 8414   4.920   4.190   6.965 -0.0026  0.0464 -0.1126
  103MOL    O51 8415   5.056   4.214   6.952  0.5541 -0.3915  0.7325
  103MOL    H52 8416   4.858   4.278   6.957  1.4714  1.2560  1.4627
  103MOL    H53 8417   4.880   4.109   6.903  0.2123  0.5428 -0.9022
  103MOL    C54 8418   5.086   4.304   6.852 -0.3356  0.4454 -0.1578
  103MOL    O55 8419   5.068   4.438   6.890  0.8528 -0.3635 -0.0761
  103MOL    H56 8420   5.014   4.294   6.770 -1.2009  2.0288  0.3783
  103MOL    H57 8421   5.185   4.284   6.811 -0.4473  2.2791 -1.3888
  103MOL    C58 8422   5.168   4.489   6.973 -0.0897  0.6957 -0.1144
  103MOL    O59 8423   5.169   4.623   6.955 -0.1106  0.3744  0.2537
  103MOL    H60 8424   5.265   4.442   6.961 -0.8356 -0.8703 -0.2324
  103MOL    H61 8425   5.143   4.454   7.073 -0.7716  2.1922  0.2509
  103MOL    C62 8426   5.241   4.664   6.844 -0.6295 -0.3449  0.1437
  103MOL    O63 8427   5.374   4.654   6.866 -0.2898 -0.8345  0.3597
  103MOL    H64 8428   5.223   4.769   6.822 -0.8680 -0.5419 -0.6054
  103MOL    H65 8429   5.210   4.609   6.756 -1.8679 -0.2053  0.4765
  103MOL    C66 8430   5.423   4.745   6.962 -0.3112  0.5438 -0.0477
  103MOL    O67 8431   5.427   4.884   6.919 -0.5506  0.2227 -0.3353
  103MOL    H68 8432   5.524   4.712   6.985 -0.8527 -1.0056  0.1817
  103MOL    H69 8433   5.360   4.733   7.051 -3.9548 -1.6121 -2.7596
  103MOL    C70 8434   5.454   4.971   7.023 -0.4634 -0.4464  0.3126
  103MOL    O71 8435   5.345   4.971   7.113  0.0552 -0.3084  0.1321
  103MOL    H72 8436   5.484   5.067   6.982 -0.2856 -0.4779  0.3684
  103MOL    H73 8437   5.547   4.944   7.073 -0.6021  0.2125  0.9235
  103MOL    C74 8438   5.231   5.031   7.067  0.2531  0.0827  0.0587
  103MOL    O75 8439   5.122   4.998   7.154  0.4258 -0.2498  0.2640
  103MOL    H76 8440   5.212   5.007   6.963 -1.8265  0.4231  0.3475
  103MOL    H77 8441   5.241   5.139   7.077 -0.1325  0.0605  0.6905
  103MOL    C78 8442   5.056   4.883   7.117  0.5570  0.3955  0.2006
  103MOL    O79 8443   4.925   4.875   7.178 -0.0292  0.5539 -0.1426
  103MOL    H80 8444   5.113   4.799   7.156  0.2215 -0.1231 -0.4104
  103MOL    H81 8445   5.031   4.871   7.011 -0.5544  0.4104  0.4543
  103MOL    H82 8446   4.882   4.956   7.157 -0.1624  0.3970 -0.4684
  104MOL     C1 8447   2.890   1.830   4.478 -0.2721 -0.3512  0.4768
  104MOL     O2 8448   2.930   1.956   4.437 -0.4099 -0.2177  0.2118
  104MOL     H3 8449   2.824   1.787   4.402 -0.5534 -2.6673  1.9682
  104MOL     H4 8450   2.974   1.762   4.493 -0.1234 -0.0799  0.8782
  104MOL     H5 8451   2.838   1.841   4.573  0.1000  0.1532  0.6220
  104MOL     C6 8452   3.030   2.008   4.524 -0.2751  0.0249  0.4813
  104MOL     O7 8453   3.156   1.948   4.497  0.2203  0.4183 -0.2160
  104MOL     H8 8454   2.991   1.983   4.622 -0.1541  0.1349  0.5570
  104MOL     H9 8455   3.035   2.116   4.511  0.6151  0.0444  0.9588
  104MOL    C10 8456   3.251   1.976   4.602 -0.0571 -0.5589  0.1913
  104MOL    O11 8457   3.279   2.109   4.612 -0.0779 -0.0009  0.7641
  104MOL    H12 8458   3.350   1.935   4.587  0.2668  0.6254 -1.0012
  104MOL    H13 8459   3.217   1.938   4.699  0.9363 -0.0905  0.7302
  104MOL    C14 8460   3.337   2.156   4.495 -0.5047 -0.5870  0.3647
  104MOL    O15 8461   3.359   2.300   4.492 -0.0717  0.2487 -0.1602
  104MOL    H16 8462   3.278   2.120   4.410 -2.1015  2.3519  0.1423
  104MOL    H17 8463   3.435   2.112   4.479 -0.1375  0.6589 -0.9735
  104MOL    C18 8464   3.237   2.366   4.474 -0.5198  0.0404  0.7459
  104MOL    O19 8465   3.245   2.499   4.509  0.0327  0.5244  0.1363
  104MOL    H20 8466   3.165   2.329   4.547 -0.3618 -2.4721 -0.3456
  104MOL    H21 8467   3.196   2.341   4.376 -0.5742 -3.3880  1.5915
  104MOL    C22 8468   3.276   2.581   4.402  0.2737 -0.2177  0.1743
  104MOL    O23 8469   3.182   2.589   4.295 -0.5779 -0.1603  1.0811
  104MOL    H24 8470   3.365   2.533   4.359 -0.1317 -0.7681 -0.0606
  104MOL    H25 8471   3.324   2.674   4.431  2.2815 -1.6153  1.5163
  104MOL    C26 8472   3.231   2.651   4.177  0.1652 -0.4401  0.4460
  104MOL    O27 8473   3.321   2.566   4.118  0.7263  0.3820  0.0934
  104MOL    H28 8474   3.289   2.739   4.204  0.1046 -0.8051  1.7883
  104MOL    H29 8475   3.152   2.686   4.110  1.1418 -3.0356 -2.2204
  104MOL    C30 8476   3.272   2.502   4.001 -0.9697  0.2248  0.1486
  104MOL    O31 8477   3.180   2.395   4.018  0.0569 -0.1387 -0.0112
  104MOL    H32 8478   3.353   2.456   3.945 -2.2002 -0.2311 -1.2765
  104MOL    H33 8479   3.235   2.572   3.926 -0.5173  2.5683  2.0641
  104MOL    C34 8480   3.225   2.284   4.085 -0.0174 -0.0503  0.1353
  104MOL    O35 8481   3.124   2.191   4.092 -0.2785 -0.0292 -0.0746
  104MOL    H36 8482   3.250   2.302   4.190 -1.4522 -0.3574  0.5473
  104MOL    H37 8483   3.315   2.248   4.037  0.0217  0.9241 -0.5446
  104MOL    C38 8484   3.083   2.148   3.961  0.0226 -0.4747 -0.2705
  104MOL    O39 8485   3.163   2.052   3.904  0.7925 -0.3989  0.0688
  104MOL    H40 8486   3.089   2.224   3.883  2.2769 -0.7682 -0.4376
  104MOL    H41 8487   2.985   2.102   3.973  0.2305 -0.5587  1.2165
  104MOL    C42 8488   3.149   1.925   3.958 -0.3018  0.0800  0.1143
  104MOL    O43 8489   3.024   1.872   3.924 -0.0876 -0.2075 -1.0540
  104MOL    H44 8490   3.152   1.931   4.067 -0.0131 -3.3959  0.3386
  104MOL    H45 8491   3.232   1.856   3.943  1.0421  1.7761 -0.3544
  104MOL    C46 8492   3.034   1.784   3.816 -0.4537  0.3546 -0.1088
  104MOL    O47 8493   3.115   1.671   3.848 -0.1379 -0.2303 -0.2711
  104MOL    H48 8494   3.083   1.840   3.737  1.6902 -0.2331  0.7691
  104MOL    H49 8495   2.938   1.770   3.766 -0.0501  0.1080 -0.8134
  104MOL    C50 8496   3.066   1.576   3.933  0.4900 -0.3475 -1.1001
  104MOL    O51 8497   3.164   1.490   3.970 -0.5995 -0.2803  0.5563
  104MOL    H52 8498   2.980   1.529   3.885 -1.4277  0.5979  1.3133
  104MOL    H53 8499   3.042   1.636   4.020  1.3943 -1.3106 -0.1783
  104MOL    C54 8500   3.191   1.392   3.868  0.1893  0.0483  0.2056
  104MOL    O55 8501   3.277   1.297   3.907  0.0672  0.0898  0.2398
  104MOL    H56 8502   3.247   1.447   3.793  1.7235  0.6531  1.7530
  104MOL    H57 8503   3.097   1.353   3.830 -0.3225  1.3265  0.1410
  104MOL    C58 8504   3.229   1.202   3.999  0.1019 -0.0476 -0.0534
  104MOL    O59 8505   3.109   1.138   3.959 -0.6793 -0.7722  0.7086
  104MOL    H60 8506   3.210   1.255   4.092 -0.9811 -0.7573  0.1322
  104MOL    H61 8507   3.305   1.128   4.024 -0.1362 -0.8551 -1.6375
  104MOL    C62 8508   3.126   1.045   3.858  0.1136  0.0929 -0.5216
  104MOL    O63 8509   3.180   0.937   3.925 -0.0884 -0.2654  0.2541
  104MOL    H64 8510   3.197   1.085   3.787  0.0305  0.0930 -0.6051
  104MOL    H65 8511   3.026   1.028   3.816 -0.2325 -1.9648  1.0168
  104MOL    C66 8512   3.087   0.859   3.991 -0.2189  0.3137  0.9191
  104MOL    O67 8513   3.130   0.742   4.047  0.0344 -0.0454  0.0268
  104MOL    H68 8514   3.010   0.835   3.918 -1.6503  2.1803  1.7527
  104MOL    H69 8515   3.027   0.912   4.066 -1.8511 -1.7444  1.1008
  104MOL    C70 8516   3.169   0.656   3.949 -0.6545  0.0275  0.8129
  104MOL    O71 8517   3.064   0.598   3.884 -0.2928 -0.3765 -0.3327
  104MOL    H72 8518   3.229   0.575   3.992  1.7925  1.6963  0.6321
  104MOL    H73 8519   3.244   0.696   3.881  0.0009 -2.1121  0.2303
  104MOL    C74 8520   2.997   0.513   3.964  0.7412  0.0128  0.6766
  104MOL    O75 8521   3.081   0.409   4.012 -0.4240 -0.2688 -0.4653
  104MOL    H76 8522   2.918   0.472   3.901 -0.2239  1.1492  1.1340
  104MOL    H77 8523   2.934   0.565   4.036  1.3102 -0.5363  1.5788
  104MOL    C78 8524   3.004   0.297   4.051  0.8966  0.1300  0.0676
  104MOL    O79 8525   2.954   0.309   4.181 -0.7428 -0.2546  0.0283
  104MOL    H80 8526   3.060   0.203   4.043 -1.7551 -1.3757 -1.5954
  104MOL    H81 8527   2.929   0.268   3.977  1.2732  0.5469 -0.4833
  104MOL    H82 8528   3.010   0.265   4.242  0.0628 -1.0651 -1.2578
  105MOL     C1 8529   6.335   0.726   4.751 -1.0761  0.3414 -0.3700
  105MOL     O2 8530   6.391   0.654   4.863 -0.2493 -0.0347 -0.0777
  105MOL     H3 8531   6.411   0.793   4.711 -0.5741 -0.6345 -1.0759
  105MOL     H4 8532   6.331   0.649   4.673  1.1640 -1.5584  1.3211
  105MOL     H5 8533   6.238   0.775   4.760 -0.1051  2.5234 -1.3260
  105MOL     C6 8534   6.404   0.735   4.975 -0.0034 -0.0041  0.5900
  105MOL     O7 8535   6.282   0.798   4.995  0.4198  0.5361  0.0507
  105MOL     H8 8536   6.478   0.812   4.951  1.2292 -1.1760  0.5286
  105MOL     H9 8537   6.432   0.676   5.063  1.3853  0.5807  0.5510
  105MOL    C10 8538   6.297   0.898   5.087 -0.3368 -0.0564  0.2986
  105MOL    O11 8539   6.373   1.001   5.041  0.1015  0.6614  0.4358
  105MOL    H12 8540   6.334   0.853   5.179 -0.0718 -0.2759  0.0857
  105MOL    H13 8541   6.198   0.935   5.112  0.3308  0.9335  1.5236
  105MOL    C14 8542   6.308   1.078   4.945 -0.6590  0.6820 -0.2201
  105MOL    O15 8543   6.204   1.165   4.990 -0.1667 -0.5632  0.2850
  105MOL    H16 8544   6.270   1.005   4.873 -1.1778 -0.3837  1.0975
  105MOL    H17 8545   6.381   1.134   4.887  0.2159  0.1714  0.3684
  105MOL    C18 8546   6.258   1.279   5.065 -0.0436  0.1482 -0.0575
  105MOL    O19 8547   6.345   1.357   4.985 -0.2880 -0.1848 -0.3399
  105MOL    H20 8548   6.304   1.254   5.160 -1.1884 -1.6557  0.0652
  105MOL    H21 8549   6.172   1.333   5.105 -0.9290 -0.1482 -1.5161
  105MOL    C22 8550   6.394   1.464   5.061  0.1304 -0.4116  0.6628
  105MOL    O23 8551   6.488   1.434   5.163 -0.4545 -0.3471  0.7254
  105MOL    H24 8552   6.309   1.507   5.114  0.6262 -1.8444  2.7059
  105MOL    H25 8553   6.427   1.540   4.991 -1.5460  0.3378  0.6590
  105MOL    C26 8554   6.610   1.385   5.120 -0.5992 -0.0523  0.0090
  105MOL    O27 8555   6.694   1.482   5.055  0.1419  0.3403 -0.7851
  105MOL    H28 8556   6.594   1.301   5.051 -0.0480  0.3806 -0.6576
  105MOL    H29 8557   6.667   1.330   5.195  0.0574 -0.7195 -0.9475
  105MOL    C30 8558   6.746   1.444   4.938  0.7209 -0.7659  0.5479
  105MOL    O31 8559   6.841   1.345   4.962  0.4750 -0.6766 -0.0676
  105MOL    H32 8560   6.799   1.532   4.900  0.3292 -0.4275  0.7849
  105MOL    H33 8561   6.672   1.421   4.862  0.9478  1.9400 -0.5364
  105MOL    C34 8562   6.907   1.293   4.847  0.2123  0.8334  1.0704
  105MOL    O35 8563   6.972   1.392   4.777 -0.3300  0.0665 -0.5184
  105MOL    H36 8564   6.831   1.254   4.779  0.8865  0.4884  0.5082
  105MOL    H37 8565   6.976   1.213   4.876 -0.4801 -0.4372 -0.6566
  105MOL    C38 8566   7.073   1.447   4.849 -0.8470 -0.3556  0.0511
  105MOL    O39 8567   7.197   1.381   4.823 -1.0254 -0.3139 -0.3111
  105MOL    H40 8568   7.058   1.451   4.957  0.0407  0.8046  0.1342
  105MOL    H41 8569   7.078   1.550   4.813 -0.4562  0.1015  1.3722
  105MOL    C42 8570   7.311   1.442   4.869  0.7177  0.1702  0.1908
  105MOL    O43 8571   7.349   1.547   4.783 -0.2761 -0.1625  0.1790
  105MOL    H44 8572   7.390   1.367   4.874 -0.9683 -1.4808  2.9497
  105MOL    H45 8573   7.293   1.487   4.966 -0.6201  0.0377  0.0106
  105MOL    C46 8574   7.395   1.512   4.660  0.1682  0.0146 -0.2287
  105MOL    O47 8575   7.407   1.623   4.579 -0.1808  0.2990 -0.0776
  105MOL    H48 8576   7.342   1.434   4.604  0.6391 -1.0054  0.7409
  105MOL    H49 8577   7.491   1.471   4.688 -1.6205 -2.9742  1.8123
  105MOL    C50 8578   7.293   1.668   4.526 -0.4270  0.4761  0.1175
  105MOL    O51 8579   7.225   1.575   4.453  0.5610  0.3657  0.4383
  105MOL    H52 8580   7.315   1.757   4.466 -0.9251 -0.6220 -1.7281
  105MOL    H53 8581   7.223   1.702   4.603 -1.1481 -2.5524  0.8558
  105MOL    C54 8582   7.254   1.571   4.316  0.1398 -0.4599  0.1354
  105MOL    O55 8583   7.209   1.685   4.254 -0.0361  0.4034 -0.2886
  105MOL    H56 8584   7.208   1.488   4.263  0.2930 -1.9159  2.2104
  105MOL    H57 8585   7.362   1.559   4.302  0.6378  0.4817  2.9467
  105MOL    C58 8586   7.074   1.710   4.273  0.7147  0.5815 -0.1139
  105MOL    O59 8587   7.000   1.617   4.190  0.5211  0.0222 -0.1248
  105MOL    H60 8588   7.039   1.805   4.233  0.6150  0.5946  0.0039
  105MOL    H61 8589   7.028   1.688   4.370 -1.0045  0.9085 -0.8342
  105MOL    C62 8590   6.974   1.661   4.058  0.6116 -0.0740  0.1946
  105MOL    O63 8591   6.849   1.716   4.050  0.1396  0.5706  0.4828
  105MOL    H64 8592   6.978   1.575   3.991 -0.4427 -0.0477  0.0844
  105MOL    H65 8593   7.051   1.735   4.040 -0.6777  1.3901  0.5702
  105MOL    C66 8594   6.809   1.740   3.917 -0.3503  0.0242 -0.0389
  105MOL    O67 8595   6.754   1.629   3.863  0.1221 -0.2130 -0.2112
  105MOL    H68 8596   6.895   1.774   3.860  0.3605  0.3036  1.1848
  105MOL    H69 8597   6.737   1.822   3.920  0.2515  0.4899  3.4893
  105MOL    C70 8598   6.624   1.607   3.920  0.0146  0.3387  0.4773
  105MOL    O71 8599   6.525   1.681   3.844  0.2384  0.3413  0.2409
  105MOL    H72 8600   6.623   1.631   4.026 -1.9045 -1.9866  1.0226
  105MOL    H73 8601   6.600   1.501   3.921  0.5832  0.1899 -0.7032
  105MOL    C74 8602   6.400   1.657   3.892  0.3227  0.3453  0.2080
  105MOL    O75 8603   6.375   1.707   4.018 -0.1787 -0.5077 -0.2951
  105MOL    H76 8604   6.369   1.553   3.877  1.7383 -0.0585 -0.0850
  105MOL    H77 8605   6.341   1.704   3.814 -0.1270  0.5465  0.6726
  105MOL    C78 8606   6.356   1.608   4.117  0.1560 -0.0482  0.3876
  105MOL    O79 8607   6.389   1.651   4.248  0.0275  0.2029  0.0019
  105MOL    H80 8608   6.432   1.530   4.105 -0.4266 -0.8143  1.6496
  105MOL    H81 8609   6.255   1.570   4.106 -0.2715  0.6092  2.0267
  105MOL    H82 8610   6.320   1.704   4.285 -0.9535 -1.3334  0.4075
  106MOL     C1 8611   1.971   6.266   0.016 -0.1105 -0.4179 -0.3606
  106MOL     O2 8612   2.083   6.353   0.049  0.3685 -0.6018  0.8243
  106MOL     H3 8613   1.882   6.319   7.765  1.9113  1.3582 -2.9521
  106MOL     H4 8614   2.000   6.204   7.715  1.7746 -0.2897  0.1830
  106MOL     H5 8615   1.956   6.189   0.092  2.4149 -0.3203  0.2772
  106MOL     C6 8616   2.042   6.466   0.119 -0.2663  0.4948 -0.2611
  106MOL     O7 8617   1.983   6.563   0.038 -0.0945  0.0110  0.0409
  106MOL     H8 8618   2.134   6.502   0.166  0.1493  0.1580 -0.8123
  106MOL     H9 8619   1.973   6.437   0.198 -1.7920 -2.2665 -2.4978
  106MOL    C10 8620   2.082   6.648   7.776 -0.7892  0.3088  0.6210
  106MOL    O11 8621   2.140   6.726   0.087  0.9966  0.1908 -0.0779
  106MOL    H12 8622   2.027   6.706   7.701  0.2687 -0.3064 -0.6517
  106MOL    H13 8623   2.163   6.599   7.722  0.4989  0.2478  2.5750
  106MOL    C14 8624   2.073   6.848   0.121  0.1928  0.9657 -0.0520
  106MOL    O15 8625   2.064   6.939   0.015 -0.1854 -0.1654  0.2466
  106MOL    H16 8626   2.134   6.885   0.204  1.2968 -0.1843 -0.3502
  106MOL    H17 8627   1.980   6.819   0.171  1.1994 -0.6805  0.8729
  106MOL    C18 8628   2.181   7.012   7.781  0.1841 -0.0059  0.8817
  106MOL    O19 8629   2.199   7.110   0.096  0.5906 -0.5878 -0.4249
  106MOL    H20 8630   2.179   7.059   7.683 -1.0000 -2.2394 -0.2099
  106MOL    H21 8631   2.264   6.941   7.770  0.7289  1.0258 -2.0370
  106MOL    C22 8632   2.102   7.215   0.102 -0.0780  0.6357 -0.2220
  106MOL    O23 8633   2.164   7.326   0.163  0.6017  0.4084  0.4419
  106MOL    H24 8634   2.015   7.177   0.155 -0.8225  0.8725 -1.2628
  106MOL    H25 8635   2.063   7.246   0.005  0.2803  0.6779 -0.3544
  106MOL    C26 8636   2.259   7.382   0.071  0.2150 -0.4413 -0.2046
  106MOL    O27 8637   2.200   7.480   7.779 -0.1711 -0.2942 -0.3062
  106MOL    H28 8638   2.304   7.303   0.009 -0.2371 -0.2273 -0.8112
  106MOL    H29 8639   2.336   7.428   0.133 -1.6555 -0.1491  1.9454
  106MOL    C30 8640   2.276   7.525   7.672 -0.2138 -0.1022 -0.3502
  106MOL    O31 8641   2.265   7.435   7.565  0.5602 -0.3521 -0.2878
  106MOL    H32 8642   2.380   7.540   7.702 -0.7629  0.1083  1.4636
  106MOL    H33 8643   2.251   7.622   7.628 -0.6865  0.5903  1.4116
  106MOL    C34 8644   2.149   7.453   7.485  0.5845 -0.5754 -0.1260
  106MOL    O35 8645   2.144   7.565   7.414 -0.1463  0.2385 -0.2002
  106MOL    H36 8646   2.059   7.441   7.545  1.5917  3.1584  2.3255
  106MOL    H37 8647   2.159   7.372   7.413  0.3032  0.7097 -1.6187
  106MOL    C38 8648   2.033   7.565   7.327  0.4939  0.6024  0.2623
  106MOL    O39 8649   1.907   7.546   7.395  0.2726 -0.3379  0.6573
  106MOL    H40 8650   2.038   7.486   7.252 -0.9834 -0.7386  1.5317
  106MOL    H41 8651   2.017   7.654   7.265  0.7773  1.3484  1.2455
  106MOL    C42 8652   1.869   7.665   7.461  0.0619 -0.0887 -0.2321
  106MOL    O43 8653   1.816   7.752   7.365 -0.4416 -0.1065  0.0985
  106MOL    H44 8654   1.951   7.723   7.502  1.7083 -0.9549 -2.2141
  106MOL    H45 8655   1.802   7.630   7.539  1.3290 -1.9288  0.0584
  106MOL    C46 8656   1.679   7.729   7.342 -0.9979  0.0593 -0.3295
  106MOL    O47 8657   1.590   0.000   7.436  0.1537  0.0015 -0.6214
  106MOL    H48 8658   1.677   7.620   7.337  2.5644 -0.1588  1.1034
  106MOL    H49 8659   1.643   7.765   7.246  0.0730  1.5756 -0.1716
  106MOL    C50 8660   1.585   0.136   7.416 -0.5663  0.3708 -0.0796
  106MOL    O51 8661   1.507   0.165   7.301  0.1821 -0.1340 -0.4094
  106MOL    H52 8662   1.689   0.169   7.422 -1.0421  1.9359 -0.1078
  106MOL    H53 8663   1.528   0.168   7.503 -1.9024  1.8149 -1.4311
  106MOL    C54 8664   1.497   0.299   7.286 -0.5045  0.0904  0.7594
  106MOL    O55 8665   1.392   0.363   7.351  0.0849 -0.2551  0.0698
  106MOL    H56 8666   1.487   0.320   7.179  1.1280  0.2005  0.6204
  106MOL    H57 8667   1.590   0.349   7.313  0.6557 -3.3105  3.3006
  106MOL    C58 8668   1.262   0.335   7.317  0.4542  0.5072 -0.2806
  106MOL    O59 8669   1.218   0.387   7.195  0.1132  0.6306 -0.1029
  106MOL    H60 8670   1.192   0.375   7.390  0.0950  1.1387 -0.9725
  106MOL    H61 8671   1.260   0.226   7.319  1.9567  0.4467 -1.1871
  106MOL    C62 8672   1.219   0.528   7.197  0.0391 -0.4416  0.0077
  106MOL    O63 8673   1.109   0.574   7.258  0.1673  0.2614 -0.7324
  106MOL    H64 8674   1.230   0.552   7.091  0.5129 -0.3239  0.0811
  106MOL    H65 8675   1.316   0.562   7.232  0.6170 -1.2923 -0.7240
  106MOL    C66 8676   1.002   0.588   7.172  0.5277  0.5606 -0.0020
  106MOL    O67 8677   1.010   0.708   7.107 -0.5181  0.2068  0.6486
  106MOL    H68 8678   0.917   0.575   7.239  1.1960 -1.0393  0.5761
  106MOL    H69 8679   0.989   0.510   7.097  0.0249  0.1667  0.4907
  106MOL    C70 8680   0.978   0.818   7.185  0.1887 -0.4492 -0.4746
  106MOL    O71 8681   0.849   0.822   7.226 -0.1924 -0.6944 -0.1677
  106MOL    H72 8682   0.995   0.906   7.122 -3.6288  0.9655  0.3236
  106MOL    H73 8683   1.044   0.829   7.271  1.2437  1.6569 -1.5052
  106MOL    C74 8684   0.758   0.865   7.122 -0.3927  0.7773  0.2172
  106MOL    O75 8685   0.775   1.003   7.089 -0.3613 -0.5174 -0.2590
  106MOL    H76 8686   0.658   0.842   7.157  0.4661 -0.4495  1.9832
  106MOL    H77 8687   0.777   0.804   7.033  0.0513  2.4920 -0.8717
  106MOL    C78 8688   0.723   1.075   7.194 -0.1231  0.1516 -0.8351
  106MOL    O79 8689   0.730   1.208   7.169 -0.4624 -0.0343 -0.3565
  106MOL    H80 8690   0.757   1.048   7.294  0.7930  2.4500 -0.5077
  106MOL    H81 8691   0.617   1.061   7.211 -0.3191  1.6207 -0.8647
  106MOL    H82 8692   0.817   1.245   7.169  0.3570 -1.8743  1.5551
  107MOL     C1 8693   3.120   4.158   1.758  0.1784  0.6552  0.6158
  107MOL     O2 8694   3.088   4.039   1.832 -0.2709  0.0222 -0.2992
  107MOL     H3 8695   3.121   4.243   1.826  2.2799 -0.7034  2.3294
  107MOL     H4 8696   3.222   4.156   1.721  0.1435  2.8890  0.3262
  107MOL     H5 8697   3.044   4.177   1.682 -1.0228  1.3536  1.9699
  107MOL     C6 8698   3.102   3.926   1.759 -0.2280 -0.7472 -0.7922
  107MOL     O7 8699   3.233   3.873   1.751 -0.0230 -0.3382  0.0602
  107MOL     H8 8700   3.065   3.946   1.658  1.3441  1.1973 -1.0261
  107MOL     H9 8701   3.035   3.854   1.807  2.5895 -1.7555  1.7442
  107MOL    C10 8702   3.277   3.833   1.872 -0.1649  0.5465 -0.2532
  107MOL    O11 8703   3.321   3.942   1.948 -0.6896 -0.3227 -0.5795
  107MOL    H12 8704   3.364   3.769   1.863  0.3814  0.6560  3.4035
  107MOL    H13 8705   3.211   3.770   1.931  2.2597 -1.7633  0.0696
  107MOL    C14 8706   3.239   3.950   2.059  0.4498  0.6325  0.3261
  107MOL    O15 8707   3.274   3.857   2.150 -0.0125 -0.1038  0.3912
  107MOL    H16 8708   3.132   3.950   2.037  0.6175  2.2233 -0.5920
  107MOL    H17 8709   3.256   4.048   2.103  0.9745  1.0744 -0.8188
  107MOL    C18 8710   3.407   3.873   2.196  0.1973  0.0240 -0.0630
  107MOL    O19 8711   3.426   3.966   2.298  0.6721 -0.0477 -0.2345
  107MOL    H20 8712   3.477   3.895   2.115  0.0626  0.8482  0.0318
  107MOL    H21 8713   3.440   3.780   2.241 -1.9788 -0.1674  1.2193
  107MOL    C22 8714   3.354   3.935   2.419  0.7251  0.6722 -0.6160
  107MOL    O23 8715   3.433   3.852   2.494  0.6712 -0.1014  0.0155
  107MOL    H24 8716   3.257   3.892   2.398  0.7868 -0.4422  1.3289
  107MOL    H25 8717   3.336   4.033   2.465 -0.6332  0.7356 -1.2787
  107MOL    C26 8718   3.569   3.901   2.514  0.0016 -0.4326  0.1484
  107MOL    O27 8719   3.571   4.015   2.591 -0.5678  0.0529  0.4690
  107MOL    H28 8720   3.605   3.910   2.412 -2.3949  1.8857 -0.5407
  107MOL    H29 8721   3.603   3.820   2.578 -3.3098 -2.1573 -0.1340
  107MOL    C30 8722   3.616   4.129   2.517  0.1237 -0.2382 -0.0446
  107MOL    O31 8723   3.758   4.125   2.496 -0.3079  0.4947  0.1169
  107MOL    H32 8724   3.584   4.208   2.586  1.2411  0.1737  0.0129
  107MOL    H33 8725   3.565   4.126   2.421 -1.1715  0.5398  0.5957
  107MOL    C34 8726   3.836   4.175   2.596  0.6786  0.4578 -0.4995
  107MOL    O35 8727   3.848   4.311   2.599  0.3286 -0.2530  0.3203
  107MOL    H36 8728   3.932   4.124   2.588  0.3876 -0.0219 -1.0143
  107MOL    H37 8729   3.792   4.133   2.687  1.4409 -2.3075 -1.3565
  107MOL    C38 8730   3.933   4.366   2.498 -0.4748 -0.4204 -0.5550
  107MOL    O39 8731   4.066   4.372   2.549  0.2070 -0.0260  0.6881
  107MOL    H40 8732   3.906   4.471   2.487 -1.5337 -0.3586  2.4546
  107MOL    H41 8733   3.919   4.305   2.409  0.1456 -1.4009  0.0158
  107MOL    C42 8734   4.080   4.454   2.657  0.4395  0.0139  0.1605
  107MOL    O43 8735   4.103   4.584   2.613  0.0966  0.1067 -0.0508
  107MOL    H44 8736   4.148   4.401   2.724 -0.7046 -2.3653 -0.4994
  107MOL    H45 8737   3.992   4.470   2.719  1.0840 -0.6703  1.2814
  107MOL    C46 8738   4.232   4.604   2.564  0.0650 -0.7543 -0.0837
  107MOL    O47 8739   4.318   4.678   2.639 -0.0450 -0.4803 -0.1556
  107MOL    H48 8740   4.221   4.649   2.465  0.6340 -2.0246 -0.7434
  107MOL    H49 8741   4.280   4.510   2.535 -0.1263 -1.4581  1.7946
  107MOL    C50 8742   4.363   4.609   2.756 -0.1815 -0.3686  0.0022
  107MOL    O51 8743   4.256   4.606   2.855  0.1953 -0.1669 -0.3954
  107MOL    H52 8744   4.451   4.657   2.799 -0.1396  0.0147 -0.5175
  107MOL    H53 8745   4.394   4.507   2.737  3.0811  0.7419 -0.9285
  107MOL    C54 8746   4.204   4.730   2.888 -0.1098 -0.4374  0.7423
  107MOL    O55 8747   4.294   4.795   2.970 -0.6199  0.2316 -0.2234
  107MOL    H56 8748   4.105   4.712   2.931  0.1654  0.9018  1.9912
  107MOL    H57 8749   4.174   4.775   2.794  3.0351 -1.6299 -0.9253
  107MOL    C58 8750   4.368   4.900   2.920  0.0697 -0.0765  0.2243
  107MOL    O59 8751   4.287   5.016   2.909 -0.5200  0.2862 -0.3730
  107MOL    H60 8752   4.423   4.876   2.829 -0.8434 -2.9104  0.3679
  107MOL    H61 8753   4.438   4.929   2.999 -0.9702  0.0758  1.1036
  107MOL    C62 8754   4.236   5.063   3.032  0.0364 -0.4406 -0.0914
  107MOL    O63 8755   4.333   5.120   3.118 -0.1347  0.0546 -0.1469
  107MOL    H64 8756   4.195   4.975   3.082 -0.7385 -1.4289 -2.3875
  107MOL    H65 8757   4.164   5.145   3.022 -0.1502 -0.4295  1.2024
  107MOL    C66 8758   4.394   5.234   3.063  0.0735 -0.2761 -0.0185
  107MOL    O67 8759   4.515   5.253   3.127 -0.6413  0.9292  0.1579
  107MOL    H68 8760   4.324   5.316   3.058  0.1646 -0.2491 -0.8232
  107MOL    H69 8761   4.425   5.220   2.960  0.6211  0.8206 -0.0092
  107MOL    C70 8762   4.613   5.157   3.112  0.3262  0.2975 -0.0673
  107MOL    O71 8763   4.671   5.157   2.983 -0.0351  0.4200 -0.4995
  107MOL    H72 8764   4.581   5.059   3.146  2.3215 -1.1079 -2.1231
  107MOL    H73 8765   4.687   5.179   3.188  0.8784 -0.3310 -0.4231
  107MOL    C74 8766   4.712   5.283   2.937  0.2164  0.7619  0.0518
  107MOL    O75 8767   4.829   5.323   2.995 -0.4048 -0.1925 -0.1729
  107MOL    H76 8768   4.636   5.360   2.954 -0.8409 -0.0147 -1.0183
  107MOL    H77 8769   4.720   5.273   2.829  0.3728  0.2530  0.1104
  107MOL    C78 8770   4.939   5.278   2.923  0.0983  0.5862  0.4566
  107MOL    O79 8771   5.062   5.303   2.998 -0.6671 -0.0050  0.2797
  107MOL    H80 8772   4.951   5.334   2.830  0.0673  1.8834  1.2157
  107MOL    H81 8773   4.921   5.172   2.907 -0.0332  0.1796  3.0655
  107MOL    H82 8774   5.039   5.325   3.087  0.2142 -0.7676  0.6989
  108MOL     C1 8775   5.741   1.966   6.521  0.0461 -0.6190 -0.2670
  108MOL     O2 8776   5.663   1.890   6.429 -0.5517  0.0195 -0.3159
  108MOL     H3 8777   5.814   1.893   6.555 -0.9452 -1.2560  0.5224
  108MOL     H4 8778   5.786   2.051   6.471  0.2014  0.1916  1.2303
  108MOL     H5 8779   5.681   1.998   6.607  1.4875 -1.2716  0.9995
  108MOL     C6 8780   5.550   1.966   6.391 -0.2853  0.5146 -0.3836
  108MOL     O7 8781   5.457   1.883   6.328  0.5696 -0.0556 -0.1471
  108MOL     H8 8782   5.585   2.045   6.325 -2.5342  2.1401  0.3139
  108MOL     H9 8783   5.502   2.018   6.473 -0.2787 -2.1300  1.3536
  108MOL    C10 8784   5.407   1.777   6.403 -0.0580 -1.0187  0.1286
  108MOL    O11 8785   5.326   1.828   6.502 -0.1649  0.0660 -0.4661
  108MOL    H12 8786   5.484   1.707   6.435 -0.1548 -1.0192  0.3634
  108MOL    H13 8787   5.337   1.715   6.346 -2.8381  0.4890  1.7902
  108MOL    C14 8788   5.244   1.738   6.566 -0.6350  0.5025  0.3576
  108MOL    O15 8789   5.313   1.632   6.629 -0.1575  0.6676  0.1160
  108MOL    H16 8790   5.180   1.690   6.492  0.8394  0.1979 -0.7217
  108MOL    H17 8791   5.164   1.784   6.624 -1.9627 -2.2929  0.7867
  108MOL    C18 8792   5.410   1.673   6.716  0.6043 -0.4953  0.0519
  108MOL    O19 8793   5.338   1.708   6.834  0.7377 -0.5802  0.4657
  108MOL    H20 8794   5.475   1.753   6.679  0.7787  0.7774  2.9932
  108MOL    H21 8795   5.468   1.581   6.724 -0.8564 -1.3954  0.4780
  108MOL    C22 8796   5.417   1.762   6.934 -0.0850  0.4315  0.1654
  108MOL    O23 8797   5.479   1.877   6.900  0.6183 -0.0325  0.0826
  108MOL    H24 8798   5.493   1.690   6.966 -0.7591 -0.6697 -0.6817
  108MOL    H25 8799   5.342   1.765   7.013 -2.2163 -3.1334 -1.5999
  108MOL    C26 8800   5.387   1.987   6.893 -0.0571  0.4743 -0.3756
  108MOL    O27 8801   5.332   2.004   7.020 -0.7290 -0.5757 -0.5925
  108MOL    H28 8802   5.305   1.990   6.821 -1.0091  0.2008  0.6967
  108MOL    H29 8803   5.448   2.072   6.862 -1.0291  1.2451 -0.1940
  108MOL    C30 8804   5.417   2.070   7.106  0.4136  0.3222 -0.4303
  108MOL    O31 8805   5.407   2.207   7.085  0.0088  0.6502 -0.6921
  108MOL    H32 8806   5.521   2.046   7.087  0.2014 -1.1727  0.2165
  108MOL    H33 8807   5.395   2.042   7.209  0.0086 -0.4279 -0.7152
  108MOL    C34 8808   5.278   2.258   7.127 -0.2409 -0.1256 -0.2893
  108MOL    O35 8809   5.271   2.258   7.263 -0.6123  0.7865  0.8239
  108MOL    H36 8810   5.193   2.199   7.090 -0.9005  2.1362 -2.5449
  108MOL    H37 8811   5.259   2.357   7.086 -1.1398 -0.4265 -0.6331
  108MOL    C38 8812   5.350   2.358   7.323 -0.0422 -0.1396  0.4846
  108MOL    O39 8813   5.284   2.432   7.428  0.9733 -0.2658 -0.0392
  108MOL    H40 8814   5.386   2.442   7.263 -4.3252  0.7263 -1.0631
  108MOL    H41 8815   5.437   2.303   7.358  1.2458  1.1122 -0.6632
  108MOL    C42 8816   5.381   2.489   7.510 -0.3809 -0.2796 -0.4859
  108MOL    O43 8817   5.440   2.402   7.596  0.3140  0.2897  0.4104
  108MOL    H44 8818   5.343   2.579   7.558 -2.6266 -1.1458 -0.6006
  108MOL    H45 8819   5.469   2.519   7.452 -2.0017  0.3038 -2.6877
  108MOL    C46 8820   5.361   2.372   7.710  0.0564 -0.1369  0.3024
  108MOL    O47 8821   5.338   2.482   0.009  0.6571  0.1094  0.3820
  108MOL    H48 8822   5.412   2.291   7.762 -0.0958 -1.3963 -1.4737
  108MOL    H49 8823   5.266   2.328   7.680 -0.7814  0.2401  2.3150
  108MOL    C50 8824   5.430   2.500   0.109 -0.0840 -0.1196  0.7529
  108MOL    O51 8825   5.445   2.395   0.201  0.5594 -0.3629 -0.4489
  108MOL    H52 8826   5.414   2.592   0.167 -0.0754 -0.3658  1.1510
  108MOL    H53 8827   5.527   2.517   0.063 -0.1989 -0.7819  0.2588
  108MOL    C54 8828   5.328   2.370   0.281  0.1979 -0.7181  0.1214
  108MOL    O55 8829   5.294   2.484   0.350 -0.4116  0.1925 -0.6118
  108MOL    H56 8830   5.340   2.285   0.349 -3.2021 -2.1348 -0.9077
  108MOL    H57 8831   5.252   2.337   0.210 -1.8700  0.6186  1.6584
  108MOL    C58 8832   5.379   2.518   0.456 -0.6507  0.4044  0.2760
  108MOL    O59 8833   5.367   2.428   0.558  0.4102  0.3992 -0.7148
  108MOL    H60 8834   5.347   2.613   0.499 -2.8013 -0.1089 -0.1600
  108MOL    H61 8835   5.481   2.525   0.418 -0.5302  3.0493  0.9571
  108MOL    C62 8836   5.247   2.439   0.634  0.5958  0.1321  1.2389
  108MOL    O63 8837   5.244   2.549   0.719  0.7051  0.2079  0.5596
  108MOL    H64 8838   5.236   2.352   0.698  0.2119 -0.2788  0.6265
  108MOL    H65 8839   5.165   2.427   0.563  1.5096  4.0160 -0.6153
  108MOL    C66 8840   5.342   2.547   0.816  0.0041  0.2468 -0.6557
  108MOL    O67 8841   5.340   2.668   0.889 -0.0413 -0.2156 -0.3335
  108MOL    H68 8842   5.443   2.530   0.778 -0.2216 -1.6017 -0.4812
  108MOL    H69 8843   5.319   2.463   0.882 -0.9961  1.6456  0.8025
  108MOL    C70 8844   5.398   2.775   0.825  0.1461 -0.6565 -0.4043
  108MOL    O71 8845   5.539   2.760   0.796 -0.0706 -0.0923  0.0487
  108MOL    H72 8846   5.375   2.867   0.878 -0.0407 -1.1505  0.3805
  108MOL    H73 8847   5.350   2.786   0.728  0.5543  2.7211 -0.2902
  108MOL    C74 8848   5.613   2.743   0.912 -0.9440 -0.2051 -0.0783
  108MOL    O75 8849   5.682   2.863   0.936  0.2488 -0.7351 -0.3916
  108MOL    H76 8850   5.691   2.673   0.882 -1.9701 -0.8872 -1.2105
  108MOL    H77 8851   5.561   2.718   1.005  0.2753 -1.4246  0.2881
  108MOL    C78 8852   5.765   2.906   0.835  0.3345  0.6613 -0.5608
  108MOL    O79 8853   5.875   2.978   0.880  0.1476  0.3706 -0.6173
  108MOL    H80 8854   5.715   2.981   0.774  0.2991  0.5018 -0.7264
  108MOL    H81 8855   5.803   2.820   0.780 -0.8370  0.2015 -0.6561
  108MOL    H82 8856   5.929   2.913   0.923 -0.4413  1.4174  1.8110
  109MOL     C1 8857   5.161   3.735   3.765 -0.5565  0.1354 -0.4323
  109MOL     O2 8858   5.137   3.872   3.790  0.1871 -0.1298 -0.2000
  109MOL     H3 8859   5.231   3.730   3.681 -1.0352  0.4366 -0.8545
  109MOL     H4 8860   5.211   3.701   3.855  0.2700 -0.5636 -1.1399
  109MOL     H5 8861   5.064   3.689   3.748 -0.1910  0.0141 -2.2958
  109MOL     C6 8862   5.226   3.963   3.733  0.1518  0.3276 -0.0288
  109MOL     O7 8863   5.195   3.979   3.600 -0.0399  0.1508 -0.1241
  109MOL     H8 8864   5.329   3.929   3.741 -0.3832 -0.7637  2.7875
  109MOL     H9 8865   5.217   4.055   3.790 -0.4147 -0.2606  0.8442
  109MOL    C10 8866   5.063   4.025   3.583 -0.2514  0.4082  0.1355
  109MOL    O11 8867   5.051   4.168   3.569  0.5521  0.0062  0.0033
  109MOL    H12 8868   4.998   3.995   3.664  0.8017 -0.7926  0.5436
  109MOL    H13 8869   5.028   3.976   3.492  0.7280 -1.2941  0.6689
  109MOL    C14 8870   4.931   4.197   3.504  0.1887 -0.0560  0.4405
  109MOL    O15 8871   4.825   4.115   3.536  0.3624 -0.0938 -0.1540
  109MOL    H16 8872   4.956   4.188   3.398  1.1783 -0.1106  0.6742
  109MOL    H17 8873   4.893   4.297   3.525  0.3334 -0.6263  3.6708
  109MOL    C18 8874   4.725   4.122   3.441 -0.2723  0.1413 -0.0879
  109MOL    O19 8875   4.649   4.245   3.442 -0.0963  0.6929 -0.1264
  109MOL    H20 8876   4.657   4.039   3.456 -1.6331  1.0911 -0.8802
  109MOL    H21 8877   4.761   4.104   3.340  1.4532 -0.4604  0.6136
  109MOL    C22 8878   4.562   4.248   3.550 -0.0015  0.1190 -0.6581
  109MOL    O23 8879   4.501   4.373   3.546 -0.3942  0.3929 -0.2954
  109MOL    H24 8880   4.610   4.223   3.644 -0.9097  0.0101 -0.2213
  109MOL    H25 8881   4.485   4.172   3.538 -0.9704  0.9461  0.2109
  109MOL    C26 8882   4.521   4.439   3.670  0.0054 -0.0174  0.7229
  109MOL    O27 8883   4.649   4.496   3.682 -0.1518  0.5085  0.1121
  109MOL    H28 8884   4.498   4.374   3.754 -1.7486  0.0230  0.3139
  109MOL    H29 8885   4.443   4.514   3.686  1.0952  1.1163  0.7583
  109MOL    C30 8886   4.658   4.611   3.605  0.2193 -0.3454 -0.4659
  109MOL    O31 8887   4.783   4.672   3.610 -0.0452 -0.1654  0.2263
  109MOL    H32 8888   4.585   4.679   3.648  0.2092 -0.8063  0.2671
  109MOL    H33 8889   4.644   4.575   3.503  1.1533 -1.2554 -0.2834
  109MOL    C34 8890   4.843   4.681   3.739  0.1259  0.1054 -0.0158
  109MOL    O35 8891   4.912   4.807   3.755  0.3705 -0.5509 -0.7854
  109MOL    H36 8892   4.902   4.599   3.777 -0.6740 -1.7405 -2.6071
  109MOL    H37 8893   4.755   4.690   3.802 -0.2299 -1.3198 -0.3015
  109MOL    C38 8894   5.048   4.807   3.721 -0.0001 -0.0694 -0.3352
  109MOL    O39 8895   5.119   4.737   3.819  0.1172  0.3353  0.4173
  109MOL    H40 8896   5.088   4.907   3.700  0.2274 -0.5198 -2.1599
  109MOL    H41 8897   5.054   4.755   3.625  3.2170  2.0656 -1.4026
  109MOL    C42 8898   5.153   4.813   3.929 -0.2350 -0.1074 -0.6368
  109MOL    O43 8899   5.255   4.908   3.902  0.4611 -0.1712 -0.1479
  109MOL    H44 8900   5.176   4.736   4.003 -2.0434 -0.6179 -0.5814
  109MOL    H45 8901   5.068   4.872   3.963  0.1815  0.7273 -1.0327
  109MOL    C46 8902   5.384   4.855   3.882  0.2757 -0.1801 -0.4894
  109MOL    O47 8903   5.443   4.789   3.995  0.2664 -0.5036  0.4041
  109MOL    H48 8904   5.450   4.940   3.863 -0.7844  0.5246 -1.0285
  109MOL    H49 8905   5.404   4.806   3.787  0.2560  1.3555 -1.2985
  109MOL    C50 8906   5.575   4.741   3.968  0.4491 -0.9710 -0.4620
  109MOL    O51 8907   5.667   4.841   3.982 -0.0928  0.0806 -0.2546
  109MOL    H52 8908   5.583   4.700   3.868 -0.1097  2.0872 -1.8162
  109MOL    H53 8909   5.602   4.666   4.043  1.5538 -0.2237 -0.0990
  109MOL    C54 8910   5.705   4.856   4.119  0.8649 -0.6679  1.0804
  109MOL    O55 8911   5.817   4.783   4.145  0.0790 -0.0270 -0.1250
  109MOL    H56 8912   5.625   4.827   4.187  1.0162 -0.3331  1.4040
  109MOL    H57 8913   5.710   4.962   4.143  1.2385 -0.1697 -1.0926
  109MOL    C58 8914   5.931   4.837   4.103 -0.0266  0.0481  0.1500
  109MOL    O59 8915   5.961   4.951   4.177 -0.1994 -0.8461 -0.7038
  109MOL    H60 8916   5.926   4.846   3.994  1.0534 -2.1648 -0.1114
  109MOL    H61 8917   5.999   4.752   4.112  3.8948  2.7414 -2.2403
  109MOL    C62 8918   6.071   5.021   4.135  0.6146  0.6978 -0.6517
  109MOL    O63 8919   6.184   4.966   4.191  0.1985 -0.4174 -0.3362
  109MOL    H64 8920   6.053   5.125   4.163 -1.7852  0.1691 -0.1831
  109MOL    H65 8921   6.076   5.015   4.026 -1.7714  0.2417 -0.7569
  109MOL    C66 8922   6.293   5.053   4.173 -0.0259 -0.2066  0.0550
  109MOL    O67 8923   6.332   5.077   4.039 -0.3078  0.0453 -0.3378
  109MOL    H68 8924   6.377   5.014   4.231  1.1346 -0.6722 -1.8567
  109MOL    H69 8925   6.281   5.155   4.209  1.6824  0.9503 -2.4611
  109MOL    C70 8926   6.379   4.956   3.979  0.0186  0.0380 -0.3945
  109MOL    O71 8927   6.498   4.918   4.045  0.2088  0.5257  0.0573
  109MOL    H72 8928   6.394   4.981   3.874  1.9932 -2.3667 -0.7250
  109MOL    H73 8929   6.300   4.882   3.988  0.0477 -0.3585 -3.0094
  109MOL    C74 8930   6.610   4.981   3.989 -0.1431 -0.5233 -0.1677
  109MOL    O75 8931   6.641   4.937   3.861 -0.0614  0.4183 -0.0789
  109MOL    H76 8932   6.690   4.956   4.059  1.0662  1.3894 -0.8386
  109MOL    H77 8933   6.608   5.089   3.987 -1.1077 -0.4737  1.6853
  109MOL    C78 8934   6.661   4.801   3.856  0.1785  0.4358 -0.4006
  109MOL    O79 8935   6.692   4.760   3.722 -0.0548  0.0739 -0.1186
  109MOL    H80 8936   6.579   4.741   3.895  0.1532  0.6241 -0.1640
  109MOL    H81 8937   6.748   4.770   3.915  0.3852 -2.4010 -2.1006
  109MOL    H82 8938   6.612   4.770   3.672  0.6906  0.9138 -1.1552
  110MOL     C1 8939   3.036   6.581   3.449 -0.2503  0.4728 -0.1725
  110MOL     O2 8940   3.086   6.463   3.382 -0.2449  0.0566  0.1766
  110MOL     H3 8941   2.958   6.631   3.391  2.2755  2.6058 -1.8008
  110MOL     H4 8942   2.969   6.558   3.532 -0.5611  2.6155  0.1845
  110MOL     H5 8943   3.120   6.644   3.476 -0.8145  1.3792 -0.5310
  110MOL     C6 8944   3.196   6.419   3.450 -0.3570  0.3356 -0.0608
  110MOL     O7 8945   3.315   6.494   3.428  0.2431 -0.6361 -0.0801
  110MOL     H8 8946   3.216   6.314   3.427 -1.7862  0.1733 -0.6416
  110MOL     H9 8947   3.182   6.415   3.558  0.5479  0.7215  0.0756
  110MOL    C10 8948   3.379   6.465   3.307 -0.4381 -0.3104  0.6663
  110MOL    O11 8949   3.431   6.343   3.305 -0.0164  0.0190 -0.4551
  110MOL    H12 8950   3.460   6.535   3.283 -2.0307  0.9195 -1.2519
  110MOL    H13 8951   3.306   6.464   3.226 -1.2084  0.3586  1.3490
  110MOL    C14 8952   3.548   6.327   3.384  0.1735  0.3185 -0.0272
  110MOL    O15 8953   3.592   6.190   3.378  0.3960 -0.0165 -0.1289
  110MOL    H16 8954   3.528   6.356   3.487 -0.6223  0.2633 -0.1643
  110MOL    H17 8955   3.631   6.388   3.349  1.2491 -1.6124 -0.9398
  110MOL    C18 8956   3.511   6.103   3.455  0.3055  0.4491 -0.2372
  110MOL    O19 8957   3.532   6.115   3.596  0.3668  0.6881  0.1507
  110MOL    H20 8958   3.550   6.007   3.423  2.1638  0.8118  0.8340
  110MOL    H21 8959   3.406   6.112   3.429  0.7436 -0.8596 -2.5595
  110MOL    C22 8960   3.415   6.152   3.662  0.0559  0.2094 -0.2277
  110MOL    O23 8961   3.376   6.287   3.652  0.5783 -0.4780  0.0333
  110MOL    H24 8962   3.429   6.130   3.768 -0.3978  0.2254 -0.1646
  110MOL    H25 8963   3.336   6.078   3.644  2.9937 -3.0574 -0.1944
  110MOL    C26 8964   3.454   6.379   3.736 -0.5322 -0.1514 -0.2132
  110MOL    O27 8965   3.443   6.350   3.876 -0.5484  0.4280  0.2789
  110MOL    H28 8966   3.435   6.484   3.714  0.6530 -0.0864 -1.0060
  110MOL    H29 8967   3.559   6.359   3.715 -0.6748 -1.1160 -0.0053
  110MOL    C30 8968   3.313   6.399   3.912  0.0560  0.5198  0.0078
  110MOL    O31 8969   3.317   6.533   3.938 -0.0462 -0.3874 -0.1318
  110MOL    H32 8970   3.274   6.342   3.997  0.3050 -0.7998 -0.7438
  110MOL    H33 8971   3.246   6.382   3.829  0.6399  1.0820 -0.5839
  110MOL    C34 8972   3.358   6.558   4.063 -0.2868  0.2127 -0.2635
  110MOL    O35 8973   3.267   6.501   4.157  0.1144 -0.1187 -0.0793
  110MOL    H36 8974   3.368   6.667   4.070 -1.3183  0.4117 -1.6392
  110MOL    H37 8975   3.462   6.530   4.081 -1.1372 -3.2852 -0.4516
  110MOL    C38 8976   3.277   6.561   4.281  0.3088  0.4698  0.5122
  110MOL    O39 8977   3.407   6.540   4.342 -0.9340  0.4436 -0.2363
  110MOL    H40 8978   3.196   6.544   4.352 -0.2348  1.4495  0.1375
  110MOL    H41 8979   3.279   6.670   4.274 -0.4301  0.3817 -1.8205
  110MOL    C42 8980   3.420   6.418   4.400 -0.4298 -0.0047 -0.6895
  110MOL    O43 8981   3.557   6.391   4.436 -0.1404  0.2529  0.3131
  110MOL    H44 8982   3.387   6.336   4.335 -1.1384 -1.1421  1.0749
  110MOL    H45 8983   3.347   6.420   4.481  3.0442 -0.9092  2.5840
  110MOL    C46 8984   3.634   6.342   4.334  0.3691  0.3759  0.1545
  110MOL    O47 8985   3.622   6.212   4.312  0.3662 -0.1380 -0.0458
  110MOL    H48 8986   3.738   6.368   4.354  0.3606  0.7122 -0.2258
  110MOL    H49 8987   3.600   6.395   4.245  1.1829 -0.0816 -0.4388
  110MOL    C50 8988   3.666   6.130   4.416  0.1321  0.5148  0.1149
  110MOL    O51 8989   3.803   6.142   4.442  0.2298 -0.1774  0.1772
  110MOL    H52 8990   3.660   6.027   4.381 -0.1389 -0.3747  2.6688
  110MOL    H53 8991   3.598   6.129   4.501  1.6179 -0.1796  1.3220
  110MOL    C54 8992   3.886   6.096   4.336 -0.2268 -0.2939 -0.7992
  110MOL    O55 8993   3.889   5.959   4.324 -0.0645 -0.0993 -0.1662
  110MOL    H56 8994   3.988   6.128   4.359 -0.1342 -0.0650 -1.5204
  110MOL    H57 8995   3.861   6.145   4.242 -2.0209 -0.3222 -0.3484
  110MOL    C58 8996   3.955   5.901   4.431  0.2288  0.2908  0.8603
  110MOL    O59 8997   4.096   5.927   4.429 -0.1545  0.0157  0.4115
  110MOL    H60 8998   3.948   5.793   4.429  0.1886  0.2634  2.4655
  110MOL    H61 8999   3.916   5.944   4.523  0.6093  0.9976  0.6965
  110MOL    C62 9000   4.159   5.859   4.532 -0.0598  0.6939 -0.3447
  110MOL    O63 9001   4.107   5.897   4.653  0.0597 -0.2927 -0.6138
  110MOL    H64 9002   4.266   5.875   4.527  0.0807  0.5894  1.8092
  110MOL    H65 9003   4.145   5.751   4.528 -0.5386  0.7206  0.4099
  110MOL    C66 9004   4.168   6.008   4.702  0.0289  0.4501  0.4304
  110MOL    O67 9005   4.297   5.971   4.747 -0.0293 -0.2067 -0.5150
  110MOL    H68 9006   4.113   6.037   4.792  1.6983  1.0189  1.2856
  110MOL    H69 9007   4.178   6.087   4.628 -0.8653  0.9511  0.8272
  110MOL    C70 9008   4.370   6.086   4.796 -0.2428 -0.1942  0.7404
  110MOL    O71 9009   4.372   6.186   4.698 -0.3617  0.3504  0.4211
  110MOL    H72 9010   4.472   6.069   4.831 -0.8234  0.0398  2.5800
  110MOL    H73 9011   4.319   6.125   4.884 -0.8921 -0.9853  0.7173
  110MOL    C74 9012   4.460   6.160   4.593 -0.2753 -0.7226  0.3426
  110MOL    O75 9013   4.592   6.188   4.623  0.1512 -0.3374  0.0096
  110MOL    H76 9014   4.426   6.226   4.513 -0.2078 -1.3261 -0.1880
  110MOL    H77 9015   4.462   6.058   4.556 -0.8135 -0.4154 -0.5537
  110MOL    C78 9016   4.617   6.324   4.659 -0.1650 -0.1915 -0.0881
  110MOL    O79 9017   4.755   6.330   4.679 -0.3033 -0.2199 -0.1562
  110MOL    H80 9018   4.571   6.356   4.753 -0.3182 -0.9638  0.1017
  110MOL    H81 9019   4.593   6.391   4.577 -2.4243 -0.9537 -0.0864
  110MOL    H82 9020   4.767   6.345   4.772  2.2174  0.0644 -0.4931
  111MOL     C1 9021   0.332   5.492   0.605 -0.0039 -0.3372  0.4307
  111MOL     O2 9022   0.474   5.511   0.618  0.5022 -0.0313  0.2346
  111MOL     H3 9023   0.287   5.428   0.681 -0.1405 -2.1540 -1.1336
  111MOL     H4 9024   0.274   5.584   0.617  0.2697 -0.1536  0.3404
  111MOL     H5 9025   0.304   5.453   0.507  2.5820 -1.4234  0.0960
  111MOL     C6 9026   0.554   5.399   0.598 -0.2229  1.0115  0.1933
  111MOL     O7 9027   0.532   5.304   0.694  0.0197  0.0089 -0.2521
  111MOL     H8 9028   0.656   5.437   0.587  0.7410 -1.6027 -0.0536
  111MOL     H9 9029   0.526   5.356   0.502  1.2072 -1.1807  0.7312
  111MOL    C10 9030   0.569   5.347   0.823  0.2134  0.2846 -0.6773
  111MOL    O11 9031   0.527   5.257   0.921  0.5050 -0.1775 -0.0367
  111MOL    H12 9032   0.540   5.446   0.859  1.8925  0.0080  1.5212
  111MOL    H13 9033   0.678   5.349   0.823  0.2702 -0.9456  1.3146
  111MOL    C14 9034   0.390   5.275   0.958 -0.7900 -0.0501 -0.1354
  111MOL    O15 9035   0.380   5.368   1.058 -0.3029  0.4438 -0.3643
  111MOL    H16 9036   0.354   5.183   1.005  0.4826  1.0191  3.0488
  111MOL    H17 9037   0.331   5.299   0.870 -0.3705 -1.5671 -0.8486
  111MOL    C18 9038   0.248   5.387   1.092  0.0999 -0.2820  0.2906
  111MOL    O19 9039   0.162   5.416   0.989  1.2494  0.3186 -0.1045
  111MOL    H20 9040   0.234   5.458   1.173  1.9196  0.4773 -0.0395
  111MOL    H21 9041   0.209   5.294   1.134  0.7897 -0.8950 -0.4159
  111MOL    C22 9042   0.183   5.541   0.932  0.1028  0.8143 -0.3758
  111MOL    O23 9043   0.117   5.548   0.810 -0.3243 -0.4892  0.3679
  111MOL    H24 9044   0.285   5.567   0.905  0.2694  1.5078  0.8699
  111MOL    H25 9045   0.141   5.622   0.993  0.7337 -0.6975  2.1450
  111MOL    C26 9046   7.763   5.557   0.825  0.2550 -0.0089 -0.9879
  111MOL    O27 9047   7.718   5.691   0.848 -0.2636  0.2233  0.8267
  111MOL    H28 9048   7.724   5.485   0.897  2.1504 -1.1681 -1.0899
  111MOL    H29 9049   7.725   5.514   0.732 -1.9768 -0.1682 -0.0481
  111MOL    C30 9050   7.745   5.782   0.743 -0.0261  0.1558  0.2437
  111MOL    O31 9051   7.698   5.915   0.772  0.2286  0.1941  0.6834
  111MOL    H32 9052   7.718   5.743   0.645 -0.1799  1.9390 -0.4358
  111MOL    H33 9053   0.070   5.789   0.741  0.0012  1.4075  3.3274
  111MOL    C34 9054   7.556   5.915   0.763 -0.1373 -0.4159  0.3469
  111MOL    O35 9055   7.508   5.876   0.638 -0.7460 -0.1531  0.0128
  111MOL    H36 9056   7.522   6.013   0.796 -0.1396 -0.6617  1.0688
  111MOL    H37 9057   7.516   5.844   0.835 -1.0759 -0.4717 -0.2153
  111MOL    C38 9058   7.551   5.972   0.540  0.8515  0.7832 -0.4533
  111MOL    O39 9059   7.446   6.051   0.498  0.5845 -0.2440 -0.1465
  111MOL    H40 9060   7.588   5.906   0.461 -0.1374  0.3825 -0.5865
  111MOL    H41 9061   7.644   6.022   0.570  1.7595 -1.0479 -0.1563
  111MOL    C42 9062   7.437   6.177   0.557 -0.0989  0.2070 -0.3600
  111MOL    O43 9063   7.302   6.219   0.558  0.2784  0.1040 -0.2199
  111MOL    H44 9064   7.491   6.250   0.496  0.8203 -0.2686 -0.1343
  111MOL    H45 9065   7.481   6.173   0.657  0.6023 -3.2009 -0.7521
  111MOL    C46 9066   7.224   6.138   0.638  0.3067 -0.3339  1.0182
  111MOL    O47 9067   7.091   6.136   0.592  0.1477 -0.6111 -0.9246
  111MOL    H48 9068   7.229   6.164   0.744 -0.9736  0.5298  0.8810
  111MOL    H49 9069   7.249   6.032   0.639 -0.7144 -0.5762  1.3505
  111MOL    C50 9070   7.023   6.256   0.623 -0.0541 -0.2854 -0.0256
  111MOL    O51 9071   6.981   6.259   0.751 -0.3431 -0.0004  0.0362
  111MOL    H52 9072   6.933   6.264   0.561  0.7925  3.3569 -0.8883
  111MOL    H53 9073   7.096   6.336   0.614  0.3300 -0.8017 -1.6849
  111MOL    C54 9074   6.934   6.134   0.801 -0.3441 -0.0978 -0.0453
  111MOL    O55 9075   7.001   6.105   0.920 -0.0169 -0.1438  0.4861
  111MOL    H56 9076   6.959   6.050   0.736 -0.2543 -1.3903  1.6081
  111MOL    H57 9077   6.825   6.135   0.799 -0.3322  0.5593 -0.6073
  111MOL    C58 9078   6.929   6.161   1.025 -0.4303 -0.3653  0.2142
  111MOL    O59 9079   6.966   6.119   1.147 -0.1594  0.3351 -0.6900
  111MOL    H60 9080   6.826   6.131   1.006 -0.4494  1.2858 -2.6320
  111MOL    H61 9081   6.929   6.270   1.018 -1.2993 -0.2521  1.6391
  111MOL    C62 9082   7.102   6.131   1.169  0.2570 -0.5296 -0.1414
  111MOL    O63 9083   7.136   6.148   1.305  0.0532 -0.2332 -0.1081
  111MOL    H64 9084   7.146   6.215   1.115  0.2297 -0.2179  0.3174
  111MOL    H65 9085   7.140   6.035   1.133 -0.1190 -0.7549  0.0642
  111MOL    C66 9086   7.068   6.250   1.364  0.3993  0.5281 -0.1426
  111MOL    O67 9087   7.127   6.295   1.482 -0.4531 -0.3136 -0.2041
  111MOL    H68 9088   6.972   6.209   1.391  1.3311 -1.1433  0.6884
  111MOL    H69 9089   7.057   6.334   1.295 -3.1584  0.3795  0.1814
  111MOL    C70 9090   7.254   6.352   1.474  0.0363  0.0785  0.4037
  111MOL    O71 9091   7.245   6.482   1.417  0.4325  0.0629 -0.7788
  111MOL    H72 9092   7.315   6.279   1.422 -0.7511 -0.6411  0.4871
  111MOL    H73 9093   7.298   6.369   1.572 -1.3292  0.6410  0.9337
  111MOL    C74 9094   7.189   6.580   1.498  0.3626  0.7300  0.5295
  111MOL    O75 9095   7.198   6.709   1.452  0.2672 -0.2417  0.1071
  111MOL    H76 9096   7.234   6.570   1.597  2.7682  2.8647 -0.3297
  111MOL    H77 9097   7.084   6.552   1.513  1.0614 -2.4506 -0.0339
  111MOL    C78 9098   7.327   6.768   1.456  0.2997  0.5407 -0.0109
  111MOL    O79 9099   7.331   6.899   1.396  0.0264  0.5840  0.3409
  111MOL    H80 9100   7.384   6.704   1.388  0.2128  0.2014  0.2305
  111MOL    H81 9101   7.361   6.769   1.560 -1.5448  1.9355  0.5991
  111MOL    H82 9102   7.390   6.889   1.323  1.4027  3.5721  0.9614
  112MOL     C1 9103   7.171   6.913   7.062 -0.1980  0.0498  0.1878
  112MOL     O2 9104   7.255   6.917   7.183 -0.4487 -0.0888  0.3227
  112MOL     H3 9105   7.108   7.001   7.046 -1.3804 -0.1314  3.4601
  112MOL     H4 9106   7.246   6.909   6.983  1.7441 -1.0958  2.0429
  112MOL     H5 9107   7.103   6.828   7.061 -0.1676  0.0201  0.7657
  112MOL     C6 9108   7.360   6.816   7.190  0.4583  0.1191 -0.4701
  112MOL     O7 9109   7.306   6.686   7.211 -0.0505  0.0385 -0.4038
  112MOL     H8 9110   7.434   6.840   7.266 -0.1950 -1.0510  0.5573
  112MOL     H9 9111   7.416   6.806   7.097 -0.7131 -0.8794 -1.0856
  112MOL    C10 9112   7.208   6.679   7.316  0.0177 -0.0195  0.6521
  112MOL    O11 9113   7.257   6.690   7.446 -0.2871 -0.2649  0.4043
  112MOL    H12 9114   7.157   6.584   7.306  0.0414  0.0739 -0.4523
  112MOL    H13 9115   7.135   6.757   7.294 -0.2758 -1.0279 -2.2498
  112MOL    C14 9116   7.318   6.573   7.492 -0.5480 -0.0983  0.3379
  112MOL    O15 9117   7.410   6.605   7.591 -0.5082  0.1201 -0.3139
  112MOL    H16 9118   7.386   6.530   7.418 -1.9524 -0.3574 -0.8294
  112MOL    H17 9119   7.245   6.500   7.525  1.2557 -1.0423  2.3251
  112MOL    C18 9120   7.339   6.633   7.707 -0.1944 -0.2007 -0.1979
  112MOL    O19 9121   7.261   6.537   7.766 -0.2563  0.5481  0.0547
  112MOL    H20 9122   7.274   6.720   7.697  2.1103  1.8814  2.1983
  112MOL    H21 9123   7.411   6.675   7.777  0.1074  1.8065 -1.6753
  112MOL    C22 9124   7.339   6.432   0.028 -0.0538 -0.3123 -0.3299
  112MOL    O23 9125   7.411   6.461   0.142 -0.5204 -0.1702 -0.2940
  112MOL    H24 9126   7.407   6.403   7.731 -0.7485 -1.1137 -0.6321
  112MOL    H25 9127   7.280   6.340   0.033 -1.0725  0.0825 -3.6070
  112MOL    C26 9128   7.334   6.465   0.260 -0.6124  0.2714  0.4806
  112MOL    O27 9129   7.419   6.464   0.365 -0.2371 -0.1291  0.5104
  112MOL    H28 9130   7.284   6.368   0.272 -2.1104  0.8670 -0.6631
  112MOL    H29 9131   7.264   6.549   0.262 -2.5611 -1.1677 -2.5883
  112MOL    C30 9132   7.485   6.586   0.384  0.8213 -0.3025 -0.1749
  112MOL    O31 9133   7.420   6.669   0.473  0.2120 -0.3334  0.2316
  112MOL    H32 9134   7.495   6.642   0.291  0.2547 -2.1239 -1.3693
  112MOL    H33 9135   7.590   6.574   0.409  0.9992  0.3164 -0.6136
  112MOL    C34 9136   7.420   6.622   0.608 -0.2797  0.0113  0.4144
  112MOL    O35 9137   7.542   6.651   0.675 -0.2096  0.1326 -0.0045
  112MOL    H36 9138   7.405   6.514   0.618 -0.2735 -0.0394 -0.0996
  112MOL    H37 9139   7.333   6.661   0.662 -0.0910 -1.0994  1.5591
  112MOL    C38 9140   7.555   6.786   0.696 -0.0430 -0.5770  0.3247
  112MOL    O39 9141   7.462   6.835   0.782 -0.3735  0.3115 -0.1191
  112MOL    H40 9142   7.518   6.835   0.606 -0.4404 -1.6879 -0.1305
  112MOL    H41 9143   7.658   6.806   0.725 -0.5174 -2.0492  3.2777
  112MOL    C42 9144   7.473   6.804   0.913 -0.7870  0.4003  0.2367
  112MOL    O43 9145   7.569   6.884   0.970  0.0838 -0.6918 -0.1007
  112MOL    H44 9146   7.507   6.700   0.922 -0.7078  0.2204 -1.8910
  112MOL    H45 9147   7.381   6.826   0.966  0.0737  1.7700  1.2163
  112MOL    C46 9148   7.524   7.014   1.000 -0.7787 -0.0744  0.2137
  112MOL    O47 9149   7.455   7.028   1.120  0.3615  0.1590  0.3121
  112MOL    H48 9150   7.458   7.045   0.918  0.5034  1.1409 -0.3863
  112MOL    H49 9151   7.618   7.069   0.993 -0.5072 -0.5167  0.3736
  112MOL    C50 9152   7.387   7.153   1.123  0.1555 -0.4726 -0.0730
  112MOL    O51 9153   7.464   7.266   1.111 -0.4986 -0.2440 -0.5466
  112MOL    H52 9154   7.328   7.151   1.214  0.4230 -0.9454  0.0904
  112MOL    H53 9155   7.315   7.158   1.041 -0.0020  3.3624  0.2239
  112MOL    C54 9156   7.559   7.286   1.217  0.2631  0.2053 -0.2986
  112MOL    O55 9157   7.581   7.421   1.245 -0.4089  0.2691 -0.6230
  112MOL    H56 9158   7.652   7.238   1.188 -0.6816 -0.8588 -1.6051
  112MOL    H57 9159   7.517   7.245   1.309 -0.8722 -1.6318 -1.6013
  112MOL    C58 9160   7.484   7.475   1.322 -0.4315 -0.1010 -0.8713
  112MOL    O59 9161   7.495   7.611   1.334 -0.4664 -0.0267  0.3272
  112MOL    H60 9162   7.493   7.445   1.426  2.7261 -0.6673 -1.2618
  112MOL    H61 9163   7.386   7.460   1.277  0.2332 -1.1651 -2.0187
  112MOL    C62 9164   7.626   7.649   1.373 -0.0219  0.1356  0.5362
  112MOL    O63 9165   7.649   7.597   1.501  0.2527  0.3044 -0.2971
  112MOL    H64 9166   7.647   7.755   1.391 -1.4788  0.3715  0.8909
  112MOL    H65 9167   7.695   7.618   1.294  1.2462 -1.3530  2.1825
  112MOL    C66 9168   7.783   7.608   1.528  0.2572 -0.5355 -0.1174
  112MOL    O67 9169   0.092   7.540   1.439  0.6435  0.6265 -0.3677
  112MOL    H68 9170   0.001   7.572   1.631 -2.0304  0.6354  0.3738
  112MOL    H69 9171   0.038   7.710   1.525  0.4876 -0.6414 -0.6461
  112MOL    C70 9172   0.091   7.399   1.447  0.7969  0.5032  0.2377
  112MOL    O71 9173   0.164   7.362   1.558 -0.3645 -0.3035 -0.5331
  112MOL    H72 9174   0.133   7.353   1.358  0.2680  0.0410  0.2221
  112MOL    H73 9175   7.774   7.356   1.454  1.2834 -0.5964  0.6658
  112MOL    C74 9176   0.302   7.384   1.544  0.1162  0.6814 -0.6415
  112MOL    O75 9177   0.359   7.302   1.443 -0.1585  0.4235 -0.4118
  112MOL    H76 9178   0.343   7.363   1.643 -1.3649 -1.2449 -0.3869
  112MOL    H77 9179   0.318   7.490   1.526  3.6638 -0.0552 -2.3662
  112MOL    C78 9180   0.333   7.161   1.462 -0.3083 -0.4903  0.5563
  112MOL    O79 9181   0.406   7.084   1.374 -0.0044 -0.2380 -0.2536
  112MOL    H80 9182   0.231   7.132   1.439  0.2149 -2.5080  0.7317
  112MOL    H81 9183   0.356   7.129   1.563  0.5308 -0.2881  0.4338
  112MOL    H82 9184   0.421   7.004   1.422 -1.6623 -0.5510 -0.2341
  113MOL     C1 9185   6.184   7.554   1.818 -0.1231 -0.1918  0.0071
  113MOL     O2 9186   6.210   7.600   1.694  0.5420  0.0348 -0.4497
  113MOL     H3 9187   6.275   7.560   1.877  0.8277  0.8245 -1.5263
  113MOL     H4 9188   6.106   7.610   1.868  0.9303 -1.3421  3.0242
  113MOL     H5 9189   6.149   7.452   1.799  1.3928 -0.6891 -0.2006
  113MOL     C6 9190   6.302   7.713   1.694 -0.6976 -0.4471 -0.1822
  113MOL     O7 9191   6.434   7.681   1.728 -0.5118 -0.0121  0.2945
  113MOL     H8 9192   6.263   0.003   1.764  0.6091  1.7660 -1.7167
  113MOL     H9 9193   6.291   7.761   1.597 -0.6620  0.2176  0.1413
  113MOL    C10 9194   6.509   7.625   1.629 -0.9075 -0.0006 -0.1849
  113MOL    O11 9195   6.534   7.714   1.522  0.2734  0.4672 -0.0432
  113MOL    H12 9196   6.454   7.542   1.585  0.1158 -1.4505  1.2316
  113MOL    H13 9197   6.604   7.586   1.666 -0.6076  0.9097  0.0084
  113MOL    C14 9198   6.659   7.773   1.520 -0.3535  0.0752 -0.7620
  113MOL    O15 9199   6.693   0.027   1.393  0.1855  0.5499 -0.2304
  113MOL    H16 9200   6.740   7.716   1.566  0.1781  1.0371 -0.4938
  113MOL    H17 9201   6.643   0.073   1.589 -3.4481 -1.1423  0.0837
  113MOL    C18 9202   6.756   7.714   1.328 -0.1346  0.0759  0.7724
  113MOL    O19 9203   6.770   7.734   1.197  0.4385 -0.6889 -0.3663
  113MOL    H20 9204   6.697   7.622   1.335 -2.0309  1.3333  1.7384
  113MOL    H21 9205   6.857   7.689   1.359  0.8486  0.7760 -1.7557
  113MOL    C22 9206   6.867   0.052   1.168  0.5443  0.3434  0.3182
  113MOL    O23 9207   6.827   0.172   1.209  0.1753 -0.0678 -0.4786
  113MOL    H24 9208   6.888   0.060   1.061 -1.3637  2.4813  0.0709
  113MOL    H25 9209   6.963   0.026   1.213  1.7273  2.4215 -0.8912
  113MOL    C26 9210   6.719   0.218   1.133 -0.3976  1.0735 -0.4050
  113MOL    O27 9211   6.752   0.282   1.015  0.0273 -0.2159 -0.6313
  113MOL    H28 9212   6.647   0.263   1.201 -1.8773 -2.1886  0.2511
  113MOL    H29 9213   6.662   0.129   1.104 -1.0430  0.9814  1.1256
  113MOL    C30 9214   6.773   0.415   1.029 -0.5120 -0.0571  0.2300
  113MOL    O31 9215   6.657   0.483   1.084  0.2906 -0.3925  0.1732
  113MOL    H32 9216   6.810   0.462   0.939 -0.8476  1.1983  0.7366
  113MOL    H33 9217   6.854   0.436   1.098  0.1820  2.2693 -1.2309
  113MOL    C34 9218   6.553   0.501   0.995 -0.1388 -0.3616  0.7458
  113MOL    O35 9219   6.593   0.586   0.892 -0.1620  0.1038  0.2025
  113MOL    H36 9220   6.461   0.538   1.040 -0.2159  0.3908 -0.0135
  113MOL    H37 9221   6.538   0.405   0.946 -0.6453 -0.5559  1.2754
  113MOL    C38 9222   6.598   0.720   0.939  0.4935 -0.2183  0.7887
  113MOL    O39 9223   6.636   0.798   0.836  0.5931  0.4278  0.7235
  113MOL    H40 9224   6.664   0.733   1.025  2.2368  1.2423 -0.7231
  113MOL    H41 9225   6.499   0.759   0.961 -0.6720 -3.1766  0.9338
  113MOL    C42 9226   6.771   0.783   0.795  0.3044 -0.2051 -0.0589
  113MOL    O43 9227   6.788   0.662   0.734 -0.5450 -0.5697  0.5667
  113MOL    H44 9228   6.836   0.795   0.882  0.0002 -1.2709  0.3301
  113MOL    H45 9229   6.795   0.861   0.724  1.0121 -1.6180 -1.4004
  113MOL    C46 9230   6.716   0.651   0.617 -0.2780 -0.1984  0.2971
  113MOL    O47 9231   6.769   0.732   0.510  0.3247 -0.3649 -0.0790
  113MOL    H48 9232   6.611   0.680   0.624  0.0237  0.7336  1.0224
  113MOL    H49 9233   6.720   0.544   0.596  1.5140 -0.0001 -0.4520
  113MOL    C50 9234   6.889   0.686   0.465 -0.9139  0.0001  0.1810
  113MOL    O51 9235   6.928   0.739   0.341  0.5682 -0.1923  0.0387
  113MOL    H52 9236   6.900   0.578   0.452 -1.8266 -0.0649 -0.0427
  113MOL    H53 9237   6.967   0.725   0.531  0.8505 -2.0653 -0.6377
  113MOL    C54 9238   6.855   0.693   0.231 -0.2749  0.0182  0.5510
  113MOL    O55 9239   6.873   0.559   0.205 -0.0703  0.1215  0.4161
  113MOL    H56 9240   6.883   0.750   0.142 -1.9771  1.4356  0.8966
  113MOL    H57 9241   6.748   0.706   0.250 -0.3609 -0.7594  0.6304
  113MOL    C58 9242   6.998   0.529   0.174 -0.6348 -0.1425 -0.1233
  113MOL    O59 9243   7.032   0.580   0.048 -0.3630 -0.3181  0.0249
  113MOL    H60 9244   7.006   0.421   0.162 -0.3793 -0.1690  0.2787
  113MOL    H61 9245   7.074   0.564   0.245  2.7826 -1.1551 -3.1315
  113MOL    C62 9246   6.955   0.523   7.730 -0.0070 -1.0287  0.1518
  113MOL    O63 9247   7.007   0.553   7.600  0.0990  0.1209  0.7029
  113MOL    H64 9248   6.849   0.547   7.736  0.1892  0.1668 -0.9800
  113MOL    H65 9249   6.965   0.414   7.736 -1.2282 -1.1490 -0.0101
  113MOL    C66 9250   7.024   0.685   7.572 -0.1908  0.1869  0.4014
  113MOL    O67 9251   6.909   0.762   7.605  0.0050 -0.5009 -0.1911
  113MOL    H68 9252   7.043   0.695   7.465 -2.6976  0.9629 -0.0049
  113MOL    H69 9253   7.106   0.726   7.631  0.2137  1.2342 -0.8766
  113MOL    C70 9254   6.791   0.733   7.531  0.4980 -0.0796 -0.2418
  113MOL    O71 9255   6.688   0.825   7.569 -0.5828 -0.1356  0.1506
  113MOL    H72 9256   6.759   0.629   7.540 -1.9346  0.3099 -3.4708
  113MOL    H73 9257   6.808   0.743   7.424 -0.1063 -0.9000 -0.4186
  113MOL    C74 9258   6.634   0.799   7.696 -0.1119 -0.1171  0.1017
  113MOL    O75 9259   6.584   0.665   7.706  0.2745 -0.0982  0.1476
  113MOL    H76 9260   6.565   0.880   7.722  1.2107  1.9481 -2.6093
  113MOL    H77 9261   6.700   0.800   7.782 -1.2884 -3.3548  1.1262
  113MOL    C78 9262   6.494   0.644   7.603  1.3243  0.3296 -0.1161
  113MOL    O79 9263   6.456   0.508   7.601 -0.3605 -0.2412  1.0292
  113MOL    H80 9264   6.527   0.682   7.506 -0.8924 -0.2665 -1.1480
  113MOL    H81 9265   6.403   0.699   7.629  0.1103 -1.4015 -0.5804
  113MOL    H82 9266   6.414   0.480   7.681 -0.1844  1.2404  1.6628
  114MOL     C1 9267   6.604   7.299   1.353 -0.1799 -0.4724  0.0004
  114MOL     O2 9268   6.741   7.269   1.362 -0.2649  0.4615  0.1692
  114MOL     H3 9269   6.529   7.226   1.382 -0.7315  0.0219 -0.1589
  114MOL     H4 9270   6.587   7.394   1.404  0.8620 -0.9975  1.3577
  114MOL     H5 9271   6.580   7.330   1.251 -0.5727 -1.1781 -0.1234
  114MOL     C6 9272   6.785   7.269   1.497 -0.0049 -0.0867  0.4174
  114MOL     O7 9273   6.767   7.392   1.558  0.5469 -0.2307  0.4565
  114MOL     H8 9274   6.890   7.238   1.500 -0.1343 -0.7969 -1.3609
  114MOL     H9 9275   6.723   7.189   1.538 -2.0351  0.2773 -1.8071
  114MOL    C10 9276   6.802   7.386   1.694  0.1375 -1.0020 -0.3325
  114MOL    O11 9277   6.694   7.338   1.757 -0.1580 -0.0077  0.3707
  114MOL    H12 9278   6.823   7.489   1.722  0.9301  0.2508 -5.0947
  114MOL    H13 9279   6.893   7.330   1.718  2.4282  3.0005  0.7633
  114MOL    C14 9280   6.711   7.334   1.892  0.0700  0.3101  0.2644
  114MOL    O15 9281   6.814   7.257   1.933 -0.4741  0.0790 -0.2581
  114MOL    H16 9282   6.618   7.311   1.943  0.2789  0.2533  0.6210
  114MOL    H17 9283   6.749   7.430   1.926  0.4708 -0.4338  1.9324
  114MOL    C18 9284   6.769   7.124   1.917 -0.1001 -0.1577 -0.0052
  114MOL    O19 9285   6.684   7.093   2.018  0.1151  0.5378  0.2258
  114MOL    H20 9286   6.858   7.062   1.915  0.1273  0.1628  0.1568
  114MOL    H21 9287   6.716   7.113   1.822 -0.3781 -1.8158  0.3337
  114MOL    C22 9288   6.751   7.049   2.126 -0.2046  0.3461 -0.4430
  114MOL    O23 9289   6.788   6.917   2.117 -0.1063 -0.5315  0.0877
  114MOL    H24 9290   6.687   7.059   2.213 -0.0557 -0.9301 -0.1654
  114MOL    H25 9291   6.836   7.116   2.139 -0.2518  0.7044 -1.8698
  114MOL    C26 9292   6.690   6.828   2.148  0.0719  0.4188  0.2757
  114MOL    O27 9293   6.725   6.694   2.103  0.2764 -0.6308 -0.6341
  114MOL    H28 9294   6.599   6.863   2.099 -0.1715 -0.8357 -0.1876
  114MOL    H29 9295   6.666   6.826   2.254 -0.0404  0.8296  0.2602
  114MOL    C30 9296   6.616   6.620   2.071 -0.6257  0.2045 -1.1889
  114MOL    O31 9297   6.559   6.655   1.944 -0.0780  0.2680  0.4783
  114MOL    H32 9298   6.537   6.633   2.145  0.8476 -1.1168  0.6786
  114MOL    H33 9299   6.652   6.517   2.070 -1.4226 -0.0768 -1.2602
  114MOL    C34 9300   6.636   6.608   1.838 -0.2209 -0.2859  0.4481
  114MOL    O35 9301   6.680   6.715   1.750  0.7306 -0.1848 -0.2410
  114MOL    H36 9302   6.581   6.540   1.773 -1.0306 -1.0270  1.8788
  114MOL    H37 9303   6.724   6.549   1.866 -2.5917 -3.3703  1.6687
  114MOL    C38 9304   6.756   6.812   1.814  0.2830 -0.2473  0.7779
  114MOL    O39 9305   6.812   6.899   1.727 -0.3189 -0.2071  0.7899
  114MOL    H40 9306   6.832   6.760   1.873  1.6698 -0.7181 -1.3781
  114MOL    H41 9307   6.693   6.875   1.877 -0.0648  0.8718 -0.6634
  114MOL    C42 9308   6.916   6.850   1.643 -0.6642 -0.6139 -0.2222
  114MOL    O43 9309   6.875   6.757   1.543  0.1941  0.1823 -0.2107
  114MOL    H44 9310   6.972   6.785   1.711 -1.0204  1.4642  2.1470
  114MOL    H45 9311   6.982   6.927   1.602 -1.2582 -0.4815 -0.9226
  114MOL    C46 9312   6.814   6.830   1.442  0.0181 -0.1386  0.1601
  114MOL    O47 9313   6.907   6.915   1.364  0.3476  0.1248  0.4654
  114MOL    H48 9314   6.738   6.900   1.477  0.4455  1.1400 -1.4051
  114MOL    H49 9315   6.770   6.755   1.377  0.9890 -1.3101  0.8133
  114MOL    C50 9316   6.988   6.829   1.287  0.0580 -0.1478 -0.0618
  114MOL    O51 9317   6.922   6.808   1.168 -0.0688  0.0111  0.7368
  114MOL    H52 9318   6.996   6.739   1.347 -1.3327  0.1317  0.5586
  114MOL    H53 9319   7.087   6.875   1.280 -1.2975  2.8108 -0.7898
  114MOL    C54 9320   7.009   6.748   1.073  0.1364 -0.0966  0.2377
  114MOL    O55 9321   7.008   6.607   1.091 -0.0920 -0.1112  1.0794
  114MOL    H56 9322   7.111   6.785   1.063  1.0312 -3.1843 -3.1871
  114MOL    H57 9323   6.966   6.764   0.974  1.2226  0.3991 -0.1661
  114MOL    C58 9324   7.055   6.547   0.975 -0.8104 -0.0121  0.2415
  114MOL    O59 9325   7.184   6.584   0.934 -0.1492 -0.2174 -0.2849
  114MOL    H60 9326   6.979   6.572   0.901 -1.8596 -0.6281  1.0900
  114MOL    H61 9327   7.050   6.438   0.980  0.1169  0.0010  1.4967
  114MOL    C62 9328   7.282   6.541   1.026 -0.1695 -0.4935  0.1307
  114MOL    O63 9329   7.388   6.499   0.957  0.4140  0.2286  0.2562
  114MOL    H64 9330   7.248   6.472   1.104  1.2968 -1.1740  0.1743
  114MOL    H65 9331   7.313   6.630   1.080  0.9035 -0.9601  0.2901
  114MOL    C66 9332   7.382   6.369   0.911  0.2879  0.3201  0.7831
  114MOL    O67 9333   7.363   6.283   1.011 -0.0879  0.1750  0.3231
  114MOL    H68 9334   7.473   6.345   0.857  1.0606  4.7653 -0.1394
  114MOL    H69 9335   7.304   6.370   0.835  0.8842  0.3706  0.1705
  114MOL    C70 9336   7.476   6.269   1.097  0.1654  0.2785  0.2413
  114MOL    O71 9337   7.544   6.152   1.066 -0.3767 -0.5496 -0.7273
  114MOL    H72 9338   7.445   6.274   1.201 -0.4262 -2.2929  0.2339
  114MOL    H73 9339   7.542   6.355   1.090  0.7255 -0.1464  0.2940
  114MOL    C74 9340   7.472   6.042   1.108  0.2055 -0.6212  0.8482
  114MOL    O75 9341   7.452   6.045   1.246  0.0016  0.6125 -0.2203
  114MOL    H76 9342   7.523   5.954   1.068  0.8123  0.5164 -0.9095
  114MOL    H77 9343   7.375   6.049   1.059 -0.4961 -0.1235  2.2693
  114MOL    C78 9344   7.565   6.024   1.321  0.0960  0.0689 -0.9394
  114MOL    O79 9345   7.554   6.068   1.456  0.0280 -0.3063  0.4291
  114MOL    H80 9346   7.655   6.073   1.281  1.1477 -1.0470  0.0185
  114MOL    H81 9347   7.578   5.916   1.332 -2.5375 -0.4316 -2.4095
  114MOL    H82 9348   7.531   5.989   1.502  1.1078 -1.0014 -0.2065
  115MOL     C1 9349   5.665   4.661   4.962 -0.2362 -0.4799 -0.4529
  115MOL     O2 9350   5.749   4.773   4.949 -0.5558 -0.3491 -0.0586
  115MOL     H3 9351   5.661   4.616   4.862  0.9953 -1.3710 -0.1123
  115MOL     H4 9352   5.700   4.584   5.031 -2.8077 -1.1801  0.1167
  115MOL     H5 9353   5.564   4.685   4.994 -1.2353 -2.9502 -1.5665
  115MOL     C6 9354   5.879   4.727   4.915 -0.7359  0.2265 -0.4819
  115MOL     O7 9355   5.967   4.828   4.892 -0.5231 -0.3347 -0.0003
  115MOL     H8 9356   5.881   4.676   4.819 -0.1494 -0.5306 -0.0766
  115MOL     H9 9357   5.928   4.669   4.993  1.2818 -0.3230 -2.0932
  115MOL    C10 9358   5.980   4.926   4.990  0.1407  0.7464  0.2598
  115MOL    O11 9359   6.090   5.002   4.955 -0.7471  0.2059 -0.3611
  115MOL    H12 9360   5.985   4.882   5.090  0.4809 -1.2161 -0.6085
  115MOL    H13 9361   5.887   4.982   4.983  0.3803  1.1394  0.1737
  115MOL    C14 9362   6.068   5.074   4.840 -0.8197  0.1495  0.8839
  115MOL    O15 9363   6.190   5.115   4.780 -0.5295 -0.1128 -0.0666
  115MOL    H16 9364   6.001   5.160   4.842 -0.6375  0.3533 -0.7513
  115MOL    H17 9365   6.042   5.012   4.754  2.7165 -2.1556  1.3898
  115MOL    C18 9366   6.249   5.218   4.843  0.0751 -0.7404 -0.4503
  115MOL    O19 9367   6.179   5.331   4.809  0.0624 -0.1122  0.0574
  115MOL    H20 9368   6.351   5.219   4.805  0.1892 -2.5398 -0.2603
  115MOL    H21 9369   6.263   5.198   4.950 -0.0738 -0.5954 -0.4037
  115MOL    C22 9370   6.236   5.451   4.864  0.0296  0.2176 -0.0699
  115MOL    O23 9371   6.219   5.459   5.003  0.6857 -0.1713  0.2590
  115MOL    H24 9372   6.186   5.533   4.812 -0.2979  0.2874  0.3576
  115MOL    H25 9373   6.343   5.466   4.847  0.2151  0.0463  0.9462
  115MOL    C26 9374   6.092   5.423   5.046  0.0931 -0.1576 -0.9445
  115MOL    O27 9375   6.094   5.459   5.185 -0.3912  0.2579  0.4165
  115MOL    H28 9376   6.090   5.315   5.039  2.2971 -0.1121 -2.9910
  115MOL    H29 9377   6.010   5.459   4.984 -1.3002  1.7505  1.8567
  115MOL    C30 9378   5.988   5.414   5.261 -0.1197  0.2359 -0.6070
  115MOL    O31 9379   5.980   5.270   5.251  0.1803  0.1808  0.0067
  115MOL    H32 9380   5.895   5.465   5.236 -1.0826  1.0444  4.0755
  115MOL    H33 9381   6.000   5.444   5.365  0.9453  0.8208 -0.8865
  115MOL    C34 9382   5.885   5.212   5.335 -0.0372 -0.3269 -0.2173
  115MOL    O35 9383   5.750   5.247   5.312 -0.1426 -0.1492  0.1964
  115MOL    H36 9384   5.919   5.239   5.435 -0.3078 -1.4708  0.1993
  115MOL    H37 9385   5.884   5.103   5.326  0.0665 -0.3417 -0.0573
  115MOL    C38 9386   5.714   5.245   5.181 -0.0867 -0.1971  0.2272
  115MOL    O39 9387   5.728   5.116   5.128 -0.0843 -0.5492  0.6385
  115MOL    H40 9388   5.766   5.304   5.106  0.8771  0.7453  1.6131
  115MOL    H41 9389   5.610   5.277   5.186 -0.4938 -1.6325  1.2986
  115MOL    C42 9390   5.605   5.050   5.123 -0.1166  0.1048  0.1365
  115MOL    O43 9391   5.518   5.107   5.029 -0.1655 -0.6649 -0.1226
  115MOL    H44 9392   5.560   5.051   5.223  0.5794  1.4813  0.4466
  115MOL    H45 9393   5.624   4.945   5.102 -0.6888  0.0697 -0.2354
  115MOL    C46 9394   5.546   5.070   4.892  0.5125 -0.3105  0.0336
  115MOL    O47 9395   5.626   5.168   4.826 -0.3745 -0.6484 -0.0495
  115MOL    H48 9396   5.449   5.049   4.848  1.0721 -3.6849  0.3380
  115MOL    H49 9397   5.595   4.973   4.888  1.7596  0.3471 -1.2940
  115MOL    C50 9398   5.547   5.283   4.803 -0.2750 -0.2256 -0.6380
  115MOL    O51 9399   5.543   5.309   4.667  0.3151 -0.7007  0.1356
  115MOL    H52 9400   5.584   5.361   4.870 -0.8353  0.5473 -1.2274
  115MOL    H53 9401   5.446   5.277   4.843  0.2894 -2.0690  0.5509
  115MOL    C54 9402   5.663   5.353   4.611 -0.6242  0.4706 -0.9452
  115MOL    O55 9403   5.677   5.491   4.622  0.6802  0.2417 -1.0722
  115MOL    H56 9404   5.681   5.316   4.510  1.6205  2.2206 -1.2311
  115MOL    H57 9405   5.743   5.317   4.675  1.2257  0.6827 -3.1045
  115MOL    C58 9406   5.579   5.561   4.560  0.3409  0.0794 -0.0131
  115MOL    O59 9407   5.602   5.701   4.581  0.0869  0.2714  0.1890
  115MOL    H60 9408   5.487   5.536   4.613  0.5258  1.0113  0.7684
  115MOL    H61 9409   5.577   5.534   4.454  1.9264 -1.7772  0.4048
  115MOL    C62 9410   5.491   5.777   4.538  0.5687 -1.2378 -0.0606
  115MOL    O63 9411   5.472   5.780   4.401  0.4733  0.4346 -0.1192
  115MOL    H64 9412   5.497   5.881   4.570  1.5794 -0.8262 -1.5574
  115MOL    H65 9413   5.393   5.748   4.576 -0.6942  2.8048  0.0910
  115MOL    C66 9414   5.588   5.834   4.341  0.3365 -0.6817  0.3566
  115MOL    O67 9415   5.577   5.969   4.321  0.2372  0.1627 -0.3495
  115MOL    H68 9416   5.602   5.793   4.241 -1.7044 -1.4816  0.3787
  115MOL    H69 9417   5.682   5.811   4.392  0.1263 -0.2613  0.9406
  115MOL    C70 9418   5.469   6.009   4.251 -0.0838 -0.5147 -0.4975
  115MOL    O71 9419   5.477   6.146   4.221 -0.2067  0.2196  0.5339
  115MOL    H72 9420   5.378   5.993   4.309 -1.8938 -0.5679 -3.2906
  115MOL    H73 9421   5.454   5.951   4.160 -1.6985  1.2333 -1.3745
  115MOL    C74 9422   5.449   6.224   4.332  0.3009  0.4726 -0.4232
  115MOL    O75 9423   5.313   6.245   4.346 -0.2370  0.3923 -0.1032
  115MOL    H76 9424   5.500   6.319   4.314 -0.0337  0.8759  0.7292
  115MOL    H77 9425   5.490   6.192   4.429  1.5553 -1.2681 -1.4782
  115MOL    C78 9426   5.268   6.350   4.257  0.3138 -0.0354 -0.3324
  115MOL    O79 9427   5.128   6.374   4.262  0.0361 -0.2466  0.0901
  115MOL    H80 9428   5.291   6.310   4.158 -0.9364  1.3422 -1.2015
  115MOL    H81 9429   5.323   6.442   4.276 -2.8880  1.8592  0.0845
  115MOL    H82 9430   5.079   6.309   4.214  0.9350 -2.6677  2.3228
  116MOL     C1 9431   6.021   3.889   4.094 -0.3937 -0.3630 -0.1826
  116MOL     O2 9432   6.009   3.822   4.216 -0.1073 -0.3121  0.3605
  116MOL     H3 9433   6.106   3.850   4.038  0.4276 -0.0042  0.7847
  116MOL     H4 9434   5.927   3.879   4.040 -0.7170 -1.4843  0.5854
  116MOL     H5 9435   6.039   3.995   4.113 -0.6079 -0.4710  0.6587
  116MOL     C6 9436   6.087   3.878   4.319 -0.0249 -0.2214 -0.2946
  116MOL     O7 9437   6.222   3.898   4.282 -0.2208 -0.4744  0.2939
  116MOL     H8 9438   6.091   3.818   4.409 -3.4709 -0.4013 -0.2111
  116MOL     H9 9439   6.040   3.972   4.348  0.3881 -0.9072  2.7529
  116MOL    C10 9440   6.291   3.775   4.281 -0.3625 -0.4363  0.7139
  116MOL    O11 9441   6.313   3.727   4.411 -0.0108  0.3377  0.3565
  116MOL    H12 9442   6.386   3.799   4.233 -1.8493  1.0090 -1.5936
  116MOL    H13 9443   6.241   3.707   4.212 -2.9162  1.6212  0.4638
  116MOL    C14 9444   6.367   3.828   4.499  0.3052  0.3756  0.3767
  116MOL    O15 9445   6.478   3.902   4.447 -0.3857  0.6953  0.0305
  116MOL    H16 9446   6.380   3.763   4.585  1.3337 -0.5916 -0.4919
  116MOL    H17 9447   6.286   3.899   4.516  0.8219  0.9103  0.6187
  116MOL    C18 9448   6.588   3.826   4.445  0.4088  1.0537  0.7566
  116MOL    O19 9449   6.625   3.789   4.568 -0.0441  0.5107 -0.5534
  116MOL    H20 9450   6.662   3.890   4.396  0.2761 -1.2349 -2.5545
  116MOL    H21 9451   6.568   3.741   4.380 -0.1721  1.8383 -0.1067
  116MOL    C22 9452   6.726   3.864   4.621 -0.1609  0.1313 -0.3126
  116MOL    O23 9453   6.851   3.832   4.559  0.1638  0.0038 -0.1794
  116MOL    H24 9454   6.723   3.845   4.728  2.3530 -1.2814 -0.4467
  116MOL    H25 9455   6.714   3.971   4.600  0.1718  0.1431 -0.4529
  116MOL    C26 9456   6.951   3.807   4.651 -0.4976  0.0797  0.3605
  116MOL    O27 9457   6.946   3.902   4.754 -0.5859 -0.0287 -0.3924
  116MOL    H28 9458   7.044   3.808   4.593 -0.7760 -1.1618 -0.1247
  116MOL    H29 9459   6.932   3.705   4.685  0.4114 -0.5718 -0.9960
  116MOL    C30 9460   6.977   4.030   4.705  0.9845  0.1576  0.2020
  116MOL    O31 9461   7.117   4.050   4.694 -0.3570 -0.4804 -0.4617
  116MOL    H32 9462   6.923   4.099   4.769  2.1375  2.1581 -0.9544
  116MOL    H33 9463   6.928   4.056   4.611 -1.7188 -1.4760  1.1105
  116MOL    C34 9464   7.137   4.178   4.645  0.0146  0.7203 -0.4077
  116MOL    O35 9465   7.109   4.177   4.509 -0.3009  0.6746  0.1824
  116MOL    H36 9466   7.232   4.223   4.673  1.7178 -1.9828 -1.5968
  116MOL    H37 9467   7.064   4.249   4.683 -0.9237  0.0126 -0.8565
  116MOL    C38 9468   7.200   4.100   4.435 -0.5466 -1.0222 -0.2784
  116MOL    O39 9469   7.337   4.148   4.448  0.1765  0.1181  0.5918
  116MOL    H40 9470   7.187   4.105   4.327  3.7015 -1.0531 -0.8834
  116MOL    H41 9471   7.184   3.999   4.472  0.6004 -0.1836  2.6714
  116MOL    C42 9472   7.366   4.264   4.381 -0.0253  0.7215 -0.3454
  116MOL    O43 9473   7.380   4.255   4.241 -0.4238 -0.2240 -0.3634
  116MOL    H44 9474   7.464   4.284   4.424 -0.1789 -0.5227  0.6165
  116MOL    H45 9475   7.291   4.338   4.410 -0.6189  0.2412 -0.6640
  116MOL    C46 9476   7.481   4.168   4.205  0.1750  0.3480 -0.2406
  116MOL    O47 9477   7.601   4.230   4.212 -0.6086 -0.0059  0.0125
  116MOL    H48 9478   7.454   4.135   4.105 -1.5190 -0.8004  0.5744
  116MOL    H49 9479   7.479   4.086   4.277 -0.5007  0.5150 -0.0623
  116MOL    C50 9480   7.624   4.316   4.102  0.5664  0.2353  0.3635
  116MOL    O51 9481   7.684   4.242   3.996 -0.0284 -0.2870  0.1832
  116MOL    H52 9482   7.695   4.395   4.124  0.5972 -0.1952  1.8924
  116MOL    H53 9483   7.528   4.355   4.069 -0.1436 -0.5067  1.5176
  116MOL    C54 9484   0.023   4.182   4.031  0.9561 -0.3856  0.5126
  116MOL    O55 9485   0.132   4.241   3.969  0.3951  0.1707 -0.5262
  116MOL    H56 9486   0.022   4.088   3.976  1.9945 -0.6197  0.8835
  116MOL    H57 9487   0.037   4.156   4.136  0.4631 -0.4746  0.5600
  116MOL    C58 9488   0.148   4.378   4.000  0.0506  1.1579  0.1410
  116MOL    O59 9489   0.144   4.399   4.138  0.6536 -0.4807  0.4013
  116MOL    H60 9490   0.068   4.438   3.956 -2.4304 -1.2249  1.1984
  116MOL    H61 9491   0.244   4.403   3.956  0.5802 -0.1686  0.5118
  116MOL    C62 9492   0.270   4.358   4.195  0.2493 -0.6063  0.3068
  116MOL    O63 9493   0.377   4.443   4.154 -0.3578 -0.5311  0.4577
  116MOL    H64 9494   0.288   4.254   4.169  2.8957 -0.2355  0.4470
  116MOL    H65 9495   0.262   4.364   4.303 -2.6700 -1.4553  0.1764
  116MOL    C66 9496   0.357   4.578   4.184 -0.4359 -0.3384  0.7767
  116MOL    O67 9497   0.371   4.591   4.319  0.2825  0.3679 -0.2907
  116MOL    H68 9498   0.259   4.616   4.158 -0.6174 -1.8333 -0.8322
  116MOL    H69 9499   0.432   4.640   4.136  0.1870 -2.3474 -0.9455
  116MOL    C70 9500   0.510   4.591   4.371 -0.5597 -0.3012 -0.1319
  116MOL    O71 9501   0.509   4.599   4.510  0.1852 -0.4906 -0.5740
  116MOL    H72 9502   0.572   4.670   4.329 -1.0288 -0.3491 -0.9282
  116MOL    H73 9503   0.562   4.499   4.347  0.2588 -0.0399  0.6098
  116MOL    C74 9504   0.457   4.474   4.567  0.2131 -0.2909 -0.4276
  116MOL    O75 9505   0.558   4.368   4.572  0.0980  0.5952  0.1005
  116MOL    H76 9506   0.371   4.437   4.511 -0.6614  2.0836 -0.6969
  116MOL    H77 9507   0.425   4.495   4.669 -0.5734 -0.2434 -0.6847
  116MOL    C78 9508   0.673   4.399   4.651 -0.0831 -0.2973  1.5518
  116MOL    O79 9509   0.649   4.387   4.781  0.2146  0.5568 -0.0849
  116MOL    H80 9510   0.706   4.503   4.641 -0.8246 -0.1684  0.2342
  116MOL    H81 9511   0.742   4.318   4.628 -1.2954 -0.4044 -2.1789
  116MOL    H82 9512   0.632   4.298   4.806 -3.7730  1.6511  1.4537
  117MOL     C1 9513   4.798   1.341   2.965 -0.0507 -0.5080  0.1424
  117MOL     O2 9514   4.758   1.245   2.875  0.6485 -0.3181  0.3084
  117MOL     H3 9515   4.858   1.416   2.913 -0.4103 -1.8914 -2.3664
  117MOL     H4 9516   4.715   1.398   3.007  0.6859  0.1413  0.7303
  117MOL     H5 9517   4.852   1.292   3.045  1.1776  0.0507 -0.3325
  117MOL     C6 9518   4.659   1.152   2.915  0.5722 -0.4522  0.7505
  117MOL     O7 9519   4.693   1.079   3.020  0.1798 -0.1705 -0.2698
  117MOL     H8 9520   4.624   1.102   2.825  0.6739 -1.3344  1.1883
  117MOL     H9 9521   4.576   1.215   2.946  0.8576  0.0972  0.4023
  117MOL    C10 9522   4.766   0.966   2.986 -0.0560 -0.2342  0.0891
  117MOL    O11 9523   4.893   0.996   2.950  0.0752 -0.0065 -0.6196
  117MOL    H12 9524   4.715   0.926   2.899  0.9620 -0.7788 -0.2578
  117MOL    H13 9525   4.757   0.903   3.075  1.4877 -0.2438  0.2533
  117MOL    C14 9526   4.978   1.039   3.060 -0.4950 -0.5359  0.1551
  117MOL    O15 9527   5.036   0.932   3.128  0.0410 -0.6960  0.0307
  117MOL    H16 9528   4.924   1.107   3.126  2.0462  0.8473  0.8915
  117MOL    H17 9529   5.066   1.091   3.023  1.0582 -2.6074  0.8557
  117MOL    C18 9530   5.084   0.831   3.046  0.1313  0.3709  0.1385
  117MOL    O19 9531   5.152   0.726   3.124  0.9551 -0.1570  0.6117
  117MOL    H20 9532   5.155   0.868   2.972  0.4990 -0.3094  0.1515
  117MOL    H21 9533   5.013   0.775   2.984  1.3051  1.0099 -1.8211
  117MOL    C22 9534   5.074   0.663   3.217  0.1835 -1.1135 -0.3553
  117MOL    O23 9535   5.011   0.559   3.160  0.2621  0.2305 -0.5013
  117MOL    H24 9536   5.011   0.735   3.270 -1.8483 -3.8240  1.0439
  117MOL    H25 9537   5.139   0.625   3.295 -1.9456 -0.8775  1.5903
  117MOL    C26 9538   5.043   0.431   3.224  0.5085  0.5060  0.2781
  117MOL    O27 9539   4.994   0.423   3.354  0.0728 -0.0021  0.0076
  117MOL    H28 9540   5.150   0.409   3.221 -0.2263 -3.4856 -0.5250
  117MOL    H29 9541   4.998   0.355   3.159 -0.3419  1.3754 -0.1470
  117MOL    C30 9542   4.893   0.329   3.371  0.2773  0.0624  0.3204
  117MOL    O31 9543   4.956   0.202   3.376  0.0138 -0.2616 -0.0256
  117MOL    H32 9544   4.823   0.329   3.287 -0.4650 -0.0358  0.9353
  117MOL    H33 9545   4.837   0.343   3.463  0.9638  0.3785  0.6893
  117MOL    C34 9546   4.871   0.086   3.353 -0.9460 -0.0025 -0.0476
  117MOL    O35 9547   4.766   0.079   3.447 -0.1764 -0.5936  0.3671
  117MOL    H36 9548   4.932   7.780   3.357 -0.5692  0.3367  2.0643
  117MOL    H37 9549   4.814   0.095   3.260 -2.0949 -2.1849  0.4073
  117MOL    C38 9550   4.825   0.046   3.570  0.2429  0.3324  0.3160
  117MOL    O39 9551   4.880   7.698   3.578 -0.2328 -0.0213 -0.1112
  117MOL    H40 9552   4.749   0.051   3.648 -0.0864 -0.6649  0.0590
  117MOL    H41 9553   4.890   0.129   3.600  3.5210 -0.8317 -3.1227
  117MOL    C42 9554   5.009   7.704   3.619  0.2298 -0.0098 -0.0325
  117MOL    O43 9555   5.017   7.778   3.737 -0.8580 -0.3199  0.6492
  117MOL    H44 9556   5.068   7.767   3.553  0.3866 -0.8721 -0.7302
  117MOL    H45 9557   5.049   7.602   3.613  0.6511  0.1710 -0.2901
  117MOL    C46 9558   5.128   7.735   3.816 -0.0253  0.4143 -0.1891
  117MOL    O47 9559   5.168   0.049   3.908 -0.2900  0.3024 -0.6617
  117MOL    H48 9560   5.219   7.715   3.760  1.0929 -1.6625  2.2465
  117MOL    H49 9561   5.100   7.643   3.867  3.6958 -1.5443 -1.5290
  117MOL    C50 9562   5.236   0.155   3.851 -0.3723 -0.5106  0.1102
  117MOL    O51 9563   5.369   0.133   3.816 -0.5498 -0.2751 -0.7173
  117MOL    H52 9564   5.231   0.236   3.924  0.3822  1.4948 -2.0101
  117MOL    H53 9565   5.184   0.193   3.762 -1.1761  0.8516  1.1351
  117MOL    C54 9566   5.449   0.081   3.912  0.4568  0.4944 -0.2079
  117MOL    O55 9567   5.578   0.073   3.866  0.2149  0.3849  0.2050
  117MOL    H56 9568   5.414   7.766   3.940  1.5323 -0.1938 -1.2590
  117MOL    H57 9569   5.466   0.139   4.004  0.2510  0.0052  0.1389
  117MOL    C58 9570   5.606   7.759   3.771  0.4607  0.4962  0.7305
  117MOL    O59 9571   5.744   7.724   3.771  0.0069 -0.0519  0.0236
  117MOL    H60 9572   5.580   0.014   3.672 -0.8119  0.7174  1.1330
  117MOL    H61 9573   5.555   7.663   3.780  1.6499 -0.1983  0.1372
  117MOL    C62 9574   5.776   7.663   3.895  0.3701 -0.5352  0.1628
  117MOL    O63 9575   5.755   7.523   3.881  0.0827 -0.3648 -0.6968
  117MOL    H64 9576   5.714   7.689   3.981 -1.6946 -0.5614 -1.2763
  117MOL    H65 9577   5.882   7.684   3.907  0.9832 -1.6603 -2.7526
  117MOL    C66 9578   5.770   7.448   4.000  0.5138 -0.5704 -0.5656
  117MOL    O67 9579   5.657   7.438   4.075 -0.0726 -0.5810 -0.0327
  117MOL    H68 9580   5.858   7.480   4.055 -1.5139  1.5874  1.5473
  117MOL    H69 9581   5.793   7.344   3.980  4.1634 -0.1852  1.2624
  117MOL    C70 9582   5.555   7.366   4.016 -0.0649 -0.2818 -0.0113
  117MOL    O71 9583   5.583   7.233   4.033  0.3927  0.0500 -0.3189
  117MOL    H72 9584   5.541   7.392   3.911  0.7047 -1.2939 -0.3771
  117MOL    H73 9585   5.464   7.382   4.072  0.1005  0.2688  0.1068
  117MOL    C74 9586   5.482   7.136   4.056  0.6611 -0.8776  0.8248
  117MOL    O75 9587   5.385   7.160   3.959  0.1830  0.1563 -0.4933
  117MOL    H76 9588   5.447   7.159   4.156  0.8280  0.9598  0.4672
  117MOL    H77 9589   5.513   7.031   4.050 -3.2919 -2.0258 -1.1584
  117MOL    C78 9590   5.406   7.103   3.834 -0.4152 -0.4172 -0.4684
  117MOL    O79 9591   5.324   7.157   3.728 -0.0235 -0.1289  0.5053
  117MOL    H80 9592   5.381   6.997   3.837 -2.3134  0.0325  0.1675
  117MOL    H81 9593   5.508   7.128   3.805 -0.1583  0.8574  1.4133
  117MOL    H82 9594   5.276   7.084   3.694 -1.7943  0.5362  1.4984
  118MOL     C1 9595   7.154   5.496   3.936 -0.2693  0.8234  0.5051
  118MOL     O2 9596   7.044   5.528   3.854  0.1016 -0.3785 -0.3935
  118MOL     H3 9597   7.229   5.468   3.862  0.3685  1.9370  0.7272
  118MOL     H4 9598   7.189   5.576   4.000  0.6553  1.3476 -0.6325
  118MOL     H5 9599   7.134   5.407   3.996 -0.8113 -0.4638 -1.5201
  118MOL     C6 9600   6.929   5.563   3.925 -0.3553 -0.7547  0.7441
  118MOL     O7 9601   6.937   5.689   3.989  0.7902  0.7372  0.1025
  118MOL     H8 9602   6.909   5.487   4.001 -0.2056  0.9885  2.5942
  118MOL     H9 9603   6.840   5.565   3.862  1.7935  0.9670 -2.3998
  118MOL    C10 9604   6.943   5.792   3.900  0.7948 -0.5325 -0.9629
  118MOL    O11 9605   6.824   5.819   3.836  0.2831  0.3385 -0.5818
  118MOL    H12 9606   7.018   5.760   3.827  1.3755 -0.4597 -0.4058
  118MOL    H13 9607   6.983   5.886   3.938 -0.6223  0.9247 -2.9563
  118MOL    C14 9608   6.728   5.894   3.910  0.1612 -0.3348 -0.3225
  118MOL    O15 9609   6.758   6.030   3.897  0.3986 -0.0396  0.0677
  118MOL    H16 9610   6.720   5.884   4.019  2.8129  2.2437  0.1737
  118MOL    H17 9611   6.626   5.878   3.877 -1.1988 -0.6896  3.7410
  118MOL    C18 9612   6.746   6.091   3.772  0.2759 -0.3950 -0.2210
  118MOL    O19 9613   6.613   6.120   3.742  0.1666 -0.5361  0.3008
  118MOL    H20 9614   6.780   6.023   3.694  0.3136 -1.0421  0.3515
  118MOL    H21 9615   6.819   6.171   3.782  2.7655 -2.5322 -0.5242
  118MOL    C22 9616   6.593   6.168   3.607  0.2566 -0.2797 -0.5283
  118MOL    O23 9617   6.659   6.291   3.598  0.4963  0.6863  0.0109
  118MOL    H24 9618   6.485   6.175   3.595 -0.0356 -0.5480  1.8940
  118MOL    H25 9619   6.635   6.105   3.528 -1.1728 -0.1507 -1.4183
  118MOL    C26 9620   6.575   6.401   3.625 -0.0831  0.2233 -0.2305
  118MOL    O27 9621   6.473   6.423   3.532 -0.2822 -1.0921  0.5802
  118MOL    H28 9622   6.628   6.492   3.653  0.1757 -0.9262  3.2234
  118MOL    H29 9623   6.517   6.397   3.718  1.3610 -3.2634  0.5772
  118MOL    C30 9624   6.517   6.516   3.438 -0.7680  0.0030 -0.1371
  118MOL    O31 9625   6.517   6.642   3.497  0.5110  0.0994 -1.0976
  118MOL    H32 9626   6.446   6.511   3.356  0.0515  0.3307 -0.8812
  118MOL    H33 9627   6.612   6.486   3.393 -0.2867  1.6574 -0.2729
  118MOL    C34 9628   6.567   6.743   3.412  0.2040 -1.6614  0.3531
  118MOL    O35 9629   6.706   6.726   3.382  0.9242  0.0181 -0.2706
  118MOL    H36 9630   6.553   6.832   3.473  0.7939 -0.8548 -0.6798
  118MOL    H37 9631   6.510   6.753   3.320  1.7112  3.1935 -0.2026
  118MOL    C38 9632   6.798   6.739   3.493  0.5548 -0.7299  0.2351
  118MOL    O39 9633   6.870   6.628   3.521 -0.5010 -0.5259  0.3477
  118MOL    H40 9634   6.747   6.760   3.588  0.0189 -3.0479  0.4887
  118MOL    H41 9635   6.866   6.822   3.477  1.3324 -1.5245 -0.6227
  118MOL    C42 9636   6.951   6.587   3.412  0.4882 -0.8078 -0.4585
  118MOL    O43 9637   7.040   6.489   3.453  0.5372  0.5657  1.0281
  118MOL    H44 9638   7.022   6.666   3.388  2.4613 -1.5032  2.8193
  118MOL    H45 9639   6.881   6.558   3.333  1.8201 -1.3537 -1.4675
  118MOL    C46 9640   6.975   6.361   3.473 -0.4425  0.0449  0.7354
  118MOL    O47 9641   6.952   6.300   3.350  0.9394 -0.3276 -0.0801
  118MOL    H48 9642   6.878   6.374   3.522 -0.8454 -0.1488  0.0001
  118MOL    H49 9643   7.039   6.304   3.540 -1.4048 -1.4873  0.3783
  118MOL    C50 9644   7.070   6.283   3.284 -0.8562  0.9608 -0.0920
  118MOL    O51 9645   7.148   6.179   3.330  0.1784  0.3298 -0.6601
  118MOL    H52 9646   7.122   6.374   3.254  1.0608 -0.4470 -1.1384
  118MOL    H53 9647   7.023   6.248   3.192  2.3854 -0.6814 -1.1666
  118MOL    C54 9648   7.273   6.173   3.276  0.2815  0.6050 -0.3067
  118MOL    O55 9649   7.349   6.285   3.295  0.8566 -0.2185  0.4982
  118MOL    H56 9650   7.259   6.142   3.173 -0.4536  1.1272 -0.3719
  118MOL    H57 9651   7.322   6.091   3.328 -1.1551  0.2182  0.4639
  118MOL    C58 9652   7.394   6.309   3.424 -0.3066 -1.1351  0.3670
  118MOL    O59 9653   7.514   6.241   3.442  0.0291  0.6831  0.0359
  118MOL    H60 9654   7.327   6.279   3.504 -0.0710  2.0742  1.8212
  118MOL    H61 9655   7.408   6.417   3.421  0.4413 -1.2214  0.8011
  118MOL    C62 9656   7.566   6.257   3.571 -0.5815 -1.0200 -0.1356
  118MOL    O63 9657   7.611   6.393   3.591  0.3696 -0.3377 -0.1154
  118MOL    H64 9658   7.658   6.201   3.586  0.1543  0.2469  0.2086
  118MOL    H65 9659   7.502   6.220   3.651 -1.6916  1.3984  0.1354
  118MOL    C66 9660   7.725   6.429   3.514 -1.0027 -0.2876  0.8579
  118MOL    O67 9661   0.057   6.389   3.584 -0.1949 -0.0097 -0.2751
  118MOL    H68 9662   7.714   6.535   3.494  1.0573 -0.1685  0.3141
  118MOL    H69 9663   7.722   6.372   3.421  0.2737  1.7409 -0.4349
  118MOL    C70 9664   0.071   6.468   3.701 -0.4481  0.2455  0.3428
  118MOL    O71 9665   0.203   6.508   3.725 -0.5514 -0.0593 -0.7767
  118MOL    H72 9666   0.029   6.419   3.789  0.5532 -1.7807 -0.2970
  118MOL    H73 9667   0.012   6.559   3.687  1.2003  1.6606  2.2208
  118MOL    C74 9668   0.276   6.412   3.798  0.4605  0.1376 -0.4263
  118MOL    O75 9669   0.247   6.409   3.937 -0.5642 -0.0997 -0.0016
  118MOL    H76 9670   0.383   6.427   3.786  0.9678 -1.6710  1.5916
  118MOL    H77 9671   0.262   6.311   3.759 -3.1581 -0.1926  1.4585
  118MOL    C78 9672   0.353   6.372   4.011  0.4275  0.4488 -0.6914
  118MOL    O79 9673   0.311   6.364   4.144 -0.2092 -0.2857 -0.2928
  118MOL    H80 9674   0.430   6.449   4.003  1.4629 -0.4663  0.2140
  118MOL    H81 9675   0.386   6.276   3.970 -2.1917 -0.3665 -0.9566
  118MOL    H82 9676   0.304   6.272   4.163 -0.2354 -0.3507 -0.6142
  119MOL     C1 9677   1.130   5.099   5.360 -0.5764 -0.7488 -0.3800
  119MOL     O2 9678   1.227   5.158   5.273 -0.5778  0.1484  0.5160
  119MOL     H3 9679   1.194   5.043   5.429  2.2254  1.5881 -0.9601
  119MOL     H4 9680   1.064   5.171   5.408  1.2834 -0.2901  1.6135
  119MOL     H5 9681   1.071   5.022   5.312  0.4430 -0.4625 -2.1285
  119MOL     C6 9682   1.167   5.214   5.163  0.0000  0.0350  0.3118
  119MOL     O7 9683   1.248   5.291   5.084  0.1328  0.1746 -0.0905
  119MOL     H8 9684   1.104   5.289   5.211 -0.5097 -1.1816  1.5921
  119MOL     H9 9685   1.102   5.139   5.118 -0.7141  0.1561  1.1285
  119MOL    C10 9686   1.328   5.205   5.010 -0.0767  0.1572  0.0904
  119MOL    O11 9687   1.460   5.258   5.006  0.1735 -0.0670 -0.1461
  119MOL    H12 9688   1.280   5.199   4.912  0.6076  0.0707 -0.2365
  119MOL    H13 9689   1.334   5.104   5.050  0.3144  0.6581  1.3434
  119MOL    C14 9690   1.537   5.224   5.118 -0.0849 -0.6799 -0.5335
  119MOL    O15 9691   1.664   5.287   5.103  0.0841 -0.5209  0.1172
  119MOL    H16 9692   1.552   5.116   5.120  0.7756 -0.6088 -2.1284
  119MOL    H17 9693   1.493   5.272   5.206  0.8631 -1.1219  0.2004
  119MOL    C18 9694   1.751   5.213   5.019  0.5199 -0.6481  0.0108
  119MOL    O19 9695   1.709   5.214   4.888 -0.4699 -0.0408  0.1352
  119MOL    H20 9696   1.748   5.108   5.045 -0.0052 -0.8991 -1.0803
  119MOL    H21 9697   1.854   5.248   5.029 -0.1235  1.3100  0.1185
  119MOL    C22 9698   1.718   5.340   4.841  0.0659 -0.0764  0.5972
  119MOL    O23 9699   1.858   5.367   4.816 -0.3943 -0.1556  0.6134
  119MOL    H24 9700   1.674   5.417   4.904  0.7651  0.5630  0.3080
  119MOL    H25 9701   1.662   5.345   4.748  1.3736 -0.2387 -0.2104
  119MOL    C26 9702   1.901   5.321   4.697  0.0015  0.0837 -0.2636
  119MOL    O27 9703   1.833   5.373   4.589  0.2364 -0.0277 -0.4543
  119MOL    H28 9704   1.891   5.212   4.701  1.8454 -0.0597  0.9622
  119MOL    H29 9705   2.009   5.324   4.681  0.0739  0.4113  0.2471
  119MOL    C30 9706   1.857   5.506   4.570 -0.0719 -0.6113 -0.2482
  119MOL    O31 9707   1.994   5.536   4.547  1.0694 -0.4502  0.4785
  119MOL    H32 9708   1.812   5.556   4.656 -0.5822 -1.7318  0.1575
  119MOL    H33 9709   1.795   5.538   4.487 -1.7767 -0.4002  1.0676
  119MOL    C34 9710   2.039   5.486   4.427  0.2294  0.1578 -0.2046
  119MOL    O35 9711   1.981   5.554   4.325  0.6208 -0.5543  0.3795
  119MOL    H36 9712   2.018   5.382   4.403  1.3548 -0.0728 -0.2027
  119MOL    H37 9713   2.145   5.510   4.428  0.1181  0.6778  1.7367
  119MOL    C38 9714   2.018   5.687   4.314 -0.0829 -0.0032 -1.0352
  119MOL    O39 9715   2.151   5.708   4.277 -0.0625  0.2844 -0.0084
  119MOL    H40 9716   1.991   5.732   4.410  0.6451 -0.7203 -0.4834
  119MOL    H41 9717   1.961   5.736   4.235 -2.3812 -0.5757  0.2113
  119MOL    C42 9718   2.177   5.842   4.268 -0.2992 -0.0275  0.0416
  119MOL    O43 9719   2.132   5.895   4.138  0.1346  0.2313 -0.0000
  119MOL    H44 9720   2.285   5.851   4.262 -0.5045  3.0187  0.2258
  119MOL    H45 9721   2.154   5.907   4.353  0.6602 -0.0793  0.3450
  119MOL    C46 9722   2.141   6.033   4.128  0.2745 -0.2632 -0.6683
  119MOL    O47 9723   2.038   6.083   4.204  0.3653  0.3684  0.4669
  119MOL    H48 9724   2.129   6.056   4.022  1.5841 -0.5631 -0.8868
  119MOL    H49 9725   2.234   6.069   4.171 -0.5355  0.0162  0.8738
  119MOL    C50 9726   1.909   6.063   4.138  0.3957  0.0404  0.9954
  119MOL    O51 9727   1.898   6.134   4.016 -0.0951  0.3798  0.0331
  119MOL    H52 9728   1.832   6.095   4.208  0.3183 -0.1510  0.9988
  119MOL    H53 9729   1.899   5.954   4.137  1.8244 -0.1195 -2.1796
  119MOL    C54 9730   1.883   6.269   4.034  0.2833 -0.0470 -0.4204
  119MOL    O55 9731   1.756   6.314   4.077 -0.2438 -0.5310  0.1853
  119MOL    H56 9732   1.903   6.304   3.933 -1.8499 -0.4077 -0.9874
  119MOL    H57 9733   1.965   6.310   4.094 -0.2296 -0.2875  0.4501
  119MOL    C58 9734   1.652   6.251   4.005  0.3794 -0.5501 -0.6054
  119MOL    O59 9735   1.564   6.340   3.945  0.0370  0.5822  0.0064
  119MOL    H60 9736   1.602   6.195   4.084 -0.2561 -0.2853 -0.8102
  119MOL    H61 9737   1.684   6.175   3.934 -1.5823 -0.3098 -1.7925
  119MOL    C62 9738   1.488   6.417   4.031  0.0080 -0.1355  0.5122
  119MOL    O63 9739   1.390   6.333   4.102  0.0863 -0.0911 -0.2033
  119MOL    H64 9740   1.434   6.496   3.978 -0.2866  0.3995  1.5821
  119MOL    H65 9741   1.549   6.466   4.107  1.1961 -0.9380  0.0826
  119MOL    C66 9742   1.286   6.299   4.025  0.1004 -0.6666 -0.6134
  119MOL    O67 9743   1.193   6.401   4.023 -0.3145  0.1419  0.4185
  119MOL    H68 9744   1.237   6.218   4.080 -1.1397 -1.5817 -3.0068
  119MOL    H69 9745   1.316   6.283   3.921 -0.7711  1.7910 -1.2625
  119MOL    C70 9746   1.137   6.446   4.143  0.2259  1.1886 -0.9002
  119MOL    O71 9747   1.081   6.573   4.133 -0.2070 -0.2892 -0.5681
  119MOL    H72 9748   1.209   6.441   4.224  2.7439  4.4047 -2.8043
  119MOL    H73 9749   1.050   6.385   4.164 -1.1711  3.1539 -0.8483
  119MOL    C74 9750   0.964   6.586   4.051 -0.0360  0.8013  0.4622
  119MOL    O75 9751   0.859   6.496   4.086  0.2980 -0.5210  0.3814
  119MOL    H76 9752   0.986   6.562   3.947 -2.2998  2.5411 -0.4459
  119MOL    H77 9753   0.924   6.687   4.052 -0.0666  0.8835 -2.7582
  119MOL    C78 9754   0.787   6.539   4.201 -0.0145  0.3409  0.0083
  119MOL    O79 9755   0.675   6.456   4.229  0.2728 -0.1154  0.0634
  119MOL    H80 9756   0.756   6.643   4.197  1.6880  0.9034  0.7735
  119MOL    H81 9757   0.861   6.532   4.281  1.2562  2.8046 -0.8903
  119MOL    H82 9758   0.623   6.506   4.291  1.5242  0.3974  0.7176
  120MOL     C1 9759   2.840   4.355   7.396 -0.4842  0.8735 -0.9022
  120MOL     O2 9760   2.872   4.389   7.529  0.4841 -0.4091 -0.1463
  120MOL     H3 9761   2.928   4.315   7.344 -0.4494  2.4664 -2.1330
  120MOL     H4 9762   2.776   4.267   7.384 -1.1484  1.3504 -0.8927
  120MOL     H5 9763   2.786   4.436   7.348 -1.3370  0.4049 -0.7481
  120MOL     C6 9764   2.769   4.439   7.610  0.0764  0.3310 -0.3593
  120MOL     O7 9765   2.653   4.361   7.614 -0.6256  0.0905  1.2039
  120MOL     H8 9766   2.734   4.534   7.569  0.2324 -0.0171 -1.2877
  120MOL     H9 9767   2.804   4.470   7.709  0.2335  1.2324 -0.6889
  120MOL    C10 9768   2.660   4.249   7.698  0.3639  0.4765 -0.1214
  120MOL    O11 9769   2.542   4.170   7.698  0.4999  0.0398  0.6765
  120MOL    H12 9770   2.676   4.286   0.016 -0.6745 -0.3408  0.3518
  120MOL    H13 9771   2.740   4.179   7.675 -1.0106 -1.6709  1.4047
  120MOL    C14 9772   2.522   4.106   7.571  0.2122 -0.0947  0.9020
  120MOL    O15 9773   2.576   3.981   7.571 -0.5002 -1.0011  0.4256
  120MOL    H16 9774   2.567   4.163   7.490  2.4896 -1.9566  0.8233
  120MOL    H17 9775   2.416   4.110   7.547 -0.2979  0.5595  3.1519
  120MOL    C18 9776   2.510   3.893   7.650  0.8116  0.6398  0.8674
  120MOL    O19 9777   2.395   3.850   7.590 -0.2105  0.3165  0.0302
  120MOL    H20 9778   2.476   3.938   7.743 -1.7580  0.8386 -0.1172
  120MOL    H21 9779   2.567   3.804   7.675  0.2223 -0.4936 -1.5892
  120MOL    C22 9780   2.416   3.752   7.497 -0.6561  0.2424 -0.4936
  120MOL    O23 9781   2.292   3.704   7.454 -0.1309  0.2229 -0.1755
  120MOL    H24 9782   2.475   3.663   7.518  1.3835  1.0459 -2.6058
  120MOL    H25 9783   2.469   3.804   7.418  0.9115  2.7542  2.0962
  120MOL    C26 9784   2.247   3.762   7.332 -0.2406 -0.5638  0.5270
  120MOL    O27 9785   2.321   3.712   7.219 -0.0029 -0.4872 -0.6765
  120MOL    H28 9786   2.261   3.870   7.322 -1.8019 -0.2492  1.6050
  120MOL    H29 9787   2.141   3.746   7.314 -0.1845 -2.1833  1.5727
  120MOL    C30 9788   2.295   3.575   7.201  0.6474  0.3162 -0.2198
  120MOL    O31 9789   2.365   3.523   7.097 -0.2655  0.0634 -0.0351
  120MOL    H32 9790   2.189   3.569   7.178  0.7722  1.3693 -1.1062
  120MOL    H33 9791   2.323   3.524   7.292  1.9157  2.7644  0.8076
  120MOL    C34 9792   2.507   3.541   7.100 -0.2514  0.0110 -0.2023
  120MOL    O35 9793   2.570   3.434   7.174  0.1590 -0.5405  0.2121
  120MOL    H36 9794   2.547   3.632   7.146 -0.9875  0.1419  0.1889
  120MOL    H37 9795   2.547   3.542   6.999  0.7610 -0.4691  0.1920
  120MOL    C38 9796   2.578   3.309   7.115 -0.5744  0.2614  0.0649
  120MOL    O39 9797   2.673   3.307   7.011 -0.1024 -0.2353  0.0960
  120MOL    H40 9798   2.479   3.287   7.074 -0.4603  1.6354 -0.9545
  120MOL    H41 9799   2.596   3.232   7.191 -0.0478  1.7879  1.5024
  120MOL    C42 9800   2.801   3.339   7.062 -0.3837  0.6027 -0.2726
  120MOL    O43 9801   2.891   3.370   6.952  0.3012 -0.1663 -0.5195
  120MOL    H44 9802   2.854   3.254   7.103  0.2163  0.4776 -1.2739
  120MOL    H45 9803   2.806   3.429   7.123  1.2597  0.0265  0.4647
  120MOL    C46 9804   2.842   3.479   6.884  0.5793  0.8810 -0.3788
  120MOL    O47 9805   2.848   3.606   6.941  0.2734  0.3111 -0.0588
  120MOL    H48 9806   2.753   3.449   6.829  0.4640  0.0052  0.2702
  120MOL    H49 9807   2.912   3.484   6.800  2.2064 -2.6576  0.6810
  120MOL    C50 9808   2.975   3.630   6.986 -0.2974  0.3474 -0.2030
  120MOL    O51 9809   3.046   3.684   6.880  0.5127  0.0918  0.1497
  120MOL    H52 9810   3.026   3.550   7.041  0.1500 -0.7570 -2.1827
  120MOL    H53 9811   2.963   3.700   7.069  0.6167 -1.8402  1.8322
  120MOL    C54 9812   3.184   3.690   6.909 -0.6102  0.5736 -0.2286
  120MOL    O55 9813   3.221   3.807   6.977  0.4169  0.7797 -0.6356
  120MOL    H56 9814   3.228   3.682   6.810 -0.1949  1.4113 -0.1143
  120MOL    H57 9815   3.215   3.603   6.968 -0.8510  0.3843 -0.3794
  120MOL    C58 9816   3.233   3.918   6.889  0.6254 -0.2753  0.5758
  120MOL    O59 9817   3.357   3.911   6.823  0.1659  0.4297  0.2707
  120MOL    H60 9818   3.236   4.012   6.945  1.8578  1.3876 -2.1747
  120MOL    H61 9819   3.140   3.921   6.832  1.6591  1.5041 -1.0589
  120MOL    C62 9820   3.462   3.917   6.914 -1.5052  0.1926 -0.7317
  120MOL    O63 9821   3.577   3.955   6.838 -0.3714 -0.3452  0.3604
  120MOL    H64 9822   3.484   3.822   6.962  2.8188  0.2529 -2.3070
  120MOL    H65 9823   3.452   3.992   6.992  0.9938 -0.4741  0.2777
  120MOL    C66 9824   3.633   3.846   6.767  0.3265  0.0870  0.2042
  120MOL    O67 9825   3.664   3.733   6.842 -0.5775  0.5878  0.3252
  120MOL    H68 9826   3.729   3.880   6.729  0.7135 -0.2403  0.8846
  120MOL    H69 9827   3.581   3.822   6.674  1.6616  0.5333 -0.6709
  120MOL    C70 9828   3.781   3.755   6.913 -0.4864 -0.0626  0.4934
  120MOL    O71 9829   3.891   3.714   6.835  0.4221  0.3979 -0.4790
  120MOL    H72 9830   3.774   3.699   7.007  0.6585 -1.7957 -0.4369
  120MOL    H73 9831   3.797   3.859   6.940 -1.6407 -0.5269  3.1246
  120MOL    C74 9832   4.005   3.699   6.912  0.4770  0.5458  0.0881
  120MOL    O75 9833   4.057   3.826   6.940  0.1115  0.0959 -0.2687
  120MOL    H76 9834   4.075   3.629   6.866 -0.8846 -0.8767  0.1687
  120MOL    H77 9835   3.995   3.651   7.009  1.5138  1.3195  0.5989
  120MOL    C78 9836   4.120   3.888   6.838  0.3928 -0.3298  0.0333
  120MOL    O79 9837   4.169   4.010   6.876 -0.3086  0.0589 -0.8647
  120MOL    H80 9838   4.040   3.914   6.769 -0.2402 -0.4301  0.7187
  120MOL    H81 9839   4.201   3.825   6.801  1.3175 -0.0775  1.5466
  120MOL    H82 9840   4.091   4.060   6.895  0.4398  0.5352  1.0369
  121MOL     C1 9841   3.806   1.873   2.946 -0.1536 -0.8291  0.4963
  121MOL     O2 9842   3.890   1.785   3.010  0.3460 -0.5433  0.1294
  121MOL     H3 9843   3.775   1.828   2.852 -0.1531 -0.0336  0.1177
  121MOL     H4 9844   3.721   1.895   3.010 -0.0467  1.0247  0.0126
  121MOL     H5 9845   3.855   1.969   2.932 -2.9386  0.4883 -0.5388
  121MOL     C6 9846   4.018   1.767   2.951  0.1308  0.5582 -0.8443
  121MOL     O7 9847   4.114   1.850   3.010  0.6455  0.4377 -0.7029
  121MOL     H8 9848   4.020   1.774   2.842 -2.0002  1.0624 -0.8792
  121MOL     H9 9849   4.055   1.665   2.965 -1.8957 -0.0877 -0.0620
  121MOL    C10 9850   4.195   1.921   2.925 -0.3201  0.6667 -0.1202
  121MOL    O11 9851   4.131   2.036   2.870  0.1330  0.0592 -0.0705
  121MOL    H12 9852   4.236   1.858   2.846 -0.5584  1.4282 -0.8589
  121MOL    H13 9853   4.282   1.963   2.976 -1.2927  0.7641  1.4837
  121MOL    C14 9854   4.131   2.143   2.952  0.3820 -0.9747 -0.0279
  121MOL    O15 9855   4.256   2.195   2.980  0.1941  1.1938 -0.3805
  121MOL    H16 9856   4.074   2.125   3.043  0.9170  4.4879  1.5885
  121MOL    H17 9857   4.071   2.210   2.891 -1.5770 -1.1145  1.6964
  121MOL    C18 9858   4.272   2.325   2.925  0.5386 -0.1158  0.6819
  121MOL    O19 9859   4.192   2.420   2.983 -0.4688 -0.5071  0.1811
  121MOL    H20 9860   4.263   2.326   2.817  0.2428  2.0539  0.7140
  121MOL    H21 9861   4.374   2.354   2.952  1.0367  0.0411 -1.3555
  121MOL    C22 9862   4.209   2.432   3.124  0.0170 -0.0364 -0.5537
  121MOL    O23 9863   4.318   2.511   3.157 -0.3316  0.1764 -0.0902
  121MOL    H24 9864   4.231   2.337   3.173  1.1836 -0.1426 -1.2640
  121MOL    H25 9865   4.118   2.477   3.164  0.2121 -1.5253  1.6451
  121MOL    C26 9866   4.301   2.644   3.127  0.3528 -0.9878  0.9372
  121MOL    O27 9867   4.201   2.697   3.204 -0.2810 -0.4440  0.0267
  121MOL    H28 9868   4.268   2.648   3.023 -1.0588 -3.3649  1.2429
  121MOL    H29 9869   4.400   2.687   3.119  0.7652 -1.8267  1.3649
  121MOL    C30 9870   4.239   2.721   3.336 -0.1177 -0.4542 -0.3265
  121MOL    O31 9871   4.345   2.810   3.340 -0.0273  0.3553 -0.5319
  121MOL    H32 9872   4.272   2.624   3.374  0.6768 -0.6965 -1.5993
  121MOL    H33 9873   4.157   2.754   3.400  1.0607  2.3880 -0.2026
  121MOL    C34 9874   4.310   2.938   3.305 -0.3954  0.3307  0.5297
  121MOL    O35 9875   4.424   3.020   3.291 -0.3359 -0.6820 -0.4254
  121MOL    H36 9876   4.240   2.975   3.380 -0.8160  0.0036  0.3002
  121MOL    H37 9877   4.253   2.927   3.213 -2.4100  0.1979  1.7464
  121MOL    C38 9878   4.490   3.045   3.413  0.2690  0.3223 -0.0893
  121MOL    O39 9879   4.421   3.140   3.484 -0.0220 -0.5077  0.2062
  121MOL    H40 9880   4.586   3.093   3.396 -0.6806  2.5232  0.5946
  121MOL    H41 9881   4.496   2.954   3.473  2.8080  0.2423 -0.4097
  121MOL    C42 9882   4.418   3.269   3.437 -0.8748  0.3313  0.5596
  121MOL    O43 9883   4.544   3.324   3.426 -0.3288 -0.4774  0.0682
  121MOL    H44 9884   4.359   3.334   3.501 -4.8690 -0.8089 -1.7716
  121MOL    H45 9885   4.365   3.267   3.342  0.6625 -2.1226 -0.3030
  121MOL    C46 9886   4.603   3.337   3.556 -0.9902 -0.2615 -0.0919
  121MOL    O47 9887   4.536   3.439   3.625 -0.3500  0.1723 -0.0245
  121MOL    H48 9888   4.704   3.361   3.522 -0.4864 -1.6316  0.4345
  121MOL    H49 9889   4.603   3.244   3.613 -1.3336  0.1567  0.5980
  121MOL    C50 9890   4.596   3.466   3.741  0.0454  0.2621 -0.6034
  121MOL    O51 9891   4.607   3.353   3.827 -0.5592 -0.3393  0.4271
  121MOL    H52 9892   4.551   3.551   3.793  1.1644 -0.1674  1.0960
  121MOL    H53 9893   4.693   3.505   3.711 -0.6573  1.9559 -0.7554
  121MOL    C54 9894   4.483   3.296   3.859 -0.0518  0.3175  0.1173
  121MOL    O55 9895   4.404   3.367   3.944  0.2677 -0.0867 -0.0998
  121MOL    H56 9896   4.491   3.195   3.898  2.2798  0.1561 -0.7076
  121MOL    H57 9897   4.421   3.275   3.772 -0.3323 -1.7157  0.7819
  121MOL    C58 9898   4.452   3.386   4.077  0.8331 -0.5543  0.3171
  121MOL    O59 9899   4.414   3.278   4.151 -0.0192  0.1276 -0.6786
  121MOL    H60 9900   4.414   3.481   4.113  0.8416  0.5005 -2.3370
  121MOL    H61 9901   4.560   3.394   4.092  0.8235 -1.0829  0.7031
  121MOL    C62 9902   4.284   3.279   4.196 -0.3079 -0.1496 -0.1444
  121MOL    O63 9903   4.252   3.152   4.254  0.3215 -0.8916  0.5631
  121MOL    H64 9904   4.216   3.316   4.120 -2.0900 -1.4838  0.7485
  121MOL    H65 9905   4.266   3.355   4.272 -0.6653 -0.8052  0.4392
  121MOL    C66 9906   4.225   3.065   4.159  0.1148 -0.0603  0.4417
  121MOL    O67 9907   4.098   3.072   4.105 -0.1865 -0.0830 -0.2441
  121MOL    H68 9908   4.243   2.960   4.186  0.2486 -1.1136 -3.4094
  121MOL    H69 9909   4.297   3.072   4.078  0.4237 -0.4367  0.6758
  121MOL    C70 9910   4.007   3.022   4.206 -0.0226 -0.0011 -0.5641
  121MOL    O71 9911   3.994   2.888   4.212 -0.1981  0.1200 -0.7002
  121MOL    H72 9912   3.906   3.061   4.188 -0.4722  0.0922  2.0686
  121MOL    H73 9913   4.038   3.051   4.306 -1.6374  0.4938 -0.1808
  121MOL    C74 9914   3.919   2.843   4.324  0.1079  0.3346 -0.0576
  121MOL    O75 9915   3.780   2.853   4.305 -0.0242 -0.1257 -0.1190
  121MOL    H76 9916   3.949   2.897   4.413 -1.1171 -0.0201  0.5894
  121MOL    H77 9917   3.953   2.740   4.338  0.3349  0.5871  1.2854
  121MOL    C78 9918   3.730   2.745   4.234  0.1502  0.5322  0.3196
  121MOL    O79 9919   3.590   2.750   4.242  0.5585  0.6448  0.0162
  121MOL    H80 9920   3.764   2.642   4.247 -1.7623  0.0589  1.8021
  121MOL    H81 9921   3.760   2.758   4.130  0.1709  0.7580  0.3542
  121MOL    H82 9922   3.563   2.821   4.186 -0.1478 -2.2038 -3.4113
  122MOL     C1 9923   2.101   0.343   5.537  0.6636 -0.4375 -0.4514
  122MOL     O2 9924   2.001   0.241   5.564  0.6994  0.4235  0.0437
  122MOL     H3 9925   2.165   0.371   5.621  1.1993  1.5631 -1.4925
  122MOL     H4 9926   2.160   0.300   5.456  2.2510 -0.5487  0.7201
  122MOL     H5 9927   2.044   0.427   5.498 -2.2720 -0.7905  2.8497
  122MOL     C6 9928   1.898   0.282   5.643 -0.1686 -0.1966 -0.9870
  122MOL     O7 9929   1.938   0.267   5.778 -0.1984 -0.0047  0.0642
  122MOL     H8 9930   1.810   0.220   5.627 -0.3403  0.2964 -1.9649
  122MOL     H9 9931   1.871   0.386   5.625 -0.9676 -0.0569  0.8824
  122MOL    C10 9932   1.931   0.139   5.828  0.0910  0.3792 -0.0261
  122MOL    O11 9933   1.793   0.110   5.860 -0.5692  0.4394  0.1494
  122MOL    H12 9934   1.989   0.133   5.920  1.6971 -0.1953 -1.0562
  122MOL    H13 9935   1.973   0.064   5.761 -0.1155 -0.0359  0.3088
  122MOL    C14 9936   1.742   0.197   5.954 -0.1175 -0.1116 -0.4526
  122MOL    O15 9937   1.604   0.188   5.972  0.0751  0.2966 -0.1326
  122MOL    H16 9938   1.776   0.300   5.944 -1.8252  0.6143  0.9594
  122MOL    H17 9939   1.785   0.173   6.051 -0.8387 -0.2203 -0.1522
  122MOL    C18 9940   1.528   0.237   5.864 -0.0609 -0.6269 -0.4888
  122MOL    O19 9941   1.522   0.378   5.862 -0.4818  0.1866  0.6328
  122MOL    H20 9942   1.432   0.199   5.900  1.0389 -1.0362  2.1900
  122MOL    H21 9943   1.569   0.197   5.772  1.1670 -0.7079  0.0831
  122MOL    C22 9944   1.421   0.427   5.776 -0.0903  0.1834  1.1824
  122MOL    O23 9945   1.448   0.398   5.638 -0.1091  0.2876 -0.2956
  122MOL    H24 9946   1.422   0.535   5.786 -0.8405  0.1182  1.9661
  122MOL    H25 9947   1.321   0.399   5.808 -1.9164 -0.8210 -4.7137
  122MOL    C26 9948   1.570   0.458   5.590 -0.2153  0.0580  0.1552
  122MOL    O27 9949   1.626   0.386   5.483 -0.4419  0.7673 -0.2412
  122MOL    H28 9950   1.643   0.462   5.670  0.6654  0.0017 -0.6374
  122MOL    H29 9951   1.537   0.558   5.564  1.3888  0.8939  1.2572
  122MOL    C30 9952   1.703   0.472   5.400  0.4985  0.2054  0.5831
  122MOL    O31 9953   1.640   0.579   5.346 -0.2198 -0.2052  0.0455
  122MOL    H32 9954   1.750   0.405   5.329  0.3378  1.4578 -0.7155
  122MOL    H33 9955   1.782   0.519   5.458  0.7926 -0.1539  0.4760
  122MOL    C34 9956   1.543   0.538   5.257  0.2012 -0.6057 -0.5363
  122MOL    O35 9957   1.604   0.483   5.142  0.1869  0.6116  0.2270
  122MOL    H36 9958   1.483   0.627   5.238  0.8959 -0.3824 -1.7035
  122MOL    H37 9959   1.481   0.463   5.307  1.5919 -1.8796 -0.6980
  122MOL    C38 9960   1.627   0.581   5.048  0.0860 -0.2242 -0.1297
  122MOL    O39 9961   1.507   0.627   4.990 -0.1611  0.0635  0.6719
  122MOL    H40 9962   1.696   0.548   4.971 -0.6919  0.8477 -1.2938
  122MOL    H41 9963   1.677   0.660   5.105  0.3004 -1.7073  1.8156
  122MOL    C42 9964   1.527   0.737   4.915  0.0113 -0.5538  0.3916
  122MOL    O43 9965   1.589   0.706   4.793  0.5373 -0.0175  0.2375
  122MOL    H44 9966   1.586   0.810   4.971 -2.9302  2.1161  0.1827
  122MOL    H45 9967   1.428   0.782   4.905  0.0803 -0.5606 -0.3393
  122MOL    C46 9968   1.513   0.629   4.709  0.2940 -0.4626  0.5523
  122MOL    O47 9969   1.414   0.709   4.669 -0.2092 -0.0103  0.3004
  122MOL    H48 9970   1.480   0.536   4.756 -2.2967  0.1868  0.1377
  122MOL    H49 9971   1.576   0.600   4.625  1.2501 -0.1816  1.1740
  122MOL    C50 9972   1.303   0.638   4.630  0.3707 -0.8862  0.0737
  122MOL    O51 9973   1.324   0.543   4.530 -0.6718 -0.6390  0.4622
  122MOL    H52 9974   1.224   0.712   4.614  2.0139  1.3139  1.8055
  122MOL    H53 9975   1.261   0.576   4.709  0.7952  0.4736  1.3809
  122MOL    C54 9976   1.354   0.592   4.400 -0.7445  0.4847  1.1604
  122MOL    O55 9977   1.246   0.674   4.352 -0.4493 -0.2215 -0.3034
  122MOL    H56 9978   1.365   0.517   4.322 -1.2903  0.5232  1.0419
  122MOL    H57 9979   1.447   0.648   4.407  0.1187 -0.4913 -2.0165
  122MOL    C58 9980   1.141   0.592   4.323  0.1409 -0.2181  0.3652
  122MOL    O59 9981   1.155   0.521   4.206 -0.0914 -0.7510 -0.2932
  122MOL    H60 9982   1.054   0.657   4.318  0.1439 -0.3468 -1.5955
  122MOL    H61 9983   1.123   0.527   4.408 -2.1744  0.1700  0.1917
  122MOL    C62 9984   1.179   0.605   4.089  0.0919  0.4516  0.7994
  122MOL    O63 9985   1.184   0.534   3.968  0.2379  0.2279 -0.0702
  122MOL    H64 9986   1.277   0.654   4.097  1.1295 -1.0876 -1.9683
  122MOL    H65 9987   1.099   0.678   4.087 -0.3485 -0.0610 -0.5677
  122MOL    C66 9988   1.065   0.469   3.934 -0.1133 -0.0488 -0.0362
  122MOL    O67 9989   0.951   0.543   3.938 -0.7016  0.6335 -0.5746
  122MOL    H68 9990   1.049   0.384   4.001  2.6098 -0.3821  0.2362
  122MOL    H69 9991   1.074   0.428   3.833 -0.7341 -0.1431 -0.0562
  122MOL    C70 9992   0.943   0.629   3.835  0.1744  0.2488 -0.0591
  122MOL    O71 9993   0.903   0.565   3.722 -0.1458 -0.0383 -0.4767
  122MOL    H72 9994   1.039   0.673   3.810  0.5483 -0.1988  0.5789
  122MOL    H73 9995   0.867   0.697   3.873  0.3446 -0.6572  1.9827
  122MOL    C74 9996   0.766   0.525   3.730 -0.3507 -1.0087  0.4664
  122MOL    O75 9997   0.683   0.630   3.694 -0.5029 -0.4746 -0.1562
  122MOL    H76 9998   0.738   0.494   3.831  3.7774 -1.5767  1.5325
  122MOL    H77 9999   0.758   0.436   3.668  2.7096  1.2119 -3.3171
  122MOL    C7810000   0.693   0.659   3.560 -0.2858  0.6637  0.2409
  122MOL    O7910001   0.622   0.773   3.524 -0.5941  0.2429 -0.0424
  122MOL    H8010002   0.641   0.581   3.504  1.2933 -0.3234  0.1208
  122MOL    H8110003   0.792   0.680   3.521 -0.8467  1.0828 -0.9687
  122MOL    H8210004   0.541   0.774   3.573 -0.1530 -0.5128  0.7265
  123MOL     C110005   5.888   5.653   3.070  0.1148  0.0490 -1.2137
  123MOL     O210006   6.020   5.590   3.081  0.4150  0.2499  0.3381
  123MOL     H310007   5.805   5.583   3.061 -1.9128  1.9938  1.3841
  123MOL     H410008   5.891   5.712   3.162  1.2354 -1.9192  0.0651
  123MOL     H510009   5.880   5.716   2.982  2.1194  1.3560 -0.5168
  123MOL     C610010   6.026   5.461   3.010 -0.4054  0.2902 -0.7205
  123MOL     O710011   5.985   5.475   2.874 -0.5406 -0.0679 -1.1430
  123MOL     H810012   5.958   5.393   3.061  1.3581 -0.1422  1.1005
  123MOL     H910013   6.128   5.426   3.027 -0.7128 -0.9051 -1.2961
  123MOL    C1010014   6.080   5.539   2.786 -0.0157  0.0503 -0.5654
  123MOL    O1110015   6.169   5.446   2.734  0.4018 -0.2686 -0.2950
  123MOL    H1210016   6.143   5.607   2.844  0.5351  0.0253 -1.1318
  123MOL    H1310017   6.022   5.582   2.705  0.4287  0.0222 -0.8998
  123MOL    C1410018   6.120   5.376   2.621 -0.2957 -0.4818  0.2821
  123MOL    O1510019   6.029   5.277   2.647 -0.2282 -0.7710  0.0023
  123MOL    H1610020   6.194   5.332   2.554 -2.2433 -0.7139 -1.7584
  123MOL    H1710021   6.081   5.442   2.544 -0.8613 -0.9030  0.2006
  123MOL    C1810022   6.081   5.184   2.738  0.2627  0.0314  0.0874
  123MOL    O1910023   6.187   5.111   2.679  0.1049  0.5286 -0.5435
  123MOL    H2010024   6.003   5.112   2.764 -1.7350  1.9377 -0.3901
  123MOL    H2110025   6.109   5.226   2.835 -0.7435  2.2147 -0.5219
  123MOL    C2210026   6.137   5.014   2.588  0.5537 -0.1390  0.3779
  123MOL    O2310027   6.091   4.894   2.664  0.1687  0.4890 -0.3393
  123MOL    H2410028   6.212   4.974   2.520 -1.0138 -0.9738 -0.8906
  123MOL    H2510029   6.055   5.048   2.525  1.0064  1.3852  0.5935
  123MOL    C2610030   6.185   4.851   2.755  0.6476 -0.4221 -0.6036
  123MOL    O2710031   6.298   4.821   2.687 -0.7720 -0.6876 -0.0377
  123MOL    H2810032   6.136   4.781   2.823  1.5042 -1.4843 -1.0884
  123MOL    H2910033   6.200   4.937   2.821  1.6969 -0.2075 -1.1147
  123MOL    C3010034   6.402   4.787   2.770 -0.0032  0.2964 -0.6651
  123MOL    O3110035   6.527   4.817   2.720 -0.0411  0.0133  0.0876
  123MOL    H3210036   6.383   4.686   2.807 -0.1821 -0.0343 -1.6488
  123MOL    H3310037   6.412   4.845   2.862  2.0850 -1.9675  0.6168
  123MOL    C3410038   6.555   4.751   2.603  0.3754 -0.3973  0.0105
  123MOL    O3510039   6.580   4.617   2.628 -0.5958 -0.0230  0.0686
  123MOL    H3610040   6.641   4.798   2.555 -1.6297  0.8646 -2.4612
  123MOL    H3710041   6.471   4.751   2.535  0.7604 -0.1359 -0.4696
  123MOL    C3810042   6.712   4.591   2.670  0.6390 -0.5150  0.4658
  123MOL    O3910043   6.746   4.660   2.784 -0.2962 -1.0058  0.2150
  123MOL    H4010044   6.772   4.634   2.590  0.7899  1.0071  1.3771
  123MOL    H4110045   6.735   4.486   2.688  1.4892 -0.4547 -0.2194
  123MOL    C4210046   6.880   4.673   2.810  0.1222 -0.0043 -0.0326
  123MOL    O4310047   6.923   4.780   2.732  0.3239 -0.4334  0.2428
  123MOL    H4410048   6.934   4.581   2.789  0.3374 -0.2334  1.4731
  123MOL    H4510049   6.903   4.688   2.916  2.5562  2.0625 -0.8055
  123MOL    C4610050   6.899   4.898   2.796  0.1541 -0.3838  0.4268
  123MOL    O4710051   6.988   4.908   2.909 -0.2765  0.3604  0.5628
  123MOL    H4810052   6.793   4.918   2.814 -0.6328 -2.1522 -1.8103
  123MOL    H4910053   6.941   4.972   2.727  0.1897  1.6563  2.5987
  123MOL    C5010054   6.951   5.014   2.990  0.5567 -0.3578  0.6670
  123MOL    O5110055   6.841   4.993   3.074  0.5731 -0.3665  0.1376
  123MOL    H5210056   6.939   5.096   2.919  0.3466 -0.9586  0.0039
  123MOL    H5310057   7.044   5.047   3.036 -0.1014  1.0099  1.0617
  123MOL    C5410058   6.858   4.924   3.192 -0.2953 -0.9035  0.9612
  123MOL    O5510059   6.930   5.000   3.287 -0.8623 -0.2740  0.3215
  123MOL    H5610060   6.906   4.830   3.163 -0.2659 -1.1238  1.7094
  123MOL    H5710061   6.758   4.898   3.226 -1.2388  2.8914  1.3327
  123MOL    C5810062   6.862   5.106   3.340 -0.1678  0.0197 -0.8917
  123MOL    O5910063   6.772   5.065   3.441 -0.2970  0.2969  0.6774
  123MOL    H6010064   6.814   5.152   3.253  1.4214 -0.8606 -2.2754
  123MOL    H6110065   6.927   5.186   3.377 -2.2593  1.6140 -0.5621
  123MOL    C6210066   6.833   5.022   3.554 -0.7216  0.3054 -0.3950
  123MOL    O6310067   6.896   5.127   3.621  0.0971  0.2976  0.5855
  123MOL    H6410068   6.898   4.938   3.527  2.2269  2.0909  0.8777
  123MOL    H6510069   6.761   4.974   3.620  1.3362  0.6998  2.2193
  123MOL    C6610070   6.963   5.078   3.729  0.4371 -0.3647 -0.0508
  123MOL    O6710071   7.083   5.024   3.698  0.1686  0.0361  0.3561
  123MOL    H6810072   6.905   5.010   3.791  1.7240 -1.2221  0.2386
  123MOL    H6910073   6.975   5.162   3.797  0.3829 -0.2712 -0.1574
  123MOL    C7010074   7.172   5.116   3.637  0.0845  0.6844 -0.2485
  123MOL    O7110075   7.244   5.193   3.735  0.4109  0.7366  0.3995
  123MOL    H7210076   7.110   5.180   3.574 -0.5536 -0.6715 -1.0127
  123MOL    H7310077   7.240   5.068   3.567  1.1423 -0.0087  1.2276
  123MOL    C7410078   7.314   5.106   3.828 -0.0903  0.2771 -0.1260
  123MOL    O7510079   7.401   5.016   3.768  0.0797 -0.0398 -0.1074
  123MOL    H7610080   7.242   5.042   3.879 -0.6988  1.1899  0.1933
  123MOL    H7710081   7.375   5.165   3.898 -0.7851 -0.4496  1.1097
  123MOL    C7810082   7.521   5.074   3.714 -0.2364  0.1824  0.2164
  123MOL    O7910083   7.640   5.052   3.792  0.2803  0.2592 -0.0591
  123MOL    H8010084   7.512   5.180   3.695 -0.0313 -0.1461 -1.7850
  123MOL    H8110085   7.536   5.034   3.614  0.3936  2.4675 -0.6214
  123MOL    H8210086   7.703   5.008   3.737  1.6069  0.6125  1.1561
  124MOL     C110087   5.973   5.733   4.560  0.0128 -0.3199  0.1732
  124MOL     O210088   6.023   5.719   4.431 -0.2069 -0.0093 -0.6837
  124MOL     H310089   5.981   5.635   4.608  1.3430 -0.3335 -0.0583
  124MOL     H410090   6.037   5.801   4.617 -1.8630 -0.2965  2.3203
  124MOL     H510091   5.867   5.753   4.551  0.9956  4.7508 -1.3776
  124MOL     C610092   6.151   5.672   4.430  0.3671  0.5569  0.1139
  124MOL     O710093   6.156   5.536   4.470  0.3176 -0.4262  0.1462
  124MOL     H810094   6.209   5.730   4.502 -0.5067  0.5380  0.8530
  124MOL     H910095   6.188   5.684   4.329  1.0094 -1.2710  0.1029
  124MOL    C1010096   6.091   5.448   4.383 -0.0387 -0.1772 -0.5661
  124MOL    O1110097   6.121   5.317   4.414  0.4092  0.5933  0.0814
  124MOL    H1210098   6.131   5.454   4.282  1.3207 -1.0943 -0.0853
  124MOL    H1310099   5.983   5.462   4.376 -0.0820  0.3379  1.0273
  124MOL    C1410100   6.044   5.279   4.522 -0.1405  0.4526  0.3665
  124MOL    O1510101   5.912   5.238   4.485 -0.2462 -0.3639 -0.0871
  124MOL    H1610102   6.028   5.361   4.592 -0.6092  0.3044  0.4280
  124MOL    H1710103   6.092   5.207   4.589  1.4197  0.3320 -0.8584
  124MOL    C1810104   5.922   5.102   4.443 -0.3890 -0.5527 -1.0574
  124MOL    O1910105   5.914   5.013   4.549 -0.0958 -0.4352 -0.1793
  124MOL    H2010106   6.012   5.082   4.385  0.9434  1.1227  0.3822
  124MOL    H2110107   5.834   5.073   4.386 -0.2682 -1.6360 -0.7044
  124MOL    C2210108   5.788   4.998   4.609  0.5986  0.4203  0.0249
  124MOL    O2310109   5.719   4.906   4.526 -0.4021 -0.0884 -0.1611
  124MOL    H2410110   5.736   5.094   4.601 -0.7916 -0.3280 -0.0157
  124MOL    H2510111   5.799   4.969   4.714  1.0592  3.0331  0.7400
  124MOL    C2610112   5.723   4.776   4.567  0.5398 -0.6488 -0.5705
  124MOL    O2710113   5.856   4.742   4.588 -0.4034 -0.9148  0.5909
  124MOL    H2810114   5.665   4.718   4.496 -0.6475 -1.5477  1.1016
  124MOL    H2910115   5.672   4.759   4.662  0.4759 -0.7516 -0.6248
  124MOL    C3010116   5.918   4.722   4.463 -0.2590 -0.2519  0.1306
  124MOL    O3110117   6.055   4.693   4.479  0.2774 -0.4114  0.2941
  124MOL    H3210118   5.906   4.808   4.397 -0.0249  1.0855  1.8014
  124MOL    H3310119   5.879   4.631   4.417 -1.9278  1.4401 -1.9100
  124MOL    C3410120   6.125   4.802   4.528  0.2560  0.0363  0.1092
  124MOL    O3510121   6.246   4.756   4.576 -0.6677  0.1113 -0.1429
  124MOL    H3610122   6.064   4.833   4.613  2.7385 -2.7776  3.1005
  124MOL    H3710123   6.124   4.886   4.459  1.1575  0.5047  0.6581
  124MOL    C3810124   6.229   4.687   4.699 -0.2567 -0.2977  0.2510
  124MOL    O3910125   6.342   4.630   4.745 -0.1433  0.0538  0.0734
  124MOL    H4010126   6.149   4.614   4.695 -0.8892  0.4000 -0.0840
  124MOL    H4110127   6.212   4.758   4.780  0.1027 -1.6105  1.4968
  124MOL    C4210128   6.384   4.511   4.680  0.1627 -0.1300  0.6680
  124MOL    O4310129   6.282   4.406   4.685 -0.0638 -0.5367  0.4866
  124MOL    H4410130   6.477   4.478   4.725  0.3602 -0.4816  0.0148
  124MOL    H4510131   6.394   4.536   4.574  0.3752  2.9629  1.3558
  124MOL    C4610132   6.278   4.339   4.809 -0.1927 -0.3174  0.0481
  124MOL    O4710133   6.401   4.294   4.850  0.2330  0.1032  0.0484
  124MOL    H4810134   6.218   4.249   4.801  1.0677 -1.0452 -1.3220
  124MOL    H4910135   6.231   4.410   4.878 -2.4753 -1.4901 -0.2336
  124MOL    C5010136   6.447   4.198   4.765 -0.3321 -0.3668  0.3212
  124MOL    O5110137   6.583   4.167   4.781 -0.1953 -0.2213  0.4012
  124MOL    H5210138   6.433   4.236   4.664  0.7999 -0.6965  0.0349
  124MOL    H5310139   6.382   4.111   4.764  0.3505 -0.8811  0.3800
  124MOL    C5410140   6.614   4.102   4.899  0.5151 -0.3645  0.6888
  124MOL    O5510141   6.562   3.972   4.899  1.0173 -0.6840  0.3092
  124MOL    H5610142   6.589   4.163   4.987  0.0812  1.5870 -0.7503
  124MOL    H5710143   6.722   4.089   4.893  0.6975  1.3305  0.1465
  124MOL    C5810144   6.524   3.926   5.028  0.6635  0.0723 -0.9201
  124MOL    O5910145   6.439   4.019   5.092  0.0910 -0.1751 -0.1298
  124MOL    H6010146   6.607   3.911   5.098 -0.5025 -2.0066  0.0703
  124MOL    H6110147   6.488   3.824   5.014 -0.1579  0.2297  0.0162
  124MOL    C6210148   6.312   4.023   5.038 -0.3207 -0.7499  0.0096
  124MOL    O6310149   6.211   4.043   5.134 -0.0881  0.2085 -0.0931
  124MOL    H6410150   6.284   3.925   4.999  0.7518 -1.2474  0.4644
  124MOL    H6510151   6.291   4.084   4.950  3.4834 -3.6680 -3.1263
  124MOL    C6610152   6.167   4.176   5.156 -0.2845  0.3056 -0.6009
  124MOL    O6710153   6.102   4.215   5.042  0.3809  0.5148 -0.3032
  124MOL    H6810154   6.245   4.252   5.162  1.0366 -1.1343  1.5524
  124MOL    H6910155   6.110   4.191   5.248  1.0275  0.9034  0.1317
  124MOL    C7010156   5.976   4.156   5.032  0.1212  0.0380 -0.4183
  124MOL    O7110157   5.891   4.206   5.133  0.0110 -0.3325 -0.5712
  124MOL    H7210158   5.975   4.048   5.030 -0.8304  0.0592 -2.1824
  124MOL    H7310159   5.932   4.172   4.933  0.8359 -0.5186 -0.8217
  124MOL    C7410160   5.843   4.337   5.102 -0.5416 -1.0557  0.7662
  124MOL    O7510161   5.740   4.336   5.009 -0.2598  0.1397 -0.2951
  124MOL    H7610162   5.920   4.401   5.060 -2.2149  1.2369  1.0983
  124MOL    H7710163   5.814   4.378   5.199 -1.6514  1.4068 -0.5592
  124MOL    C7810164   5.626   4.270   5.060  0.3054 -0.5837  0.0145
  124MOL    O7910165   5.527   4.244   4.960  0.5510 -0.2957  0.4531
  124MOL    H8010166   5.576   4.326   5.139  0.7408 -1.1395  0.6822
  124MOL    H8110167   5.652   4.178   5.112  0.6262  0.4189  1.6494
  124MOL    H8210168   5.473   4.322   4.955 -0.1600 -0.7564  0.8633
  125MOL     C110169   7.688   3.601   7.207  0.0592  0.3343 -0.2034
  125MOL     O210170   7.590   3.600   7.098 -0.4293 -0.3278 -0.4289
  125MOL     H310171   7.716   3.503   7.245 -0.0892 -0.4121 -1.9816
  125MOL     H410172   7.778   3.656   7.179  0.6324 -0.7892 -0.5949
  125MOL     H510173   7.645   3.660   7.287  0.1500 -0.1586  0.2089
  125MOL     C610174   7.634   3.525   6.986 -0.1539 -0.6719  0.2423
  125MOL     O710175   7.760   3.567   6.944  0.2380 -0.4105  0.1691
  125MOL     H810176   7.550   3.518   6.917  0.0599 -1.2159  0.0374
  125MOL     H910177   7.652   3.421   7.014 -0.6513 -1.0133 -0.7246
  125MOL    C1010178   7.758   3.683   6.875  0.0362 -0.6809  0.2751
  125MOL    O1110179   0.084   3.693   6.782  0.5823  0.7521  0.4538
  125MOL    H1210180   7.744   3.769   6.940 -1.1589  0.0366 -0.8961
  125MOL    H1310181   7.675   3.680   6.803  1.3326 -1.1003 -1.2346
  125MOL    C1410182   0.194   3.764   6.831 -0.6942  0.0695  0.3441
  125MOL    O1510183   0.174   3.899   6.839  0.3634 -0.0787  0.1288
  125MOL    H1610184   0.283   3.741   6.773 -1.2060 -1.4335  0.1310
  125MOL    H1710185   0.217   3.714   6.925 -0.1176 -0.7376 -0.2224
  125MOL    C1810186   0.120   3.969   6.732 -0.7314 -0.0401 -0.1904
  125MOL    O1910187   0.195   3.964   6.610 -0.0496 -0.3007 -0.3965
  125MOL    H2010188   0.112   4.076   6.750  1.5170 -0.0208  0.8213
  125MOL    H2110189   0.028   3.913   6.714  0.2216 -1.1858 -1.6968
  125MOL    C2210190   0.331   3.985   6.629  0.1486  0.0213 -0.2249
  125MOL    O2310191   0.362   4.113   6.656  0.2511 -0.3626  0.2394
  125MOL    H2410192   0.387   3.946   6.545  1.0114 -1.4251  0.9962
  125MOL    H2510193   0.365   3.929   6.716  0.6936  3.2405  1.7223
  125MOL    C2610194   0.380   4.189   6.538  0.6426  0.6822  0.5362
  125MOL    O2710195   0.511   4.184   6.487 -0.0528  0.5990 -0.0170
  125MOL    H2810196   0.355   4.292   6.566 -0.0777  0.1425  1.9086
  125MOL    H2910197   0.311   4.161   6.459  0.7395  1.4948  0.1502
  125MOL    C3010198   0.604   4.246   6.564 -0.2539 -1.2481 -0.9201
  125MOL    O3110199   0.590   4.386   6.573 -0.1249  0.1579 -0.2308
  125MOL    H3210200   0.707   4.223   6.536  0.4865  0.7796  0.0471
  125MOL    H3310201   0.583   4.213   6.665  2.8495  1.4290  0.6910
  125MOL    C3410202   0.624   4.446   6.452  0.2999 -0.0635  0.3345
  125MOL    O3510203   0.763   4.444   6.451  0.1608 -0.2118  0.8997
  125MOL    H3610204   0.580   4.546   6.451 -0.6192 -0.4177  2.1083
  125MOL    H3710205   0.578   4.396   6.367  1.8771  0.0121 -0.5674
  125MOL    C3810206   0.818   4.489   6.330  0.2333 -0.3221 -0.4679
  125MOL    O3910207   0.765   4.422   6.217 -0.3343  0.1469 -0.1462
  125MOL    H4010208   0.926   4.478   6.342  0.0537 -0.6233  0.8613
  125MOL    H4110209   0.804   4.596   6.320 -1.3992 -0.3049  1.6755
  125MOL    C4210210   0.829   4.301   6.194 -0.0532 -0.3822 -0.6079
  125MOL    O4310211   0.754   4.223   6.108 -0.0505  0.4191 -0.7784
  125MOL    H4410212   0.843   4.241   6.284 -1.1236  0.1003 -0.1190
  125MOL    H4510213   0.932   4.315   6.161  0.3612  0.4226  0.9797
  125MOL    C4610214   0.759   4.256   5.976 -0.6188 -0.6080 -0.0881
  125MOL    O4710215   0.884   4.221   5.936 -0.0317  0.1330 -0.0842
  125MOL    H4810216   0.726   4.359   5.962  1.3839  0.0714  0.0678
  125MOL    H4910217   0.686   4.193   5.925 -0.3312 -0.6239 -0.4779
  125MOL    C5010218   0.913   4.253   5.805 -0.4789 -0.3350  0.0490
  125MOL    O5110219   1.048   4.249   5.774 -0.9636 -0.7620 -0.4561
  125MOL    H5210220   0.872   4.350   5.780  1.9408 -0.0602 -3.1905
  125MOL    H5310221   0.853   4.190   5.740  1.0361 -0.5824 -1.1249
  125MOL    C5410222   1.114   4.346   5.853 -0.1750 -0.4201  0.6048
  125MOL    O5510223   1.067   4.470   5.822  0.2462  0.8255 -0.3261
  125MOL    H5610224   1.219   4.345   5.823 -0.2406  0.9422  0.3321
  125MOL    H5710225   1.093   4.326   5.958 -2.1354 -0.9454  0.1452
  125MOL    C5810226   1.117   4.578   5.893 -0.0800  0.6012  0.9177
  125MOL    O5910227   1.044   4.612   6.010  0.1304 -0.8416 -0.0020
  125MOL    H6010228   1.130   4.659   5.821  3.4188 -0.3882  0.3195
  125MOL    H6110229   1.221   4.553   5.918 -0.0076 -1.1538 -1.0364
  125MOL    C6210230   0.914   4.668   5.982  0.8520  0.0903 -0.2257
  125MOL    O6310231   0.913   4.804   5.950 -0.4316 -0.5486 -0.2876
  125MOL    H6410232   0.843   4.647   6.062  1.5195 -1.5732 -0.0345
  125MOL    H6510233   0.866   4.620   5.897 -0.7639  0.3108  0.5385
  125MOL    C6610234   0.976   4.888   6.046 -0.4937 -0.2485 -0.4786
  125MOL    O6710235   0.892   4.902   6.163 -0.2340  0.1034 -0.2458
  125MOL    H6810236   0.977   4.984   5.994  0.2804  0.5691  1.0512
  125MOL    H6910237   1.074   4.845   6.064 -0.1111  0.0396 -1.7843
  125MOL    C7010238   0.938   5.007   6.255 -0.5806  0.5116 -0.2263
  125MOL    O7110239   0.922   5.133   6.195  0.1308  0.1761  0.2450
  125MOL    H7210240   1.047   5.003   6.258 -0.5701  0.6005 -0.5647
  125MOL    H7310241   0.903   5.002   6.359 -0.6251 -0.2060 -0.2759
  125MOL    C7410242   0.810   5.186   6.226 -0.6011  0.3682  0.1812
  125MOL    O7510243   0.813   5.222   6.371 -0.2642  0.0934  0.2275
  125MOL    H7610244   0.731   5.116   6.199 -0.2246 -0.2798  0.7381
  125MOL    H7710245   0.793   5.278   6.170 -0.2026  0.1349 -0.3304
  125MOL    C7810246   0.892   5.333   6.386  0.4330  0.0105 -0.8079
  125MOL    O7910247   0.918   5.362   6.521 -0.0757 -0.1497  0.3008
  125MOL    H8010248   0.846   5.423   6.344 -0.7550 -2.1952 -4.4593
  125MOL    H8110249   0.983   5.302   6.335 -0.4302  0.7360 -2.8440
  125MOL    H8210250   0.969   5.288   6.551 -1.6546 -1.5968 -0.4942
  126MOL     C110251   7.469   6.476   6.985 -0.0060 -0.1505  0.7807
  126MOL     O210252   7.498   6.495   6.844  0.2943 -0.3412  0.1237
  126MOL     H310253   7.452   6.370   7.000  0.6230 -0.7353 -2.3617
  126MOL     H410254   7.541   6.523   7.052  1.6381 -2.4688  0.6942
  126MOL     H510255   7.378   6.532   7.007  0.2270  0.2196  0.8049
  126MOL     C610256   7.374   6.489   6.776  0.0571  0.6663 -0.5484
  126MOL     O710257   7.293   6.597   6.814  0.0716 -0.0062 -0.0884
  126MOL     H810258   7.317   6.402   6.807  0.8153  0.6593  0.8751
  126MOL     H910259   7.381   6.469   6.669  1.5043 -0.8389 -0.2046
  126MOL    C1010260   7.326   6.722   6.761 -0.3143  0.2297 -0.8422
  126MOL    O1110261   7.331   6.732   6.621 -0.4678  0.6339  0.1367
  126MOL    H1210262   7.410   6.762   6.819 -0.5408 -0.0263 -0.3387
  126MOL    H1310263   7.241   6.781   6.796 -0.1211 -1.6461  3.0770
  126MOL    C1410264   7.456   6.789   6.575 -0.2812  0.0281  0.0688
  126MOL    O1510265   7.452   6.824   6.440 -0.0665  0.1676  0.6158
  126MOL    H1610266   7.541   6.723   6.594  0.2016  1.0596  1.6227
  126MOL    H1710267   7.481   6.878   6.632 -0.0620 -0.7122  1.1363
  126MOL    C1810268   7.477   6.717   6.364 -0.2211 -0.3521  0.1820
  126MOL    O1910269   7.609   6.680   6.358  0.1221  0.1420  0.5162
  126MOL    H2010270   7.432   6.748   6.270  2.6590  1.9618 -0.4814
  126MOL    H2110271   7.415   6.632   6.394  2.1223 -1.8535  0.9005
  126MOL    C2210272   7.688   6.772   6.284  0.1379 -0.0089  0.1466
  126MOL    O2310273   7.661   6.765   6.149  0.5439 -0.1798  0.0640
  126MOL    H2410274   0.010   6.754   6.307 -0.6985 -1.7649  2.8396
  126MOL    H2510275   7.679   6.872   6.326 -2.5148  0.0943 -0.5739
  126MOL    C2610276   7.695   6.642   6.094 -0.0615 -0.6850  0.1716
  126MOL    O2710277   0.034   6.645   6.030 -0.1874  0.2670  0.2695
  126MOL    H2810278   7.616   6.643   6.018  0.8719  3.2427 -0.8776
  126MOL    H2910279   7.665   6.560   6.159  0.4988 -0.8260  0.2460
  126MOL    C3010280   0.051   6.719   5.918 -0.3312 -0.4861 -1.0733
  126MOL    O3110281   0.019   6.638   5.806  0.2199 -0.4150  0.1044
  126MOL    H3210282   0.153   6.757   5.908  0.2856 -1.6447  0.5502
  126MOL    H3310283   7.766   6.803   5.913  0.0190 -0.0957  0.3483
  126MOL    C3410284   0.123   6.553   5.778 -0.2660 -0.4494  0.6043
  126MOL    O3510285   0.239   6.614   5.718 -0.2518  0.3391 -0.7684
  126MOL    H3610286   0.069   6.491   5.706 -0.8561 -0.5933  1.1621
  126MOL    H3710287   0.155   6.493   5.864  1.9171  2.2998  1.7663
  126MOL    C3810288   0.203   6.661   5.596  0.1415 -0.1792  0.1147
  126MOL    O3910289   0.314   6.708   5.533  0.7548  0.0890  0.3871
  126MOL    H4010290   0.129   6.738   5.617  1.7882  1.5448 -0.2925
  126MOL    H4110291   0.156   6.590   5.528  1.2062  0.1186 -0.9425
  126MOL    C4210292   0.405   6.612   5.495 -0.1306 -0.4009  0.2032
  126MOL    O4310293   0.353   6.531   5.392 -0.0061 -0.6551  0.4235
  126MOL    H4410294   0.432   6.547   5.578 -1.1398  2.2480  2.6990
  126MOL    H4510295   0.496   6.664   5.463  0.2113 -0.4210  1.1139
  126MOL    C4610296   0.450   6.443   5.340  0.0694 -0.3171 -0.4847
  126MOL    O4710297   0.482   6.343   5.428  0.3726 -0.6926  0.1004
  126MOL    H4810298   0.538   6.498   5.306  1.6864 -1.3262  1.9005
  126MOL    H4910299   0.410   6.392   5.253 -1.8686  0.9052 -0.3392
  126MOL    C5010300   0.374   6.250   5.443  0.0027  0.5201 -0.7642
  126MOL    O5110301   0.379   6.163   5.336  0.6715 -0.6189  0.0264
  126MOL    H5210302   0.279   6.302   5.448 -0.0074  0.4629 -0.3971
  126MOL    H5310303   0.391   6.180   5.525 -2.1588 -0.3023 -0.9923
  126MOL    C5410304   0.497   6.088   5.337 -0.6642 -0.0287  0.3280
  126MOL    O5510305   0.501   5.985   5.238  0.0592  0.1856 -0.2511
  126MOL    H5610306   0.519   6.049   5.437 -0.5263 -1.6136 -0.3182
  126MOL    H5710307   0.577   6.156   5.309 -0.1393 -1.2681 -1.2398
  126MOL    C5810308   0.508   6.033   5.111  0.0563  0.5601 -0.0948
  126MOL    O5910309   0.642   6.063   5.072  0.0218 -0.2082 -0.0706
  126MOL    H6010310   0.437   6.109   5.080 -0.2232  0.1847 -0.3861
  126MOL    H6110311   0.467   5.951   5.053 -0.1569 -0.8000  1.9385
  126MOL    C6210312   0.727   5.955   5.062  0.1482 -0.4598  0.3537
  126MOL    O6310313   0.743   5.886   5.179 -0.3192 -0.5364 -0.4871
  126MOL    H6410314   0.816   6.005   5.022 -0.9812  0.7317 -0.7251
  126MOL    H6510315   0.699   5.867   5.005 -2.3583  0.0429  0.7431
  126MOL    C6610316   0.857   5.919   5.243 -0.5056 -1.3059 -0.8458
  126MOL    O6710317   0.968   5.880   5.177 -0.0926 -0.1342 -0.0659
  126MOL    H6810318   0.861   5.874   5.342  2.8215  1.5740  0.4227
  126MOL    H6910319   0.866   6.027   5.254 -2.0113 -0.8929 -3.2999
  126MOL    C7010320   0.995   5.743   5.179  0.0910 -0.6848  0.1679
  126MOL    O7110321   1.095   5.715   5.088 -0.2152  0.1815  0.4386
  126MOL    H7210322   0.899   5.693   5.166 -0.2352 -0.1315  0.4146
  126MOL    H7310323   1.033   5.709   5.275 -1.5081 -0.4460  0.9133
  126MOL    C7410324   1.038   5.709   4.961  0.3813  0.3693  0.2950
  126MOL    O7510325   0.954   5.596   4.948 -0.1943  0.0904 -0.5044
  126MOL    H7610326   1.119   5.711   4.888 -0.7082  0.2777 -0.9400
  126MOL    H7710327   0.986   5.799   4.929  1.8983  0.8181 -0.9646
  126MOL    C7810328   1.030   5.485   4.957  0.6812 -0.7197  0.3316
  126MOL    O7910329   1.114   5.464   4.852  0.1216 -0.3198  0.0605
  126MOL    H8010330   0.967   5.397   4.950 -0.0896 -0.0374 -1.5549
  126MOL    H8110331   1.082   5.466   5.051 -0.1580  0.2876  1.0113
  126MOL    H8210332   1.198   5.432   4.882 -0.0034  0.5753  1.4387
  127MOL     C110333   7.190   2.367   7.549  0.3148  0.5322 -0.2396
  127MOL     O210334   7.077   2.290   7.513  0.1656  0.1242 -0.3514
  127MOL     H310335   7.281   2.324   7.509  2.3626  3.0440  1.5275
  127MOL     H410336   7.186   2.474   7.526  1.3252  0.7808  0.7221
  127MOL     H510337   7.207   2.358   7.656  1.1354  1.2403 -0.3055
  127MOL     C610338   7.061   2.317   7.372  0.2362 -0.3977 -0.3821
  127MOL     O710339   7.170   2.272   7.293 -0.0496  0.2136  0.4660
  127MOL     H810340   7.045   2.419   7.338  2.3578  1.5706  4.0647
  127MOL     H910341   6.971   2.263   7.346 -0.1753  0.4500 -0.7396
  127MOL    C1010342   7.169   2.130   7.271 -0.2851  0.0335  1.4173
  127MOL    O1110343   7.261   2.089   7.171 -0.3963 -0.1579 -0.2067
  127MOL    H1210344   7.070   2.091   7.248 -0.7825  2.6871 -1.2832
  127MOL    H1310345   7.194   2.080   7.364  0.0537 -1.3110  0.6112
  127MOL    C1410346   7.244   2.164   7.049 -1.0597 -0.6800  0.2592
  127MOL    O1510347   7.117   2.142   6.995  0.2976  0.6633 -0.4330
  127MOL    H1610348   7.330   2.140   6.987 -0.4639  0.3704  0.6515
  127MOL    H1710349   7.250   2.270   7.073 -1.7693 -0.1785 -1.7201
  127MOL    C1810350   7.114   2.015   6.946 -0.2830 -0.5637 -0.7321
  127MOL    O1910351   6.995   1.982   6.889  0.1495  1.2342 -0.1520
  127MOL    H2010352   7.119   1.948   7.031  1.6399 -1.9831 -1.9324
  127MOL    H2110353   7.192   1.989   6.874 -0.5154 -0.6257 -0.9627
  127MOL    C2210354   6.981   2.029   6.757  0.0116 -0.2117  0.6191
  127MOL    O2310355   6.863   1.991   6.696  0.2088 -0.5602 -0.6882
  127MOL    H2410356   7.063   2.007   6.688  0.4881 -1.8714  1.6924
  127MOL    H2510357   6.986   2.137   6.762 -3.9424  0.0552  0.2337
  127MOL    C2610358   6.751   2.047   6.760 -0.0919 -0.6077 -0.0846
  127MOL    O2710359   6.716   2.179   6.727 -0.1841  0.0190  0.3446
  127MOL    H2810360   6.763   2.031   6.867 -2.4205 -0.3439  0.2390
  127MOL    H2910361   6.670   1.983   6.725  0.5858 -2.3460  1.4692
  127MOL    C3010362   6.586   2.207   6.785  0.1322  0.8027 -0.0936
  127MOL    O3110363   6.483   2.162   6.706 -0.2094  0.7592 -0.1868
  127MOL    H3210364   6.565   2.313   6.798  1.4533  1.0353  0.2596
  127MOL    H3310365   6.576   2.165   6.885  0.3801  1.0205  0.0268
  127MOL    C3410366   6.352   2.190   6.750 -0.5143 -0.1626  0.0686
  127MOL    O3510367   6.332   2.127   6.871  0.0441 -0.0943  0.4518
  127MOL    H3610368   6.288   2.160   6.668 -0.2910 -1.1883  0.2651
  127MOL    H3710369   6.336   2.296   6.770  2.1343 -0.2756  3.2731
  127MOL    C3810370   6.320   1.992   6.871  0.9900 -0.6516  0.5820
  127MOL    O3910371   6.199   1.949   6.828  0.0361  0.1561  0.4263
  127MOL    H4010372   6.340   1.961   6.974  0.3352  0.2521  0.9829
  127MOL    H4110373   6.399   1.947   6.810  1.5788  0.5920  0.4263
  127MOL    C4210374   6.194   1.809   6.791  0.0478 -0.3541  0.0431
  127MOL    O4310375   6.268   1.782   6.672  0.5861 -0.5178  0.1076
  127MOL    H4410376   6.085   1.796   6.787  0.1575 -1.2912 -0.0359
  127MOL    H4510377   6.227   1.749   6.875  0.2729  0.6945  0.7132
  127MOL    C4610378   6.204   1.859   6.570 -0.0983 -1.0138  0.0566
  127MOL    O4710379   6.089   1.794   6.515  0.6213 -0.1104  0.5936
  127MOL    H4810380   6.267   1.874   6.482 -1.5590  0.9668 -0.6667
  127MOL    H4910381   6.190   1.959   6.611 -1.8934 -0.6148 -1.4725
  127MOL    C5010382   6.117   1.677   6.457 -0.3997 -0.1425 -0.3687
  127MOL    O5110383   6.105   1.684   6.318 -0.0048  0.6172  0.0371
  127MOL    H5210384   6.044   1.608   6.498 -0.6191  0.0900 -0.3654
  127MOL    H5310385   6.211   1.629   6.483  0.6298  0.2319 -3.1875
  127MOL    C5410386   5.973   1.706   6.273 -0.6764  0.0915 -0.8885
  127MOL    O5510387   5.978   1.706   6.133 -0.4163 -0.2988  0.3354
  127MOL    H5610388   5.938   1.807   6.297 -0.7143  0.4261 -2.3199
  127MOL    H5710389   5.902   1.630   6.305  0.2639 -0.7885 -0.8849
  127MOL    C5810390   6.051   1.602   6.077  0.6713 -1.1325  0.0090
  127MOL    O5910391   6.002   1.584   5.950 -0.2407  0.1384 -0.8182
  127MOL    H6010392   6.038   1.506   6.128  1.9042 -1.7060 -0.7397
  127MOL    H6110393   6.155   1.632   6.086  1.0577 -2.8413  1.6345
  127MOL    C6210394   6.047   1.680   5.861 -0.1059 -0.5877 -0.0693
  127MOL    O6310395   6.020   1.643   5.733  0.8090 -0.6050  0.0600
  127MOL    H6410396   6.155   1.681   5.871 -0.1083 -0.1518 -0.0658
  127MOL    H6510397   6.015   1.780   5.891 -0.1716 -0.0466 -1.8664
  127MOL    C6610398   5.880   1.645   5.705 -0.1445  0.7164 -0.8422
  127MOL    O6710399   5.815   1.771   5.709  0.4259 -0.4458 -0.1181
  127MOL    H6810400   5.824   1.603   5.789 -0.0848  2.5042  0.1100
  127MOL    H6910401   5.867   1.599   5.607 -1.6037  0.0227 -0.3413
  127MOL    C7010402   5.767   1.813   5.584  0.0247  0.0323  0.2186
  127MOL    O7110403   5.664   1.722   5.548  0.3580  0.2703  0.8343
  127MOL    H7210404   5.854   1.816   5.519 -0.9545  0.2682 -1.1135
  127MOL    H7310405   5.725   1.913   5.588  0.4890  0.3990 -3.1745
  127MOL    C7410406   5.542   1.729   5.617  0.1348 -0.7958  0.0602
  127MOL    O7510407   5.490   1.861   5.596  0.6566 -0.4514  0.1523
  127MOL    H7610408   5.555   1.720   5.725  0.8745 -0.3994  0.0088
  127MOL    H7710409   5.471   1.652   5.587  0.7316 -2.2873  2.3758
  127MOL    C7810410   5.463   1.885   5.464  0.0823 -0.7127  0.2434
  127MOL    O7910411   5.421   2.019   5.439 -0.3574 -0.1505  0.0588
  127MOL    H8010412   5.382   1.823   5.426 -0.0741 -1.8209  2.3569
  127MOL    H8110413   5.549   1.867   5.399  0.1641  3.0231 -0.8070
  127MOL    H8210414   5.499   2.072   5.437 -2.0660  2.5371  0.6549
  128MOL     C110415   6.155   4.901   2.117 -0.1689 -0.1658 -0.7817
  128MOL     O210416   6.139   4.924   1.981 -0.8293 -0.0947 -0.0777
  128MOL     H310417   6.063   4.866   2.162 -0.4074  0.8093 -0.5169
  128MOL     H410418   6.233   4.826   2.127  0.6197  0.3508 -2.7444
  128MOL     H510419   6.187   4.991   2.170  1.6234 -0.8699 -0.6056
  128MOL     C610420   6.233   5.012   1.928  0.5234 -0.6251  0.4997
  128MOL     O710421   6.239   5.133   1.993 -0.1574 -0.4114  0.2978
  128MOL     H810422   6.212   5.028   1.822 -1.6516 -0.7320  0.8731
  128MOL     H910423   6.325   4.956   1.943  1.0251  0.2698  0.8218
  128MOL    C1010424   6.307   5.222   1.915  0.3429 -0.0979 -0.1443
  128MOL    O1110425   6.235   5.265   1.804 -0.2403  0.1521 -0.2459
  128MOL    H1210426   6.406   5.181   1.893  0.7503  0.1280  1.2426
  128MOL    H1310427   6.335   5.304   1.981  0.1647 -0.7977  0.8093
  128MOL    C1410428   6.162   5.379   1.831  0.1971 -0.2020  0.2874
  128MOL    O1510429   6.211   5.491   1.760  0.6031  0.0961  0.5830
  128MOL    H1610430   6.126   5.385   1.933 -1.0107 -1.0632 -0.0717
  128MOL    H1710431   6.067   5.352   1.784 -0.6579  1.2673  1.1222
  128MOL    C1810432   6.160   5.611   1.806  0.0847  0.6827  0.1365
  128MOL    O1910433   6.220   5.638   1.935  0.2707 -0.3848  0.2115
  128MOL    H2010434   6.052   5.607   1.816  0.2198 -2.0299  0.9236
  128MOL    H2110435   6.202   5.677   1.729  0.3848  1.1772  0.7188
  128MOL    C2210436   6.353   5.674   1.926  0.5852  0.1110 -0.6484
  128MOL    O2310437   6.356   5.814   1.912 -0.1662 -0.7393 -0.1483
  128MOL    H2410438   6.403   5.621   1.845 -1.3500 -0.6376 -1.3963
  128MOL    H2510439   6.399   5.647   2.021  0.8248 -1.1612 -1.1105
  128MOL    C2610440   6.447   5.855   1.818 -0.4787  0.5094 -0.0575
  128MOL    O2710441   6.418   5.837   1.686 -0.1459 -0.3845 -0.1336
  128MOL    H2810442   6.547   5.819   1.845  0.9263  4.9944  1.1246
  128MOL    H2910443   6.450   5.961   1.843 -1.6116  0.0577  2.1724
  128MOL    C3010444   6.312   5.918   1.651 -0.2485  0.2158 -0.2364
  128MOL    O3110445   6.355   6.047   1.619  0.1855  0.5739  0.5944
  128MOL    H3210446   6.237   5.916   1.730  0.1352  1.3117  0.1713
  128MOL    H3310447   6.261   5.864   1.571  0.2380  1.2610 -1.2785
  128MOL    C3410448   6.393   6.054   1.485  0.3361  0.1972  0.5988
  128MOL    O3510449   6.285   6.084   1.409 -0.0595  0.1641  0.7215
  128MOL    H3610450   6.436   5.961   1.448  1.3459  0.1106  1.9122
  128MOL    H3710451   6.467   6.133   1.473  1.1817 -0.6891 -0.0957
  128MOL    C3810452   6.322   6.104   1.279  0.3373 -0.5947  0.2034
  128MOL    O3910453   6.353   5.986   1.216  0.5848  0.0644  0.1369
  128MOL    H4010454   6.398   6.182   1.277 -0.6313  0.3754  0.6055
  128MOL    H4110455   6.234   6.136   1.223 -0.3444  0.0124  1.6004
  128MOL    C4210456   6.245   5.899   1.196  0.2477 -0.0252 -0.1523
  128MOL    O4310457   6.163   5.951   1.096 -0.0734 -0.3862 -0.1059
  128MOL    H4410458   6.192   5.886   1.291  0.6621 -2.6059 -0.2191
  128MOL    H4510459   6.287   5.801   1.172  1.4446  0.2809  0.6253
  128MOL    C4610460   6.062   5.870   1.056 -0.2914 -0.0950  0.5697
  128MOL    O4710461   5.978   5.825   1.160 -0.2164 -0.2860 -0.1889
  128MOL    H4810462   6.098   5.780   1.006  0.0615  0.0201  0.6204
  128MOL    H4910463   6.010   5.934   0.985  0.7520 -0.4319 -0.5154
  128MOL    C5010464   5.916   5.931   1.225  1.1453 -0.2207 -0.0655
  128MOL    O5110465   5.915   5.897   1.360  0.6872  0.7664  0.0747
  128MOL    H5210466   5.820   5.951   1.179  0.9639 -2.2385 -0.6175
  128MOL    H5310467   5.959   6.031   1.217 -2.0918  1.1120 -1.8006
  128MOL    C5410468   5.840   5.980   1.437 -0.1139 -1.2483 -0.0335
  128MOL    O5510469   5.897   6.103   1.431  0.7709 -0.4810 -0.0987
  128MOL    H5610470   5.831   5.931   1.534  1.5050 -1.2481  0.1216
  128MOL    H5710471   5.739   5.995   1.398 -0.4656 -1.3993  0.7982
  128MOL    C5810472   5.954   6.129   1.552 -0.3785 -0.0147  0.0352
  128MOL    O5910473   5.852   6.164   1.644  0.0649 -0.6552  0.3463
  128MOL    H6010474   6.022   6.214   1.550 -0.7826  0.3049 -0.2560
  128MOL    H6110475   6.004   6.039   1.588 -0.4444 -0.1027 -0.0908
  128MOL    C6210476   5.800   6.293   1.627  0.7256  0.2553 -0.5374
  128MOL    O6310477   5.857   6.382   1.718 -0.3844 -0.1014 -0.2607
  128MOL    H6410478   5.692   6.300   1.640  0.8097 -1.8612  1.6714
  128MOL    H6510479   5.814   6.338   1.529  0.7685  2.1559  0.3310
  128MOL    C6610480   5.818   6.373   1.852  0.0265  0.1221  0.3205
  128MOL    O6710481   5.711   6.457   1.871 -0.5516 -0.5036 -0.1160
  128MOL    H6810482   5.894   6.410   1.920  0.5356 -1.0336  0.3876
  128MOL    H6910483   5.792   6.271   1.880 -0.9825  0.6066  1.1973
  128MOL    C7010484   5.738   6.586   1.918  0.9522 -0.7957  0.1510
  128MOL    O7110485   5.752   6.593   2.059  0.2112  0.6275 -0.1338
  128MOL    H7210486   5.646   6.636   1.887  1.1293  1.1590  2.5569
  128MOL    H7310487   5.817   6.633   1.859 -2.0214  1.3488 -2.3020
  128MOL    C7410488   5.632   6.608   2.133  0.6526 -0.3067 -0.1678
  128MOL    O7510489   5.660   6.629   2.270  0.1545 -0.2136  0.2079
  128MOL    H7610490   5.565   6.530   2.097 -0.4773 -0.4445  2.1597
  128MOL    H7710491   5.584   6.701   2.103 -0.7100 -0.8313  0.3614
  128MOL    C7810492   5.644   6.510   2.344  0.2520  0.0670 -0.1498
  128MOL    O7910493   5.687   6.527   2.475 -0.5333 -0.0546 -0.4059
  128MOL    H8010494   5.704   6.429   2.304 -0.4440 -1.9429  2.7692
  128MOL    H8110495   5.548   6.460   2.353 -0.0471  0.8864  1.3820
  128MOL    H8210496   5.619   6.579   2.514 -1.6133 -2.6720  1.3347
  129MOL     C110497   4.655   5.740   6.903  1.4007  0.1890 -0.3234
  129MOL     O210498   4.676   5.680   6.775 -0.0033  0.1320  0.0742
  129MOL     H310499   4.559   5.790   6.894  1.0195 -0.6034 -0.6942
  129MOL     H410500   4.653   5.664   6.981  0.8543 -0.7301 -1.2226
  129MOL     H510501   4.735   5.803   6.942  1.2917 -0.4266  0.9339
  129MOL     C610502   4.798   5.609   6.767 -0.7186  0.2017  0.4055
  129MOL     O710503   4.911   5.685   6.780  0.3408  0.8164 -0.1314
  129MOL     H810504   4.787   5.558   6.671  0.0025  1.2768 -0.2572
  129MOL     H910505   4.795   5.532   6.844 -2.0046 -0.6878 -0.5091
  129MOL    C1010506   4.930   5.782   6.679 -0.5016 -0.5568 -0.5138
  129MOL    O1110507   4.968   5.720   6.564  0.8472  0.2618  0.5722
  129MOL    H1210508   5.010   5.852   6.705 -0.9552  0.0286 -0.6895
  129MOL    H1310509   4.836   5.830   6.652 -0.3062  0.6976  0.9153
  129MOL    C1410510   5.098   5.686   6.579 -0.2605  0.2031 -0.4728
  129MOL    O1510511   5.180   5.792   6.566 -0.5224 -0.3985  0.3027
  129MOL    H1610512   5.124   5.614   6.501  2.6405 -0.7966  1.3185
  129MOL    H1710513   5.124   5.642   6.675  0.9673 -0.9610 -1.3118
  129MOL    C1810514   5.185   5.851   6.439  0.2887 -0.4152  0.1618
  129MOL    O1910515   5.251   5.768   6.351 -0.3962  0.3363  0.1544
  129MOL    H2010516   5.237   5.947   6.450 -1.3874  0.4609  0.5561
  129MOL    H2110517   5.083   5.878   6.413  0.9349  0.2208 -1.7899
  129MOL    C2210518   5.391   5.765   6.357  0.2096  0.1413  0.2689
  129MOL    O2310519   5.444   5.892   6.330 -0.4476  0.1583  0.0019
  129MOL    H2410520   5.431   5.690   6.288  0.4264 -0.2510  0.8130
  129MOL    H2510521   5.415   5.755   6.463  0.8221  0.4806  0.1641
  129MOL    C2610522   5.441   5.923   6.193  0.7161  0.2676 -0.5687
  129MOL    O2710523   5.313   5.923   6.137 -0.7045  0.0419  0.2112
  129MOL    H2810524   5.504   5.847   6.146 -0.8624 -2.2297  1.2303
  129MOL    H2910525   5.494   6.016   6.171  0.3008  0.5524 -0.3652
  129MOL    C3010526   5.249   6.043   6.139  0.6724 -0.5548 -0.0425
  129MOL    O3110527   5.257   6.129   6.024  0.3731  0.3629 -0.2461
  129MOL    H3210528   5.284   6.112   6.216  0.2401 -0.4206  0.0350
  129MOL    H3310529   5.143   6.027   6.158  0.1506  4.0117  1.7111
  129MOL    C3410530   5.216   6.063   5.914 -0.4641  0.4139  0.1266
  129MOL    O3510531   5.169   6.155   5.818  0.1327 -0.1975  0.1555
  129MOL    H3610532   5.142   5.986   5.934  0.3689  0.2291  2.7201
  129MOL    H3710533   5.305   6.017   5.872 -0.8418 -0.3601  0.1714
  129MOL    C3810534   5.277   6.242   5.778  0.3969 -0.3360 -0.2064
  129MOL    O3910535   5.362   6.174   5.688 -0.1640 -0.0172 -0.2590
  129MOL    H4010536   5.345   6.275   5.857  1.5926  0.3578 -1.4977
  129MOL    H4110537   5.236   6.328   5.725 -1.4746 -1.1077 -0.0621
  129MOL    C4210538   5.307   6.166   5.561  0.4344 -0.4017 -0.1797
  129MOL    O4310539   5.308   6.290   5.500  0.0557 -0.1328 -0.4619
  129MOL    H4410540   5.202   6.139   5.559  0.2093  0.4811 -0.5758
  129MOL    H4510541   5.359   6.097   5.495 -0.7313 -0.6152 -0.8862
  129MOL    C4610542   5.432   6.334   5.467  0.1753 -0.0440  0.3637
  129MOL    O4710543   5.465   6.282   5.339 -0.1435  0.9206 -0.3073
  129MOL    H4810544   5.518   6.311   5.529  0.2168  0.9503  0.6738
  129MOL    H4910545   5.426   6.442   5.467  1.9247  0.0543  0.9709
  129MOL    C5010546   5.381   6.331   5.241  0.2940 -0.1198  0.0147
  129MOL    O5110547   5.430   6.456   5.195  0.7491  0.3446  0.6207
  129MOL    H5210548   5.274   6.326   5.261  0.0383  0.1156 -1.2413
  129MOL    H5310549   5.403   6.260   5.161  1.2658  2.0137 -1.6718
  129MOL    C5410550   5.345   6.522   5.103 -0.9320  0.4188  0.9307
  129MOL    O5510551   5.219   6.554   5.155  0.4809 -0.1823 -0.4334
  129MOL    H5610552   5.329   6.454   5.020 -0.2229 -0.9105  1.8579
  129MOL    H5710553   5.395   6.610   5.062 -1.4163  0.5929  0.7193
  129MOL    C5810554   5.226   6.667   5.228  0.0956  0.0461  0.4505
  129MOL    O5910555   5.188   6.777   5.156 -0.2953  0.1093 -0.2987
  129MOL    H6010556   5.326   6.691   5.264  0.9686 -0.2300 -1.6859
  129MOL    H6110557   5.156   6.656   5.311  1.0977  2.1580  1.6174
  129MOL    C6210558   5.055   6.781   5.117 -0.1020  0.2582  0.1059
  129MOL    O6310559   4.975   6.808   5.221 -0.2806  0.3305  0.3025
  129MOL    H6410560   5.030   6.680   5.084 -1.0636  0.1255  1.1883
  129MOL    H6510561   5.039   6.858   5.042  0.7122  0.4584  0.1381
  129MOL    C6610562   4.979   6.939   5.271  0.0563  0.3024  0.1895
  129MOL    O6710563   4.907   7.024   5.186  0.0566 -0.4096 -0.3502
  129MOL    H6810564   5.079   6.980   5.284  0.9412 -1.7234 -0.0432
  129MOL    H6910565   4.936   6.933   5.371 -1.4429  2.3488 -0.2842
  129MOL    C7010566   4.771   7.005   5.198  0.1040  0.6116 -0.4220
  129MOL    O7110567   4.718   7.099   5.295  0.2623  0.3281  0.2712
  129MOL    H7210568   4.743   6.904   5.227  1.8166  0.9307  2.5834
  129MOL    H7310569   4.733   7.025   5.098  2.5322  2.2489 -1.0658
  129MOL    C7410570   4.688   7.215   5.232  0.0031  0.6864  0.2151
  129MOL    O7510571   4.578   7.201   5.149  0.4133  0.1490 -0.6539
  129MOL    H7610572   4.775   7.246   5.174 -2.5428  0.8720 -3.6719
  129MOL    H7710573   4.663   7.299   5.296  0.5516  0.7664  0.3224
  129MOL    C7810574   4.463   7.190   5.218  0.2734  0.2839  0.4920
  129MOL    O7910575   4.356   7.152   5.130  0.0570  0.3300 -0.3836
  129MOL    H8010576   4.435   7.291   5.250  4.1545  1.5531  0.1514
  129MOL    H8110577   4.474   7.121   5.301 -0.7019  0.5324  0.8447
  129MOL    H8210578   4.298   7.224   5.110 -0.6204  0.4860  1.9861
  130MOL     C110579   4.903   4.474   3.244  0.0030 -0.3992 -0.5846
  130MOL     O210580   4.973   4.376   3.175 -0.5198  0.5225  0.1487
  130MOL     H310581   4.832   4.530   3.182 -0.9930  0.0468  0.9256
  130MOL     H410582   4.852   4.431   3.330 -2.1875  0.5925 -1.3291
  130MOL     H510583   4.988   4.532   3.281 -1.7600  1.6053  0.4736
  130MOL     C610584   5.029   4.421   3.058  0.0380  0.0602  0.1092
  130MOL     O710585   4.929   4.475   2.970 -0.1121 -0.1651  0.1563
  130MOL     H810586   5.093   4.340   3.023  1.0501  0.0177  1.9710
  130MOL     H910587   5.099   4.502   3.075  0.2765  0.5935 -3.1939
  130MOL    C1010588   4.977   4.503   2.840  1.0013 -0.1681  0.6726
  130MOL    O1110589   5.069   4.612   2.844 -0.2699  0.0640  0.3191
  130MOL    H1210590   4.885   4.525   2.785  2.0774 -0.1891 -1.1692
  130MOL    H1310591   5.024   4.422   2.785 -0.7137 -1.4210  1.0378
  130MOL    C1410592   5.090   4.665   2.711 -0.1182 -0.3096 -0.1020
  130MOL    O1510593   5.136   4.571   2.618 -0.4381  0.1986 -0.2192
  130MOL    H1610594   5.168   4.739   2.724  0.0606 -0.8876  2.3775
  130MOL    H1710595   5.003   4.720   2.675 -0.7253 -0.3695  1.2362
  130MOL    C1810596   5.164   4.626   2.495 -0.8053  0.2105 -0.0484
  130MOL    O1910597   5.289   4.684   2.497 -0.0102 -1.0653 -0.3166
  130MOL    H2010598   5.092   4.703   2.469 -2.6599 -1.5055 -0.1328
  130MOL    H2110599   5.158   4.542   2.426  2.2595  0.7073 -0.9944
  130MOL    C2210600   5.390   4.590   2.519 -0.3096 -0.0782 -0.0017
  130MOL    O2310601   5.512   4.658   2.526  0.8206  0.2362  0.3905
  130MOL    H2410602   5.394   4.531   2.427 -3.3511  0.4287 -0.4949
  130MOL    H2510603   5.376   4.527   2.607  1.6571  1.3274  1.3707
  130MOL    C2610604   5.523   4.738   2.641  0.3940  0.1874  0.0850
  130MOL    O2710605   5.563   4.656   2.745 -0.0168  0.4781  0.2243
  130MOL    H2810606   5.424   4.779   2.659 -0.7065 -2.1996 -0.3593
  130MOL    H2910607   5.590   4.822   2.623 -0.0935  0.8447  1.3113
  130MOL    C3010608   5.694   4.609   2.738  0.5118  0.3966 -0.0936
  130MOL    O3110609   5.791   4.713   2.761 -0.2458  0.4699  0.1507
  130MOL    H3210610   5.716   4.560   2.643  2.5950  0.4395  0.3456
  130MOL    H3310611   5.712   4.532   2.813 -0.2020 -0.7070 -1.0440
  130MOL    C3410612   5.789   4.777   2.884 -1.0719 -0.5105 -0.2362
  130MOL    O3510613   5.706   4.887   2.881 -0.2601 -0.9637  0.3851
  130MOL    H3610614   5.889   4.794   2.922 -1.0901  1.3607 -0.9940
  130MOL    H3710615   5.749   4.701   2.952 -1.5129 -0.0135  0.0632
  130MOL    C3810616   5.765   4.996   2.823 -0.0300 -0.1821  0.4896
  130MOL    O3910617   5.803   5.083   2.931 -0.1553 -0.4507  0.4355
  130MOL    H4010618   5.689   5.031   2.752  1.1987  1.1333 -0.1997
  130MOL    H4110619   5.850   4.976   2.758 -0.1761  2.6481 -0.6664
  130MOL    C4210620   5.694   5.158   2.965  0.3154 -0.6764 -0.7030
  130MOL    O4310621   5.603   5.080   3.038 -0.0584 -0.9229 -0.5650
  130MOL    H4410622   5.634   5.201   2.885  1.9123  1.7057 -0.6686
  130MOL    H4510623   5.728   5.241   3.026 -0.9233 -0.3855 -0.4073
  130MOL    C4610624   5.645   5.037   3.162  0.9632 -0.7959  0.4197
  130MOL    O4710625   5.543   5.057   3.257 -0.5927  0.7279  0.0506
  130MOL    H4810626   5.736   5.087   3.196  1.0598 -1.2222  0.7830
  130MOL    H4910627   5.676   4.934   3.148 -0.5102 -1.2232  0.2573
  130MOL    C5010628   5.534   5.190   3.298  0.2217  0.6696  0.1293
  130MOL    O5110629   5.416   5.218   3.377 -0.4943 -1.0243  0.5057
  130MOL    H5210630   5.542   5.242   3.202  1.8543 -1.3434 -0.8821
  130MOL    H5310631   5.619   5.213   3.362 -0.6878  1.3006  1.1229
  130MOL    C5410632   5.294   5.192   3.306  0.6459  0.2600 -0.4167
  130MOL    O5510633   5.182   5.240   3.380  0.2265 -0.4099 -0.1968
  130MOL    H5610634   5.284   5.084   3.295  0.4728 -0.0319  2.1409
  130MOL    H5710635   5.288   5.235   3.206  2.4273  1.6629  0.0514
  130MOL    C5810636   5.192   5.380   3.395  0.3100 -0.8010 -0.0461
  130MOL    O5910637   5.071   5.437   3.427  0.3720  0.2146 -1.0089
  130MOL    H6010638   5.214   5.428   3.300 -1.3639  1.4929  0.6762
  130MOL    H6110639   5.275   5.416   3.457 -1.6304  3.8264  0.0378
  130MOL    C6210640   4.956   5.379   3.367 -0.4764  0.2954 -0.0661
  130MOL    O6310641   4.950   5.421   3.236 -0.6234 -0.0699  0.0402
  130MOL    H6410642   4.870   5.407   3.426 -0.6063 -2.1943  0.9641
  130MOL    H6510643   4.955   5.270   3.376 -0.7288  0.4538  1.8555
  130MOL    C6610644   4.939   5.558   3.227 -0.7052 -0.7640 -0.8078
  130MOL    O6710645   4.819   5.595   3.268 -0.8068 -0.5333  0.6208
  130MOL    H6810646   4.952   5.601   3.127  0.2594 -0.6241 -0.6333
  130MOL    H6910647   5.000   5.621   3.291 -0.6996 -2.1330  0.5619
  130MOL    C7010648   4.712   5.539   3.202 -0.8615 -0.8864 -0.2687
  130MOL    O7110649   4.599   5.615   3.229 -0.0827 -0.0428  0.2184
  130MOL    H7210650   4.707   5.438   3.243  0.5059 -1.1847 -0.8148
  130MOL    H7310651   4.727   5.524   3.095  2.5757 -2.5935  0.3675
  130MOL    C7410652   4.566   5.618   3.364  0.0696  0.3286  0.2006
  130MOL    O7510653   4.512   5.490   3.403  0.0199 -0.1633  0.6626
  130MOL    H7610654   4.486   5.687   3.393 -1.4503 -0.6674 -1.5260
  130MOL    H7710655   4.642   5.642   3.438  0.4274 -0.9694  0.2651
  130MOL    C7810656   4.386   5.479   3.358  0.7839 -0.2245  0.0781
  130MOL    O7910657   4.341   5.344   3.378  0.0958  0.0297 -0.7686
  130MOL    H8010658   4.376   5.497   3.251 -0.0234  1.5237  0.4389
  130MOL    H8110659   4.317   5.543   3.412 -1.4493 -2.1701 -0.4005
  130MOL    H8210660   4.392   5.284   3.325  0.0496  0.3060 -1.1300
  131MOL     C110661   5.108   6.828   6.458  0.2064  0.5486  0.0424
  131MOL     O210662   5.014   6.850   6.559  0.5472 -0.5491 -0.0311
  131MOL     H310663   5.065   6.764   6.381 -2.4331  1.9217  0.3244
  131MOL     H410664   5.141   6.922   6.414  0.5213  0.8830  0.9983
  131MOL     H510665   5.198   6.778   6.494  0.7668  0.2977 -1.6479
  131MOL     C610666   5.039   6.964   6.631 -0.4356 -0.9006  0.3969
  131MOL     O710667   5.019   7.078   6.557  0.2123  0.0220  0.5212
  131MOL     H810668   5.141   6.970   6.668 -0.1477  3.4148 -0.7915
  131MOL     H910669   4.968   6.959   6.713  0.5277 -0.8826  1.2383
  131MOL    C1010670   4.883   7.099   6.521 -0.4925  0.3739 -0.1494
  131MOL    O1110671   4.855   7.223   6.474 -0.5833  0.3301 -0.2329
  131MOL    H1210672   4.824   7.101   6.613 -0.5580 -0.5112 -0.1661
  131MOL    H1310673   4.848   7.010   6.468 -1.0376 -1.5827  3.3271
  131MOL    C1410674   4.894   7.246   6.341  0.5203  0.9805  0.0310
  131MOL    O1510675   4.836   7.147   6.263 -0.1392  0.0339  0.3428
  131MOL    H1610676   5.002   7.236   6.338  0.4841  0.2285  0.8502
  131MOL    H1710677   4.884   7.352   6.318  1.3715  1.1147  0.2740
  131MOL    C1810678   4.847   7.171   6.130  0.6588  0.1124 -0.3237
  131MOL    O1910679   4.974   7.162   6.086 -1.0588 -0.6828  1.0560
  131MOL    H2010680   4.823   7.273   6.099 -0.1446  0.3758  1.1230
  131MOL    H2110681   4.783   7.095   6.086  0.5835  1.0493 -1.8545
  131MOL    C2210682   5.029   7.037   6.101 -0.1409 -0.2157  0.0523
  131MOL    O2310683   5.155   7.027   6.046  0.3609  0.0525 -0.5530
  131MOL    H2410684   4.960   6.965   6.057 -0.8140  0.3306  0.1912
  131MOL    H2510685   5.041   7.002   6.204  2.0315  2.9021  0.9316
  131MOL    C2610686   5.154   7.054   5.916 -0.0512 -0.0687 -0.1550
  131MOL    O2710687   5.074   6.964   5.851  0.3767  0.7938 -0.2955
  131MOL    H2810688   5.256   7.040   5.880  0.9434  3.3839  1.0766
  131MOL    H2910689   5.132   7.159   5.897  0.1485  0.1299  0.6983
  131MOL    C3010690   5.119   6.930   5.725  0.1540 -0.4634  0.3754
  131MOL    O3110691   5.243   6.870   5.723  0.5302 -0.1713 -0.2536
  131MOL    H3210692   5.137   7.023   5.671 -0.1754 -1.0382 -0.7567
  131MOL    H3310693   5.041   6.873   5.673  0.3738 -1.0841  0.7218
  131MOL    C3410694   5.273   6.832   5.587  0.4880 -0.4983  0.0212
  131MOL    O3510695   5.193   6.729   5.541 -0.1259 -0.3568 -0.8130
  131MOL    H3610696   5.379   6.809   5.580  0.5281 -0.4043  0.3010
  131MOL    H3710697   5.254   6.914   5.518 -2.3940  0.7144  2.1617
  131MOL    C3810698   5.227   6.607   5.594 -0.3636  0.1767  0.2996
  131MOL    O3910699   5.170   6.584   5.714 -0.3229 -0.0485  0.1055
  131MOL    H4010700   5.333   6.580   5.599 -0.3655  0.2441  0.7265
  131MOL    H4110701   5.198   6.535   5.518 -1.1782  0.3680  0.4255
  131MOL    C4210702   5.031   6.567   5.692  0.1006 -0.1378 -0.1089
  131MOL    O4310703   5.007   6.441   5.647 -0.1157  0.0144  0.0870
  131MOL    H4410704   4.994   6.635   5.615 -1.0971 -2.0087 -1.2240
  131MOL    H4510705   4.969   6.592   5.778 -0.1861  1.6529 -0.8101
  131MOL    C4610706   4.950   6.349   5.734  0.1500  0.1948 -0.2611
  131MOL    O4710707   4.827   6.384   5.776  0.1679 -0.5446  0.0983
  131MOL    H4810708   5.016   6.352   5.820 -0.9644 -4.0187  0.8251
  131MOL    H4910709   4.940   6.245   5.702 -1.1743  0.2859 -0.1677
  131MOL    C5010710   4.720   6.357   5.687 -0.3570 -0.0536 -0.9834
  131MOL    O5110711   4.698   6.224   5.679 -0.3303  0.7298  0.3163
  131MOL    H5210712   4.741   6.403   5.590  2.4869  0.1411 -0.3307
  131MOL    H5310713   4.638   6.419   5.723 -1.0607 -0.3305 -2.0872
  131MOL    C5410714   4.577   6.201   5.628 -0.3193 -0.0516 -0.3617
  131MOL    O5510715   4.492   6.136   5.726 -0.9133  0.5490 -0.0746
  131MOL    H5610716   4.601   6.129   5.550 -1.8455 -0.9168 -0.0664
  131MOL    H5710717   4.527   6.294   5.599 -0.0718  0.5052  0.9483
  131MOL    C5810718   4.526   5.998   5.739 -0.4075  0.1213 -0.2988
  131MOL    O5910719   4.498   5.925   5.621 -0.0019 -0.6388 -0.1682
  131MOL    H6010720   4.463   5.950   5.814  0.0185  1.0347  0.6456
  131MOL    H6110721   4.628   5.998   5.775 -0.4271  1.1719 -0.2547
  131MOL    C6210722   4.551   5.794   5.624 -0.1448  0.1777 -0.1251
  131MOL    O6310723   4.471   5.717   5.702  0.1349 -0.1172 -0.5488
  131MOL    H6410724   4.651   5.793   5.667 -0.2733  0.9567  0.2043
  131MOL    H6510725   4.563   5.756   5.523 -0.2546 -0.7973  0.2288
  131MOL    C6610726   4.341   5.697   5.655  0.0949 -0.1786 -0.4420
  131MOL    O6710727   4.325   5.619   5.541 -0.0578 -0.2536 -0.5174
  131MOL    H6810728   4.303   5.796   5.631 -0.4070 -0.7169 -1.9562
  131MOL    H6910729   4.272   5.670   5.735  3.0863  0.8837  2.6398
  131MOL    C7010730   4.262   5.683   5.432 -0.3950 -0.4017  0.5287
  131MOL    O7110731   4.127   5.677   5.452  0.2881  0.0962 -0.1269
  131MOL    H7210732   4.292   5.616   5.351  0.5307 -0.9071  1.2874
  131MOL    H7310733   4.307   5.780   5.412 -0.6529  0.3123  3.1754
  131MOL    C7410734   4.056   5.761   5.366  0.7057 -0.2871 -0.1557
  131MOL    O7510735   4.058   5.705   5.240 -0.1345 -0.0787 -0.1384
  131MOL    H7610736   4.096   5.860   5.343  3.3041 -1.1236  0.6283
  131MOL    H7710737   3.951   5.781   5.384  0.0690 -0.5933 -3.2445
  131MOL    C7810738   3.974   5.594   5.222  0.5655  0.1087  0.0334
  131MOL    O7910739   3.983   5.547   5.091 -0.0963 -0.3024  0.1633
  131MOL    H8010740   3.869   5.620   5.238  0.1672 -1.5735  0.3025
  131MOL    H8110741   4.000   5.509   5.285  2.2879 -0.0950 -0.9059
  131MOL    H8210742   4.020   5.461   5.099  2.0154  0.7995  2.5175
  132MOL     C110743   1.020   4.765   3.221  0.0086 -0.5472 -0.8463
  132MOL     O210744   0.985   4.738   3.085  0.6648 -0.5720  0.4877
  132MOL     H310745   1.032   4.874   3.224  0.3367 -0.5692 -1.3874
  132MOL     H410746   0.939   4.738   3.289  0.0837  1.2545 -0.0196
  132MOL     H510747   1.117   4.725   3.249 -0.9451 -2.0761  0.3709
  132MOL     C610748   0.857   4.783   3.034 -0.1095 -0.6941 -0.3607
  132MOL     O710749   0.882   4.911   2.988  0.0403 -0.1262  0.6582
  132MOL     H810750   0.790   4.774   3.119 -0.1830  0.0499 -0.3375
  132MOL     H910751   0.826   4.719   2.951 -1.2981  0.5036 -0.8716
  132MOL    C1010752   0.931   4.910   2.859 -0.2596 -0.8604 -0.1412
  132MOL    O1110753   0.833   4.883   2.761 -0.3792  0.2755 -0.1837
  132MOL    H1210754   1.007   4.834   2.840  1.1118  0.7138 -1.1302
  132MOL    H1310755   0.984   5.002   2.833  1.4509 -1.5874  0.6457
  132MOL    C1410756   0.745   4.986   2.740 -0.8081  0.1699  0.5043
  132MOL    O1510757   0.802   5.076   2.649 -0.1941  0.4917  0.1541
  132MOL    H1610758   0.732   5.038   2.835 -0.0310  2.5526 -0.6634
  132MOL    H1710759   0.649   4.945   2.706 -1.2510 -0.3964  2.3777
  132MOL    C1810760   0.800   5.024   2.516 -0.5791 -0.1594 -0.3699
  132MOL    O1910761   0.667   5.026   2.462  0.1597 -0.1512 -0.1069
  132MOL    H2010762   0.846   4.925   2.512 -1.8710 -0.7759 -0.1532
  132MOL    H2110763   0.862   5.085   2.450 -1.2617 -0.4020 -1.2423
  132MOL    C2210764   0.619   5.151   2.423 -0.1558 -0.8299  0.7884
  132MOL    O2310765   0.640   5.160   2.284  0.3982 -0.5053 -0.3716
  132MOL    H2410766   0.657   5.237   2.477  1.2940 -1.3914  0.6898
  132MOL    H2510767   0.514   5.140   2.451 -0.9697 -1.4189 -2.3125
  132MOL    C2610768   0.602   5.280   2.234  0.2872  0.0006 -0.3855
  132MOL    O2710769   0.466   5.306   2.251  0.3359  0.0134  0.2597
  132MOL    H2810770   0.615   5.275   2.126 -0.9305 -0.6931 -0.5165
  132MOL    H2910771   0.665   5.355   2.281  2.6315 -3.1398  1.7442
  132MOL    C3010772   0.368   5.214   2.208 -0.0885  0.2001  0.2322
  132MOL    O3110773   0.360   5.214   2.064 -0.0653 -0.3270 -0.9710
  132MOL    H3210774   0.270   5.250   2.240  0.1047  1.1840 -0.2876
  132MOL    H3310775   0.395   5.111   2.233  1.6883  0.4751 -0.4804
  132MOL    C3410776   0.318   5.336   2.018 -0.1237 -0.0462 -0.2035
  132MOL    O3510777   0.175   5.351   2.025 -0.6180  0.1869  0.1037
  132MOL    H3610778   0.352   5.344   1.914 -1.4334 -0.5487 -0.6778
  132MOL    H3710779   0.364   5.418   2.072 -3.0625  0.5251  1.5105
  132MOL    C3810780   0.134   5.481   1.978  0.0249 -0.1900 -0.2875
  132MOL    O3910781   0.186   5.589   2.059  0.8524  0.3169 -0.1174
  132MOL    H4010782   0.029   5.495   1.953  0.5089 -0.0665 -2.3559
  132MOL    H4110783   0.188   5.489   1.883 -1.1282 -1.5704 -1.0753
  132MOL    C4210784   0.123   5.576   2.185  0.3105  0.2452 -0.9934
  132MOL    O4310785   0.154   5.677   2.266 -0.4071 -0.3111 -0.3539
  132MOL    H4410786   0.136   5.482   2.238 -2.9439 -0.8679 -2.0169
  132MOL    H4510787   0.024   5.604   2.150  0.1557  0.0265 -0.7362
  132MOL    C4610788   0.272   5.653   2.334  0.2661 -0.0507 -0.1465
  132MOL    O4710789   0.245   5.552   2.429  0.5653  0.2588  0.1658
  132MOL    H4810790   0.316   5.746   2.369 -1.1843  1.5995 -2.4805
  132MOL    H4910791   0.346   5.622   2.260  2.3329  3.1482  0.4781
  132MOL    C5010792   0.176   5.595   2.539 -0.4216  0.0323 -0.5905
  132MOL    O5110793   0.241   5.696   2.606  0.7390 -0.2181  0.2211
  132MOL    H5210794   0.164   5.512   2.608  3.2004 -0.0495  0.0185
  132MOL    H5310795   0.075   5.631   2.517 -1.1660 -0.8940  1.1866
  132MOL    C5410796   0.367   5.659   2.656 -0.4126  0.4585 -0.4168
  132MOL    O5510797   0.355   5.611   2.788 -0.0461 -0.0291 -0.4225
  132MOL    H5610798   0.441   5.739   2.650 -1.6525  1.7425  1.0645
  132MOL    H5710799   0.412   5.576   2.601 -0.8012 -1.2709  1.8100
  132MOL    C5810800   0.414   5.694   2.886 -0.2822 -0.1371  0.5622
  132MOL    O5910801   0.366   5.827   2.871 -0.3930  0.0201  0.8015
  132MOL    H6010802   0.522   5.688   2.873 -0.0737  2.0585  1.1688
  132MOL    H6110803   0.391   5.669   2.989 -1.0667 -0.3870  0.3348
  132MOL    C6210804   0.237   5.857   2.914  0.0666 -0.2287  0.4390
  132MOL    O6310805   0.213   5.828   3.047 -0.1191 -0.0271  0.1814
  132MOL    H6410806   0.160   5.793   2.870 -0.5120 -1.5164  3.2218
  132MOL    H6510807   0.216   5.959   2.882 -0.0786  0.2210  1.9194
  132MOL    C6610808   0.260   5.923   3.134  0.6020 -0.2821  1.3384
  132MOL    O6710809   0.221   5.900   3.266 -0.2236 -0.1516  0.4679
  132MOL    H6810810   0.233   6.027   3.117 -1.3459 -0.6567  2.0453
  132MOL    H6910811   0.369   5.916   3.146  0.7900 -0.2224 -0.2987
  132MOL    C7010812   0.087   5.930   3.286  0.1679  0.1932  0.0284
  132MOL    O7110813   0.050   5.876   3.410 -0.1230 -0.4789 -0.1246
  132MOL    H7210814   0.031   5.899   3.197  0.4309 -1.5358  0.4419
  132MOL    H7310815   0.085   6.038   3.296  2.5842  0.4079 -1.3588
  132MOL    C7410816   7.762   5.762   3.382  0.0973 -0.4539 -0.0981
  132MOL    O7510817   7.636   5.783   3.327 -0.0943 -0.4162  0.3613
  132MOL    H7610818   7.755   5.703   3.474  1.7643  0.7440  0.8287
  132MOL    H7710819   0.028   5.702   3.307  0.7244 -1.3484  1.0117
  132MOL    C7810820   7.555   5.860   3.413  0.5455 -0.2865 -0.8279
  132MOL    O7910821   7.427   5.864   3.361 -0.5553  0.0899 -0.2808
  132MOL    H8010822   7.595   5.960   3.426 -0.3070 -0.1533  0.9005
  132MOL    H8110823   7.548   5.807   3.508  0.7896 -1.4375 -1.4448
  132MOL    H8210824   7.387   5.786   3.397  0.8641 -0.1517  0.8381
  133MOL     C110825   6.737   7.667   3.327 -0.3279 -0.0598 -0.0915
  133MOL     O210826   6.859   7.599   3.313  0.1251  0.0048  0.1060
  133MOL     H310827   6.705   7.672   3.431 -1.5955  1.8180 -0.5563
  133MOL     H410828   6.738   7.760   3.270  1.3094  0.9245  1.5212
  133MOL     H510829   6.667   7.604   3.272 -1.5614  0.9450  0.3246
  133MOL     C610830   6.958   7.677   3.372 -0.3364  0.4603  0.3937
  133MOL     O710831   6.955   7.664   3.508 -0.0896 -0.1013 -0.4895
  133MOL     H810832   6.949   7.780   3.339 -0.2739  0.4096  0.2197
  133MOL     H910833   7.056   7.640   3.343  1.5826  2.5228  3.9200
  133MOL    C1010834   6.968   7.534   3.547  0.6708  0.0914 -0.0870
  133MOL    O1110835   6.964   7.533   3.692 -0.9172  0.3046 -0.0677
  133MOL    H1210836   7.050   7.479   3.502  0.2573  0.2476 -1.0365
  133MOL    H1310837   6.872   7.491   3.519  1.0346  0.3247 -1.7201
  133MOL    C1410838   7.082   7.575   3.741  0.2678  1.2004 -0.0532
  133MOL    O1510839   7.072   7.573   3.879 -0.4757 -0.0826  0.1749
  133MOL    H1610840   7.093   7.677   3.703 -0.1150  0.6622 -1.6468
  133MOL    H1710841   7.166   7.515   3.707  0.0788  0.1351  1.3197
  133MOL    C1810842   7.086   7.448   3.938  0.1698  0.4855 -0.8625
  133MOL    O1910843   7.221   7.415   3.960 -1.0362  0.5836 -0.3324
  133MOL    H2010844   7.039   7.371   3.878  0.2344  0.0406 -0.3415
  133MOL    H2110845   7.037   7.475   4.032  0.2268 -0.4298 -0.5672
  133MOL    C2210846   7.280   7.494   4.054  0.2509 -0.2226 -0.5443
  133MOL    O2310847   7.409   7.448   4.081 -0.1303  0.5638 -0.3456
  133MOL    H2410848   7.234   7.463   4.148 -1.2402  2.8598 -0.1910
  133MOL    H2510849   7.273   7.601   4.034 -2.6665 -0.3012 -0.1774
  133MOL    C2610850   7.496   7.473   3.976  0.5879  0.6459  0.2080
  133MOL    O2710851   7.535   7.610   3.956  0.3592  0.4914 -0.4092
  133MOL    H2810852   7.459   7.427   3.884  0.7573 -1.8887  1.3541
  133MOL    H2910853   7.586   7.413   3.993  0.9737  1.3930  0.8450
  133MOL    C3010854   7.646   7.635   4.035  0.2145 -0.1246  1.0293
  133MOL    O3110855   7.767   7.589   3.981 -0.2461 -0.0374  0.4810
  133MOL    H3210856   7.639   7.582   4.130  1.4201 -0.7963  0.7529
  133MOL    H3310857   7.649   7.739   4.066 -0.0831  0.1961 -0.0176
  133MOL    C3410858   0.004   7.651   3.865  0.3057 -0.1494  0.6172
  133MOL    O3510859   0.110   7.741   3.857  0.8700 -0.4348 -0.1991
  133MOL    H3610860   7.698   7.677   3.810  1.7889  0.9997 -1.3266
  133MOL    H3710861   0.032   7.568   3.800  0.6354 -0.8508  1.6363
  133MOL    C3810862   0.085   0.077   3.921  0.1240 -0.1721  0.6258
  133MOL    O3910863   7.784   0.165   3.849  0.4350 -0.2641  0.0236
  133MOL    H4010864   0.183   0.124   3.932  0.0108  0.3009 -0.3787
  133MOL    H4110865   0.043   0.071   4.022 -1.4939  0.4578 -0.0003
  133MOL    C4210866   0.063   0.207   3.730 -0.9558  0.6955  0.7384
  133MOL    O4310867   7.767   0.281   3.655 -0.2231  0.2115 -0.1049
  133MOL    H4410868   0.104   0.127   3.669 -1.0017  1.1361  0.1325
  133MOL    H4510869   0.153   0.257   3.766 -0.1723 -0.6335  0.6540
  133MOL    C4610870   7.662   0.209   3.591  0.0853  0.6220  0.7279
  133MOL    O4710871   7.695   0.160   3.468 -0.1815 -0.1245 -0.1176
  133MOL    H4810872   7.586   0.287   3.587 -1.5345 -0.8926  1.6111
  133MOL    H4910873   7.632   0.128   3.657 -0.1307  0.6131  0.6190
  133MOL    C5010874   7.601   0.071   3.419  0.5530 -0.1241  0.9364
  133MOL    O5110875   7.597   7.738   3.490 -0.5659 -0.0177 -0.8312
  133MOL    H5210876   7.624   0.030   3.320 -0.7140 -1.5897  1.2256
  133MOL    H5310877   7.505   0.123   3.414  0.5614 -0.1250  0.7506
  133MOL    C5410878   7.708   7.653   3.495  0.0059 -0.2866  0.0628
  133MOL    O5510879   7.689   7.550   3.589 -0.6270 -0.0335  0.5273
  133MOL    H5610880   0.016   7.709   3.514 -0.7362  0.8843  0.2158
  133MOL    H5710881   7.726   7.617   3.394  1.8591 -0.7182  0.5279
  133MOL    C5810882   7.579   7.467   3.559 -0.4346  0.5286 -0.5668
  133MOL    O5910883   7.601   7.393   3.448  0.1220  0.3138 -0.5876
  133MOL    H6010884   7.487   7.525   3.563 -0.6209  0.0453  3.0093
  133MOL    H6110885   7.572   7.398   3.642 -2.1595  0.0298 -1.1029
  133MOL    C6210886   7.508   7.298   3.415  1.2248  0.0982 -0.4026
  133MOL    O6310887   7.385   7.346   3.378  0.4513 -0.0415 -0.2615
  133MOL    H6410888   7.508   7.236   3.504  0.8553  2.2240  1.1268
  133MOL    H6510889   7.551   7.238   3.335 -1.0659  0.7175 -2.1438
  133MOL    C6610890   7.383   7.384   3.242 -0.2264  0.1160 -0.0198
  133MOL    O6710891   7.266   7.443   3.215  0.4630 -0.0594  0.4168
  133MOL    H6810892   7.399   7.291   3.188  0.9545 -0.5372  1.4150
  133MOL    H6910893   7.461   7.458   3.226  1.3181 -1.3947  0.3703
  133MOL    C7010894   7.168   7.352   3.199  1.1737  0.3924  0.3958
  133MOL    O7110895   7.183   7.272   3.079 -0.5399 -0.0745  0.1193
  133MOL    H7210896   7.072   7.404   3.199  1.4264  0.8742 -0.3888
  133MOL    H7310897   7.177   7.284   3.284  0.1573 -1.9725 -1.3192
  133MOL    C7410898   7.175   7.347   2.954  1.1557 -0.2445 -0.6371
  133MOL    O7510899   7.041   7.366   2.919  0.2112  0.1401  1.0846
  133MOL    H7610900   7.226   7.298   2.871  2.1995 -0.0016 -0.1311
  133MOL    H7710901   7.228   7.442   2.963  1.4553 -0.3644 -1.1457
  133MOL    C7810902   6.986   7.256   2.856  0.6263  0.1135 -0.8798
  133MOL    O7910903   6.851   7.275   2.843 -0.1752 -0.0051 -0.1250
  133MOL    H8010904   6.997   7.163   2.911 -0.9059 -1.4155 -3.0704
  133MOL    H8110905   7.041   7.248   2.762 -0.5433  0.9521 -1.6464
  133MOL    H8210906   6.817   7.187   2.847  0.2351 -0.2530 -1.6453
  134MOL     C110907   3.610   1.033   6.646 -0.2567  0.4557  0.4739
  134MOL     O210908   3.640   1.133   6.739 -0.2991  0.2301 -0.1807
  134MOL     H310909   3.649   1.060   6.548  1.6659  0.9541  1.3408
  134MOL     H410910   3.658   0.939   6.675 -0.1800  0.7489  1.3218
  134MOL     H510911   3.508   1.002   6.624  0.2443 -1.9285  1.3430
  134MOL     C610912   3.543   1.235   6.734  0.3823 -0.0693  0.1841
  134MOL     O710913   3.418   1.175   6.769 -0.0139 -0.0865  0.3047
  134MOL     H810914   3.527   1.285   6.639 -1.3770  0.6238  0.8321
  134MOL     H910915   3.571   1.323   6.793  0.8571 -1.7700  2.5555
  134MOL    C1010916   3.416   1.155   6.912  0.3776  0.5832 -0.3629
  134MOL    O1110917   3.372   1.271   6.980  0.3677 -0.4632  0.8792
  134MOL    H1210918   3.518   1.130   6.941 -0.5245 -1.0511  1.5054
  134MOL    H1310919   3.353   1.067   6.923 -0.1298  0.7440 -1.8053
  134MOL    C1410920   3.397   1.269   7.117  0.0454 -0.5827 -0.0491
  134MOL    O1510921   3.446   1.382   7.171 -0.5280 -0.3085 -0.0520
  134MOL    H1610922   3.463   1.185   7.139 -2.8745 -2.0279  3.6829
  134MOL    H1710923   3.305   1.229   7.161 -0.1490 -0.1843 -0.0915
  134MOL    C1810924   3.368   1.488   7.121 -0.4306 -0.2977 -0.2981
  134MOL    O1910925   3.377   1.598   7.213  0.0093 -0.0692 -0.0100
  134MOL    H2010926   3.265   1.457   7.105 -0.5670 -1.9214  3.2267
  134MOL    H2110927   3.412   1.514   7.025  0.0387 -2.5740 -0.7104
  134MOL    C2210928   3.275   1.589   7.315  0.1983 -0.0988  0.1699
  134MOL    O2310929   3.151   1.641   7.279 -0.3648  0.2364  0.2726
  134MOL    H2410930   3.326   1.648   7.391 -0.2630 -1.2419  1.3721
  134MOL    H2510931   3.261   1.493   7.365  0.9860 -0.3119 -0.0174
  134MOL    C2610932   3.139   1.780   7.315  0.1496  0.3840 -0.6801
  134MOL    O2710933   3.128   1.786   7.461  0.0857  0.1853 -0.3246
  134MOL    H2810934   3.053   1.822   7.263 -0.2634 -0.8858 -1.0470
  134MOL    H2910935   3.230   1.828   7.280 -0.1722  2.0897  0.7761
  134MOL    C3010936   3.141   1.914   7.510  0.8228 -0.1393 -0.9929
  134MOL    O3110937   3.027   1.987   7.481  0.6392  0.2732 -0.5060
  134MOL    H3210938   3.231   1.957   7.466  1.7701 -2.3190 -1.2296
  134MOL    H3310939   3.148   1.926   7.618 -2.1844  1.4069 -0.9037
  134MOL    C3410940   3.040   2.119   7.458 -0.1752 -0.6352  0.2785
  134MOL    O3510941   3.111   2.155   7.341  0.4961  1.0074  0.3533
  134MOL    H3610942   3.109   2.163   7.530 -0.7517  0.7382 -0.0041
  134MOL    H3710943   2.943   2.168   7.450  0.4868  0.4368 -1.4194
  134MOL    C3810944   3.024   2.149   7.230 -0.0895 -0.2604 -0.3060
  134MOL    O3910945   2.931   2.252   7.221 -0.5457  0.3837 -0.2388
  134MOL    H4010946   2.970   2.054   7.227 -2.3822  0.9365  1.3598
  134MOL    H4110947   3.084   2.143   7.140  1.2601  2.0925  0.3975
  134MOL    C4210948   2.979   2.366   7.157  0.4479  0.2497 -0.0529
  134MOL    O4310949   2.971   2.333   7.024 -0.2734 -0.6159 -0.4307
  134MOL    H4410950   3.084   2.388   7.179  0.3287  0.3915  0.3753
  134MOL    H4510951   2.918   2.452   7.183 -0.4537 -0.9671  2.0225
  134MOL    C4610952   2.845   2.346   6.966 -0.5689 -0.1318 -1.0719
  134MOL    O4710953   2.787   2.470   6.977  0.3548  0.2603 -0.0587
  134MOL    H4810954   2.769   2.285   7.016  0.4957  0.3400  1.1797
  134MOL    H4910955   2.857   2.304   6.866  3.7360  0.5624 -0.9247
  134MOL    C5010956   2.862   2.571   6.913  0.8547 -0.0972 -0.1699
  134MOL    O5110957   2.846   2.554   6.769 -0.1940  0.7339 -0.2541
  134MOL    H5210958   2.963   2.560   6.951  0.3636 -3.4528  0.3345
  134MOL    H5310959   2.817   2.668   6.932  0.0816 -0.2239 -1.2754
  134MOL    C5410960   2.731   2.613   6.720 -0.7523  0.5211 -0.4089
  134MOL    O5510961   2.743   2.744   6.674  0.6709 -0.2159  0.0279
  134MOL    H5610962   2.651   2.588   6.791  1.6597 -1.4394  1.7604
  134MOL    H5710963   2.702   2.561   6.629  1.4514 -1.7137  0.0951
  134MOL    C5810964   2.847   2.759   6.585  0.2791 -0.2936 -0.4870
  134MOL    O5910965   2.846   2.885   6.536  0.5837 -0.4303  0.0342
  134MOL    H6010966   2.845   2.684   6.506  0.2395 -1.0303  0.1988
  134MOL    H6110967   2.942   2.743   6.636  0.2870 -2.4309 -1.1351
  134MOL    C6210968   2.734   2.911   6.452 -0.5915 -0.1318 -0.2151
  134MOL    O6310969   2.684   3.041   6.484  0.0025 -1.3228 -0.4040
  134MOL    H6410970   2.657   2.836   6.472  1.5568 -2.3305 -0.0276
  134MOL    H6510971   2.758   2.906   6.345  0.3494 -0.4128  0.0114
  134MOL    C6610972   2.622   3.112   6.380 -0.1437  0.0516  0.1180
  134MOL    O6710973   2.496   3.062   6.371  0.1973 -0.4398  0.6704
  134MOL    H6810974   2.674   3.097   6.285  0.1150  1.4304  0.0308
  134MOL    H6910975   2.639   3.217   6.403  1.3115  0.0520 -0.8631
  134MOL    C7010976   2.405   3.153   6.410  0.0603  0.3979 -0.4671
  134MOL    O7110977   2.407   3.265   6.327 -0.0384 -0.2903  0.3205
  134MOL    H7210978   2.419   3.187   6.512  1.1071  1.4079 -0.9279
  134MOL    H7310979   2.304   3.112   6.409  0.1798  0.0026  1.5519
  134MOL    C7410980   2.330   3.251   6.214  0.4857  0.1307  0.2646
  134MOL    O7510981   2.190   3.276   6.231 -0.1065 -0.4971 -0.8442
  134MOL    H7610982   2.351   3.152   6.175 -0.0213 -0.2929  1.0592
  134MOL    H7710983   2.373   3.306   6.130  2.1660 -0.8447  0.4531
  134MOL    C7810984   2.156   3.394   6.287 -0.0599 -0.0788  0.0045
  134MOL    O7910985   2.019   3.405   6.300  0.1834  0.3487 -0.2125
  134MOL    H8010986   2.188   3.481   6.228 -0.0585 -1.9906 -2.9023
  134MOL    H8110987   2.203   3.396   6.385 -0.4240 -0.3515  0.1816
  134MOL    H8210988   1.981   3.413   6.214 -3.6813 -0.0670  1.3674
  135MOL     C110989   0.587   4.893   6.414 -0.4842  0.7833  0.3858
  135MOL     O210990   0.520   4.980   6.501  0.3199 -0.1811 -0.6408
  135MOL     H310991   0.525   4.858   6.332  0.9442 -1.2311  0.1135
  135MOL     H410992   0.677   4.939   6.373 -0.9342  1.6468  0.3598
  135MOL     H510993   0.612   4.809   6.480  5.7927  1.5433 -0.6759
  135MOL     C610994   0.489   5.111   6.453 -0.1364  0.0199  0.1591
  135MOL     O710995   0.413   5.090   6.340  0.0778 -0.5349 -0.5843
  135MOL     H810996   0.582   5.159   6.422 -0.2644 -0.0495 -0.3232
  135MOL     H910997   0.434   5.172   6.525 -3.2275 -3.8553  1.2851
  135MOL    C1010998   0.280   5.124   6.360  0.0647  0.3572 -0.4455
  135MOL    O1110999   0.212   5.136   6.245  0.5246  0.7908 -0.5513
  135MOL    H1211000   0.266   5.223   6.405 -0.8964 -0.5574  1.3245
  135MOL    H1311001   0.220   5.059   6.423 -0.9122  0.1484 -1.5677
  135MOL    C1411002   0.187   5.015   6.178 -0.4460  0.4513  0.0620
  135MOL    O1511003   0.072   4.961   6.230  0.0888 -0.4347 -0.1262
  135MOL    H1611004   0.270   4.945   6.187  0.1516  1.4114  2.3608
  135MOL    H1711005   0.172   5.027   6.070  0.8314 -0.6164 -0.2453
  135MOL    C1811006   7.736   5.000   6.161  0.8887  0.5084  0.1524
  135MOL    O1911007   7.718   5.133   6.168 -0.2918  1.1128  0.3558
  135MOL    H2011008   7.652   4.949   6.207  0.3974  1.1394 -0.0395
  135MOL    H2111009   7.725   4.983   6.054  2.0559 -1.5785  0.3231
  135MOL    C2211010   7.698   5.175   6.298  0.0261 -0.0330  0.1417
  135MOL    O2311011   7.570   5.233   6.298 -0.2904 -0.2142  0.3185
  135MOL    H2411012   7.759   5.261   6.322 -1.8306  1.8307 -1.6092
  135MOL    H2511013   7.715   5.109   6.382  3.4250 -0.4359 -0.8085
  135MOL    C2611014   7.468   5.144   6.333  0.7429 -0.2483  0.2712
  135MOL    O2711015   7.481   5.098   6.472 -0.4077 -0.3972  0.3280
  135MOL    H2811016   7.458   5.074   6.250  0.4088  0.0669  0.0456
  135MOL    H2911017   7.380   5.207   6.322  0.1457 -1.0331  0.5416
  135MOL    C3011018   7.382   5.016   6.512 -0.6902 -0.4565  0.4323
  135MOL    O3111019   7.281   5.081   6.573 -0.0201 -0.1308 -0.3162
  135MOL    H3211020   7.417   4.942   6.583 -0.0905 -0.1035  0.5078
  135MOL    H3311021   7.336   4.968   6.425 -1.4243  0.6662  0.1885
  135MOL    C3411022   7.311   5.152   6.686  0.4516  0.5256  0.2496
  135MOL    O3511023   7.202   5.230   6.735 -0.0030 -0.1720 -0.6828
  135MOL    H3611024   7.392   5.222   6.663  1.8035 -0.6306  1.3557
  135MOL    H3711025   7.342   5.074   6.756 -1.4089 -0.0049  0.5112
  135MOL    C3811026   7.108   5.164   6.805 -1.0172 -0.2802 -0.4083
  135MOL    O3911027   7.165   5.085   6.909 -0.3112 -0.3114  0.2465
  135MOL    H4011028   7.075   5.085   6.739 -0.3336 -0.9126  0.0038
  135MOL    H4111029   7.023   5.232   6.818 -1.1110 -0.1871 -1.4914
  135MOL    C4211030   7.171   5.152   7.030  0.7974 -0.4633 -0.2259
  135MOL    O4311031   7.265   5.254   7.030 -0.0008  0.2569 -0.2256
  135MOL    H4411032   7.198   5.089   7.115  0.4318 -1.1604 -0.6222
  135MOL    H4511033   7.071   5.192   7.050  0.0597 -1.5242 -1.7081
  135MOL    C4611034   7.395   5.220   7.044  0.2251 -0.0488  0.5385
  135MOL    O4711035   7.436   5.169   7.166  0.1961 -0.6591 -0.4246
  135MOL    H4811036   7.447   5.313   7.019 -0.6322 -0.0487 -1.2810
  135MOL    H4911037   7.421   5.139   6.976 -2.9759 -0.9274  0.3070
  135MOL    C5011038   7.465   5.273   7.261  0.1555  0.5215  0.2417
  135MOL    O5111039   7.598   5.314   7.254 -0.1173  0.0211  0.3991
  135MOL    H5211040   7.444   5.241   7.364  0.3990  0.2925  0.2207
  135MOL    H5311041   7.391   5.352   7.258 -0.8124 -0.2856  1.8516
  135MOL    C5411042   7.690   5.224   7.304  0.1581 -0.1872  0.3551
  135MOL    O5511043   7.673   5.198   7.442  0.7631 -0.3878 -0.3465
  135MOL    H5611044   0.003   5.267   7.280 -0.4146  1.6915  1.2897
  135MOL    H5711045   7.687   5.135   7.242  1.3462 -0.7755  1.1246
  135MOL    C5811046   7.730   5.295   7.523  0.1124  0.2522  0.2940
  135MOL    O5911047   0.077   5.266   7.558 -0.1394 -0.0329  0.2557
  135MOL    H6011048   7.671   5.300   7.614 -0.9966 -0.9693 -0.3317
  135MOL    H6111049   7.733   5.392   7.473  2.1903  1.0620  1.9664
  135MOL    C6211050   0.094   5.153   7.628  0.4708 -0.2156  0.2003
  135MOL    O6311051   0.038   5.154   7.761 -0.2151 -0.3851 -0.1724
  135MOL    H6411052   0.199   5.126   7.643 -0.0578 -3.4487 -1.3820
  135MOL    H6511053   0.056   5.064   7.578 -1.3604 -0.0441  1.2395
  135MOL    C6611054   0.113   5.236   0.061  0.1950 -0.1914  0.0957
  135MOL    O6711055   0.238   5.186   0.088  0.0646  0.4370 -0.3246
  135MOL    H6811056   0.064   5.256   0.156 -1.5228 -1.5756 -0.4879
  135MOL    H6911057   0.113   5.331   0.008  0.7449  0.4754  1.2660
  135MOL    C7011058   0.314   5.267   0.162 -0.9051 -0.4590 -0.1911
  135MOL    O7111059   0.256   5.307   0.283  0.8121  0.2808 -0.1959
  135MOL    H7211060   0.338   5.350   0.096 -0.6855 -2.4152 -2.7013
  135MOL    H7311061   0.414   5.225   0.171 -0.3476  0.6911 -0.9499
  135MOL    C7411062   0.257   5.205   0.378  0.6409 -0.9992 -0.0852
  135MOL    O7511063   0.182   5.244   0.490  0.2986 -0.3465 -0.7338
  135MOL    H7611064   0.362   5.193   0.403  0.4920  0.0948  1.1181
  135MOL    H7711065   0.207   5.118   0.334  0.4029 -1.0778  0.3317
  135MOL    C7811066   0.047   5.239   0.473  1.1577 -0.0926  0.2986
  135MOL    O7911067   7.754   5.304   0.576 -0.1432  0.2623  0.1740
  135MOL    H8011068   0.015   5.135   0.478  1.8791 -0.2824  0.9160
  135MOL    H8111069   0.016   5.289   0.381  2.0525  0.3725  0.2484
  135MOL    H8211070   0.026   5.304   0.653 -1.4491  0.7214  1.1420
  136MOL     C111071   3.357   4.319   2.240  0.0789 -0.2968 -0.1207
  136MOL     O211072   3.317   4.366   2.375 -0.3483  0.1439 -0.0901
  136MOL     H311073   3.448   4.259   2.246 -0.5226 -1.2315 -0.1938
  136MOL     H411074   3.278   4.259   2.194  0.5582 -0.8506 -0.2372
  136MOL     H511075   3.371   4.405   2.175 -0.7082  1.4436  1.9622
  136MOL     C611076   3.383   4.487   2.420 -0.1405 -0.4333 -0.1379
  136MOL     O711077   3.523   4.467   2.423 -0.4438 -0.5204  0.3040
  136MOL     H811078   3.347   4.489   2.523 -1.3057 -0.9327 -0.5295
  136MOL     H911079   3.354   4.579   2.370  0.1408 -0.4358 -0.3027
  136MOL    C1011080   3.588   4.579   2.467 -0.4821 -0.7503  0.7100
  136MOL    O1111081   3.600   4.680   2.367  0.2832  0.3971  0.5504
  136MOL    H1211082   3.682   4.538   2.502  0.1520 -0.2900 -0.4217
  136MOL    H1311083   3.552   4.634   2.554  1.6204  0.3583  0.9193
  136MOL    C1411084   3.696   4.650   2.267 -0.7912 -0.5142 -0.3533
  136MOL    O1511085   3.827   4.628   2.319 -0.1186  0.8526 -0.4244
  136MOL    H1611086   3.695   4.727   2.190 -2.7597  0.5641  0.7264
  136MOL    H1711087   3.657   4.561   2.217 -2.0596 -1.7736  2.7554
  136MOL    C1811088   3.908   4.553   2.232 -0.7355  0.5649 -0.1676
  136MOL    O1911089   3.922   4.621   2.110  0.2083 -0.6062 -0.7788
  136MOL    H2011090   3.855   4.460   2.214  1.0623  0.0627 -3.1769
  136MOL    H2111091   4.003   4.534   2.283 -0.6033  2.0900  0.1676
  136MOL    C2211092   4.008   4.559   2.026  0.0759  0.0142  0.9805
  136MOL    O2311093   4.144   4.582   2.056  0.2333 -0.3936  0.0047
  136MOL    H2411094   3.978   4.566   1.921  0.2198 -0.2390  0.9221
  136MOL    H2511095   4.000   4.451   2.040  0.0038  0.2480  2.8963
  136MOL    C2611096   4.199   4.687   1.983 -0.3213 -0.1111 -0.1864
  136MOL    O2711097   4.234   4.665   1.851 -0.1820 -1.3007  0.2833
  136MOL    H2811098   4.290   4.735   2.019  1.6179 -1.4429 -3.0845
  136MOL    H2911099   4.123   4.765   1.973  0.7956  0.8234 -1.5801
  136MOL    C3011100   4.349   4.593   1.840 -0.8565 -0.4317  0.3925
  136MOL    O3111101   4.461   4.671   1.883 -0.3342  0.0689  0.5348
  136MOL    H3211102   4.362   4.576   1.733  2.4723  1.1740  0.5068
  136MOL    H3311103   4.338   4.493   1.883 -1.6529 -0.7693 -0.5720
  136MOL    C3411104   4.489   4.769   1.786  0.3096 -0.2943 -0.3049
  136MOL    O3511105   4.600   4.849   1.818  0.1027 -0.4497  0.4682
  136MOL    H3611106   4.406   4.839   1.779 -0.1134 -0.6541  0.9618
  136MOL    H3711107   4.497   4.739   1.682 -0.0983  2.5399 -1.2037
  136MOL    C3811108   4.711   4.776   1.803 -0.2734 -0.8282 -0.4245
  136MOL    O3911109   4.742   4.753   1.662  0.4134  0.3856  0.1335
  136MOL    H4011110   4.692   4.672   1.830 -2.2691 -0.6481 -1.0353
  136MOL    H4111111   4.798   4.814   1.856 -2.4333  2.2366  1.0334
  136MOL    C4211112   4.764   4.867   1.588  0.4236 -0.0345  0.1327
  136MOL    O4311113   4.871   4.938   1.643  0.2657  0.0625 -0.5273
  136MOL    H4411114   4.672   4.925   1.596  0.3322 -0.0782 -0.5278
  136MOL    H4511115   4.773   4.836   1.484 -0.5275 -0.4294  0.1566
  136MOL    C4611116   4.992   4.897   1.595 -0.2389 -0.0681 -0.3254
  136MOL    O4711117   5.092   4.966   1.662 -0.4538  0.2838 -0.0699
  136MOL    H4811118   4.987   4.923   1.489  1.8946 -0.5445 -0.5615
  136MOL    H4911119   4.999   4.790   1.617  0.0885 -0.7658 -3.5467
  136MOL    C5011120   5.108   4.941   1.799  0.1793  0.4011  0.5920
  136MOL    O5111121   5.237   4.990   1.844  0.1358 -0.6463  0.4284
  136MOL    H5211122   5.115   4.833   1.810  0.5762  0.2261 -1.1690
  136MOL    H5311123   5.024   4.985   1.853  0.2296  1.7398 -0.3849
  136MOL    C5411124   5.241   5.130   1.871  0.5544  0.3090 -0.1749
  136MOL    O5511125   5.166   5.161   1.983 -0.0853  0.2151  0.6003
  136MOL    H5611126   5.208   5.182   1.781 -0.0546 -0.5483 -0.4532
  136MOL    H5711127   5.344   5.157   1.893 -0.4569  2.3127  2.4004
  136MOL    C5811128   5.183   5.296   2.019  0.5977  0.3285 -0.5510
  136MOL    O5911129   5.214   5.308   2.153  1.1274 -0.0915  0.7156
  136MOL    H6011130   5.093   5.353   1.996  0.5946  0.3632 -0.4470
  136MOL    H6111131   5.268   5.344   1.970  1.1593  1.0574  1.0878
  136MOL    C6211132   5.333   5.240   2.180  0.5332 -0.4374  0.8487
  136MOL    O6311133   5.447   5.317   2.161 -0.2866 -0.6880 -0.2097
  136MOL    H6411134   5.353   5.159   2.109 -1.0219 -0.4097  0.3696
  136MOL    H6511135   5.324   5.197   2.279 -0.5625  0.3292  1.0899
  136MOL    C6611136   5.448   5.420   2.259  0.0812  0.1762  0.5205
  136MOL    O6711137   5.534   5.525   2.227  0.3536 -0.2093  0.1377
  136MOL    H6811138   5.477   5.376   2.355  1.3263  1.4238  0.7411
  136MOL    H6911139   5.350   5.467   2.264 -2.2714 -4.3490 -1.2221
  136MOL    C7011140   5.557   5.608   2.338  0.2525  0.3947 -0.0139
  136MOL    O7111141   5.603   5.739   2.319  0.2808 -0.0175  0.3176
  136MOL    H7211142   5.618   5.557   2.413  0.2712 -0.9581 -0.9233
  136MOL    H7311143   5.462   5.621   2.390  0.1647 -0.8365  0.1637
  136MOL    C7411144   5.719   5.743   2.246 -0.3056 -0.1234 -0.7746
  136MOL    O7511145   5.834   5.704   2.311  0.1396 -0.3538  0.3469
  136MOL    H7611146   5.740   5.842   2.208 -1.1374  0.8347  1.1750
  136MOL    H7711147   5.712   5.678   2.159 -0.5054 -0.6800 -0.3488
  136MOL    C7811148   5.844   5.763   2.436  0.6065  0.6708  0.1193
  136MOL    O7911149   5.969   5.739   2.499  0.1372 -0.2227 -0.0270
  136MOL    H8011150   5.769   5.727   2.506  0.7452 -1.7674 -0.9637
  136MOL    H8111151   5.834   5.871   2.423 -1.6787  0.2655 -1.6164
  136MOL    H8211152   6.042   5.786   2.459  0.0396 -0.6175 -0.6773
  137MOL     C111153   2.637   5.443   6.522 -0.3213 -0.6752  0.4331
  137MOL     O211154   2.520   5.421   6.447 -0.3338 -0.0263 -0.5225
  137MOL     H311155   2.674   5.358   6.580  0.6688 -1.8917 -1.9053
  137MOL     H411156   2.718   5.466   6.452  0.1810 -0.5624  1.0400
  137MOL     H511157   2.622   5.528   6.588 -0.0003  0.7381 -1.2825
  137MOL     C611158   2.404   5.387   6.519  0.4631 -0.1726 -0.4450
  137MOL     O711159   2.336   5.278   6.460 -0.3603 -0.2191  0.3203
  137MOL     H811160   2.338   5.473   6.524 -1.0797 -1.4013  1.3215
  137MOL     H911161   2.440   5.344   6.613 -0.4494  1.1316  0.5283
  137MOL    C1011162   2.423   5.170   6.432 -0.3810  0.3415  0.4633
  137MOL    O1111163   2.460   5.095   6.549 -0.4379  0.5976 -0.0766
  137MOL    H1211164   2.502   5.208   6.368  0.3236 -3.3948 -0.9617
  137MOL    H1311165   2.358   5.110   6.369 -1.7373  0.6316  1.5534
  137MOL    C1411166   2.570   5.009   6.532  0.1710  0.2667  0.1064
  137MOL    O1511167   2.566   4.921   6.421  0.0116 -0.0093 -0.6493
  137MOL    H1611168   2.611   4.961   6.621 -0.0074 -1.0153 -0.4885
  137MOL    H1711169   2.650   5.079   6.509  1.0574  0.3014  3.1344
  137MOL    C1811170   2.493   4.803   6.448 -0.2479  0.6562 -0.0687
  137MOL    O1911171   2.564   4.694   6.388  0.0043 -0.3890 -0.3184
  137MOL    H2011172   2.390   4.815   6.413 -1.3791 -3.1928  1.7301
  137MOL    H2111173   2.482   4.794   6.556 -1.6004  3.8865  0.1277
  137MOL    C2211174   2.693   4.679   6.441  0.0244  0.4725  0.1579
  137MOL    O2311175   2.742   4.555   6.389 -0.1502 -0.6075 -0.2488
  137MOL    H2411176   2.689   4.665   6.549  2.0542 -0.7311  0.1008
  137MOL    H2511177   2.756   4.765   6.420  0.8237  0.3273  1.9102
  137MOL    C2611178   2.801   4.583   6.265 -0.3049 -0.7410  0.1998
  137MOL    O2711179   2.930   4.639   6.278  0.5309  1.1098 -0.5826
  137MOL    H2811180   2.751   4.655   6.201  1.5134 -0.4719 -0.9523
  137MOL    H2911181   2.806   4.490   6.209 -1.1851 -0.8012  0.2169
  137MOL    C3011182   3.014   4.554   6.341 -0.4519 -0.1848 -0.0478
  137MOL    O3111183   3.145   4.606   6.332 -0.0150  0.0873  0.2162
  137MOL    H3211184   3.011   4.449   6.310 -1.8562  0.1899 -1.2657
  137MOL    H3311185   2.988   4.557   6.447 -2.0937  5.3333 -0.4531
  137MOL    C3411186   3.190   4.590   6.201 -0.3160 -0.3824 -0.2314
  137MOL    O3511187   3.324   4.626   6.192  0.2128 -0.4134 -0.0632
  137MOL    H3611188   3.134   4.666   6.147  1.2763  2.7058  2.3209
  137MOL    H3711189   3.156   4.499   6.151 -1.7686 -0.8761  1.5894
  137MOL    C3811190   3.410   4.522   6.223 -0.5937  0.0237  0.1312
  137MOL    O3911191   3.527   4.515   6.149 -0.3193  0.1879  0.3023
  137MOL    H4011192   3.363   4.427   6.197  1.3711 -0.2968 -2.5183
  137MOL    H4111193   3.424   4.528   6.331 -0.0666 -3.1721  0.3039
  137MOL    C4211194   3.606   4.627   6.167 -0.3305  0.3466 -0.3859
  137MOL    O4311195   3.727   4.600   6.101 -0.8354  0.3954 -0.0567
  137MOL    H4411196   3.618   4.655   6.272  1.6634  1.2210 -0.8195
  137MOL    H4511197   3.554   4.711   6.122 -3.2077 -0.7931  0.6842
  137MOL    C4611198   3.823   4.531   6.172 -0.2420 -0.5186 -0.2387
  137MOL    O4711199   3.868   4.594   6.288  0.3559  0.2699  0.1149
  137MOL    H4811200   3.909   4.527   6.104 -0.0268  0.5704 -0.0431
  137MOL    H4911201   3.795   4.427   6.184  0.0046 -0.4288  1.1606
  137MOL    C5011202   3.945   4.707   6.259  0.2270  0.0161 -0.3527
  137MOL    O5111203   4.071   4.671   6.210 -0.1441  0.0158  0.1576
  137MOL    H5211204   3.955   4.757   6.355 -1.0394 -0.0835 -0.1521
  137MOL    H5311205   3.886   4.772   6.195 -1.4832  0.1456  1.2967
  137MOL    C5411206   4.127   4.577   6.297  0.0436  0.4848 -0.8480
  137MOL    O5511207   4.265   4.558   6.281 -0.4158  0.2349  0.5238
  137MOL    H5611208   4.074   4.482   6.296  1.2939 -0.2267 -0.7773
  137MOL    H5711209   4.118   4.609   6.401 -2.1575 -1.5414 -0.3851
  137MOL    C5811210   4.290   4.505   6.152  0.4407  0.0191 -0.3349
  137MOL    O5911211   4.262   4.371   6.144 -0.0502  0.2933  0.5482
  137MOL    H6011212   4.396   4.519   6.130  0.6016 -0.3901  0.1512
  137MOL    H6111213   4.240   4.553   6.068  0.6169 -0.0939 -0.5057
  137MOL    C6211214   4.359   4.297   6.209 -1.1834  0.1811  0.0415
  137MOL    O6311215   4.476   4.275   6.135 -0.0744 -0.0371  0.1635
  137MOL    H6411216   4.317   4.205   6.250 -1.9480  1.5729  2.4657
  137MOL    H6511217   4.379   4.350   6.302 -0.3861  0.9925 -0.5799
  137MOL    C6611218   4.578   4.210   6.207 -0.0145  1.1694  0.0063
  137MOL    O6711219   4.618   4.281   6.322  0.3360 -0.1783  0.1567
  137MOL    H6811220   4.649   4.195   6.126 -1.6342  1.4169 -1.5057
  137MOL    H6911221   4.530   4.115   6.231 -0.4024  1.4089  0.1904
  137MOL    C7011222   4.709   4.384   6.294 -0.3897 -0.3714 -0.0047
  137MOL    O7111223   4.823   4.333   6.234 -0.0003 -0.2806  0.6681
  137MOL    H7211224   4.735   4.423   6.393 -0.9455 -0.1380  0.0505
  137MOL    H7311225   4.656   4.463   6.241 -2.9216  0.0140  2.9291
  137MOL    C7411226   4.899   4.243   6.309 -0.0343 -0.5976 -1.1499
  137MOL    O7511227   4.950   4.292   6.431 -0.4304  0.1257  0.6226
  137MOL    H7611228   4.980   4.200   6.250 -0.1030 -1.6136 -0.5255
  137MOL    H7711229   4.831   4.168   6.351 -3.2237  2.8496  0.1311
  137MOL    C7811230   5.053   4.374   6.410 -0.0005  0.1403 -0.7938
  137MOL    O7911231   5.132   4.395   6.524  0.3570 -0.2961  0.4175
  137MOL    H8011232   5.015   4.474   6.387  0.6453  0.6386  0.2537
  137MOL    H8111233   5.115   4.324   6.336 -0.5456 -1.5418 -0.1171
  137MOL    H8211234   5.165   4.308   6.542 -1.1335 -0.8014  0.7801
  138MOL     C111235   2.701   7.388   1.660 -0.4189  0.2358  0.3976
  138MOL     O211236   2.592   7.471   1.622  0.5839  0.1526 -0.0978
  138MOL     H311237   2.784   7.450   1.694  0.2529 -0.1494 -0.5108
  138MOL     H411238   2.665   7.322   1.739 -2.2866  0.6495 -0.0878
  138MOL     H511239   2.734   7.327   1.575 -0.5351 -0.0962  0.5910
  138MOL     C611240   2.543   7.542   1.723  0.5742  0.1925  0.1386
  138MOL     O711241   2.603   7.668   1.746 -0.8019 -0.3542 -0.2332
  138MOL     H811242   2.548   7.494   1.820 -0.3296 -0.4542 -0.1220
  138MOL     H911243   2.437   7.552   1.696  0.4277  0.7286  0.8993
  138MOL    C1011244   2.543   7.769   1.669  0.2311 -0.4265 -0.0093
  138MOL    O1111245   2.418   0.022   1.723  0.0433  0.4861 -0.1741
  138MOL    H1211246   2.526   7.727   1.570 -0.6469  1.6983 -0.7939
  138MOL    H1311247   2.609   0.069   1.646  0.2847 -0.2943  0.6191
  138MOL    C1411248   2.412   0.093   1.847  0.1415 -0.1870 -0.7868
  138MOL    O1511249   2.297   0.059   1.916 -0.3306 -0.1304 -0.5545
  138MOL    H1611250   2.407   0.200   1.832  1.6011  0.3606  2.2231
  138MOL    H1711251   2.504   0.079   1.904 -0.1101 -0.0439 -0.3487
  138MOL    C1811252   2.292   7.709   1.938  0.6540 -0.3353  0.3320
  138MOL    O1911253   2.188   7.678   2.019  0.0342  0.2062  0.0756
  138MOL    H2011254   2.379   7.676   1.996  0.8734  1.0858  0.8360
  138MOL    H2111255   2.277   7.656   1.844  1.0154 -1.7583  1.0600
  138MOL    C2211256   2.066   7.707   1.964 -0.2573 -0.3424 -0.3127
  138MOL    O2311257   2.017   7.623   1.870  0.3814 -0.2943 -0.4044
  138MOL    H2411258   2.079   0.021   1.917 -1.9881  0.1892  0.2912
  138MOL    H2511259   1.991   7.714   2.043 -0.4256 -0.0096 -0.5013
  138MOL    C2611260   2.009   7.486   1.915 -0.3862 -0.1768  0.2088
  138MOL    O2711261   2.130   7.416   1.906  0.6081  0.2947 -0.0899
  138MOL    H2811262   1.930   7.442   1.854  0.5577 -0.0675 -1.1169
  138MOL    H2911263   1.973   7.495   2.018 -1.1977  1.3924 -0.1957
  138MOL    C3011264   2.149   7.385   1.774 -0.5160 -0.6766 -0.1828
  138MOL    O3111265   2.287   7.351   1.766  0.1868  0.7455  0.0792
  138MOL    H3211266   2.130   7.467   1.706 -1.3111 -1.6287 -1.1163
  138MOL    H3311267   2.090   7.300   1.739 -1.3062 -1.0486  1.9454
  138MOL    C3411268   2.316   7.213   1.771 -0.2557 -0.2040 -0.3506
  138MOL    O3511269   2.298   7.152   1.648 -0.0306  0.2145 -0.3858
  138MOL    H3611270   2.252   7.164   1.844  0.1677  0.8926  0.7692
  138MOL    H3711271   2.418   7.204   1.808  0.2990  0.1667 -1.7604
  138MOL    C3811272   2.400   7.188   1.558  0.2658 -1.0550 -0.4788
  138MOL    O3911273   2.358   7.173   1.427  0.7184  0.0084  0.5672
  138MOL    H4011274   2.494   7.134   1.574  1.2942  1.0451  0.8254
  138MOL    H4111275   2.419   7.295   1.563  0.1047 -1.1028  2.6270
  138MOL    C4211276   2.310   7.050   1.394  0.0924  0.4027 -0.3030
  138MOL    O4311277   2.415   6.966   1.367  0.2052  0.2422 -0.4805
  138MOL    H4411278   2.265   7.069   1.297 -0.3592  1.3704  0.0831
  138MOL    H4511279   2.240   7.003   1.463  0.5563 -0.3918 -0.3696
  138MOL    C4611280   2.382   6.831   1.371  0.3228 -0.2277 -0.0528
  138MOL    O4711281   2.304   6.804   1.261  0.7557 -0.5303  0.4182
  138MOL    H4811282   2.340   6.800   1.467 -1.1912  3.1718  0.4725
  138MOL    H4911283   2.477   6.779   1.363  0.8481  0.1875  2.8752
  138MOL    C5011284   2.363   6.812   1.135 -0.8125  0.9071  0.1479
  138MOL    O5111285   2.444   6.699   1.106  0.2943  0.1254 -0.0146
  138MOL    H5211286   2.424   6.903   1.135  0.8411 -0.1588  2.0230
  138MOL    H5311287   2.285   6.824   1.060  0.7410  0.5879 -1.5697
  138MOL    C5411288   2.373   6.585   1.100  0.2788 -0.6675 -0.1049
  138MOL    O5511289   2.291   6.568   0.990 -0.4769 -0.7155  0.4609
  138MOL    H5611290   2.313   6.566   1.189 -1.7830 -1.5537 -1.6623
  138MOL    H5711291   2.453   6.510   1.099  1.2182  0.2602  2.2966
  138MOL    C5811292   2.366   6.561   0.876 -0.3959 -0.8260 -0.9470
  138MOL    O5911293   2.422   6.434   0.854  0.0014 -0.3233 -0.5104
  138MOL    H6011294   2.449   6.632   0.883  1.3774 -2.7629 -1.8560
  138MOL    H6111295   2.311   6.605   0.793  1.2728  0.1338 -1.5688
  138MOL    C6211296   2.326   6.342   0.828 -0.7663  0.1557  0.7260
  138MOL    O6311297   2.375   6.212   0.843 -0.3387 -0.2016 -0.1399
  138MOL    H6411298   2.288   6.345   0.726 -0.7916 -2.4463  0.6300
  138MOL    H6511299   2.240   6.349   0.895 -0.0657  1.8883  1.4785
  138MOL    C6611300   2.392   6.164   0.974  0.8314  0.0437 -0.4704
  138MOL    O6711301   2.269   6.147   1.046 -0.2961  0.4261  0.0868
  138MOL    H6811302   2.449   6.223   1.046  0.1235 -1.3264  1.2689
  138MOL    H6911303   2.448   6.072   0.965 -1.6899 -1.4878 -0.9409
  138MOL    C7011304   2.208   6.027   1.008  0.6144  0.2658 -0.0474
  138MOL    O7111305   2.124   5.972   1.102 -0.1349 -0.2670 -0.3249
  138MOL    H7211306   2.278   5.944   0.998  1.8958  1.3329 -0.0805
  138MOL    H7311307   2.176   6.044   0.905 -0.1052  2.6736  0.5368
  138MOL    C7411308   1.987   6.008   1.076 -0.7703  0.1223  0.0700
  138MOL    O7511309   1.927   5.925   0.987  0.0808 -0.2605 -0.3518
  138MOL    H7611310   1.979   6.107   1.029  0.8776  0.1489 -0.1727
  138MOL    H7711311   1.943   6.011   1.176  1.1470 -1.1500  0.9656
  138MOL    C7811312   1.928   5.786   1.022  0.0823 -0.2128 -0.2212
  138MOL    O7911313   1.885   5.701   0.923  0.1767 -0.0743  0.1777
  138MOL    H8011314   1.874   5.763   1.114  1.5043  0.2204  0.7376
  138MOL    H8111315   2.032   5.755   1.033  0.4697  0.3644 -2.1008
  138MOL    H8211316   1.966   5.665   0.890  0.8767  1.6393  0.0161
  139MOL     C111317   5.591   3.800   0.956  0.1490  1.0854  0.5143
  139MOL     O211318   5.466   3.794   1.034  0.6594  0.3561 -0.5076
  139MOL     H311319   5.583   3.755   0.857  1.2594  0.9259  0.4969
  139MOL     H411320   5.607   3.905   0.934  2.4824  0.2285 -2.2150
  139MOL     H511321   5.675   3.755   1.008  0.1782  1.3895  0.7276
  139MOL     C611322   5.405   3.665   1.029  0.5428 -0.5231  0.9722
  139MOL     O711323   5.488   3.577   1.096  0.1481  0.2401 -0.3750
  139MOL     H811324   5.400   3.637   0.924  0.1372  0.7664  0.6398
  139MOL     H911325   5.301   3.672   1.061 -0.6683 -0.5037 -2.7237
  139MOL    C1011326   5.471   3.582   1.233 -0.2860 -0.0981  0.0998
  139MOL    O1111327   5.366   3.503   1.282  0.4511 -0.3059  0.4839
  139MOL    H1211328   5.450   3.685   1.260  0.7430  1.3202 -4.1338
  139MOL    H1311329   5.566   3.547   1.275 -1.6246 -1.7527  1.8269
  139MOL    C1411330   5.387   3.373   1.262 -0.3113 -0.2896  0.2676
  139MOL    O1511331   5.489   3.320   1.341  0.6621 -0.6173  0.4635
  139MOL    H1611332   5.413   3.347   1.160  1.5663 -1.1379  0.9570
  139MOL    H1711333   5.290   3.328   1.285 -0.2313 -1.8663 -2.3283
  139MOL    C1811334   5.471   3.346   1.476 -0.0313 -0.4563  0.4347
  139MOL    O1911335   5.545   3.261   1.555 -0.1010  0.3514  0.4942
  139MOL    H2011336   5.367   3.330   1.502 -0.2932 -0.8590 -0.7882
  139MOL    H2111337   5.494   3.451   1.495 -0.4467 -0.3022  0.0958
  139MOL    C2211338   5.523   3.127   1.537 -0.2907 -0.1601 -0.0065
  139MOL    O2311339   5.590   3.048   1.634  0.0026  0.1579 -0.4211
  139MOL    H2411340   5.541   3.089   1.437 -1.5568  2.8754 -1.4404
  139MOL    H2511341   5.418   3.102   1.550 -0.8458  1.0906 -1.8629
  139MOL    C2611342   5.728   3.059   1.612 -0.1513  0.1587 -0.6925
  139MOL    O2711343   5.807   2.974   1.700  0.4377  0.4729 -0.2863
  139MOL    H2811344   5.756   3.165   1.619 -0.4942  0.3235 -1.8302
  139MOL    H2911345   5.754   3.036   1.509  0.8989 -1.6041 -0.0685
  139MOL    C3011346   5.788   3.005   1.830 -0.3604 -0.2415 -0.0161
  139MOL    O3111347   5.853   3.122   1.858 -0.5021 -0.2076 -0.2996
  139MOL    H3211348   5.820   2.916   1.884 -1.6058 -0.2564  0.7131
  139MOL    H3311349   5.681   3.001   1.850 -0.4210  3.6746  0.9481
  139MOL    C3411350   5.873   3.151   1.998  0.7296 -0.0519  0.0701
  139MOL    O3511351   5.754   3.183   2.066  0.1316 -0.4216 -0.1057
  139MOL    H3611352   5.935   3.240   2.003  1.0900 -0.3174  0.3876
  139MOL    H3711353   5.917   3.064   2.047 -0.1901 -0.2490  0.5712
  139MOL    C3811354   5.674   3.282   1.996 -0.8479 -0.4288 -0.0659
  139MOL    O3911355   5.745   3.405   1.981  0.1752  0.4061  0.1424
  139MOL    H4011356   5.575   3.293   2.039 -1.4516 -0.9896 -1.2825
  139MOL    H4111357   5.656   3.243   1.896  0.0851  0.7848 -0.7282
  139MOL    C4211358   5.728   3.489   2.087 -0.2706  0.5756 -0.6605
  139MOL    O4311359   5.757   3.620   2.042  0.3898  0.3758  0.1578
  139MOL    H4411360   5.787   3.462   2.174 -2.0988  0.2224  0.5045
  139MOL    H4511361   5.621   3.497   2.110 -0.0679 -2.0951  1.4580
  139MOL    C4611362   5.895   3.649   2.046 -1.2932  0.0431 -0.3605
  139MOL    O4711363   5.944   3.673   2.171 -0.6461 -0.0170  0.7542
  139MOL    H4811364   5.909   3.731   1.976  0.1647  0.1160 -0.0113
  139MOL    H4911365   5.949   3.561   2.010 -1.9994 -0.5445 -0.0127
  139MOL    C5011366   5.916   3.805   2.205 -0.4013 -0.2610 -0.2760
  139MOL    O5111367   6.015   3.892   2.150 -0.7981  0.1401  0.0619
  139MOL    H5211368   5.911   3.819   2.313  1.6815 -2.5701  0.1637
  139MOL    H5311369   5.823   3.841   2.162  0.8167  3.3084 -0.0774
  139MOL    C5411370   6.051   4.001   2.236 -0.0241  1.2108  0.3592
  139MOL    O5511371   6.110   3.951   2.347 -0.3713  0.0194 -0.1756
  139MOL    H5611372   5.962   4.059   2.259 -2.2568 -1.3992 -1.3378
  139MOL    H5711373   6.112   4.067   2.174  0.1422  0.8329  0.1186
  139MOL    C5811374   6.238   3.896   2.320  0.3769  0.3627 -0.3844
  139MOL    O5911375   6.324   4.002   2.281 -0.0860 -0.0176 -0.2032
  139MOL    H6011376   6.240   3.829   2.234  1.6713 -1.6828  1.1603
  139MOL    H6111377   6.272   3.845   2.411  2.0907  3.0298  0.5361
  139MOL    C6211378   6.375   4.081   2.389  0.1297  0.9606 -0.3314
  139MOL    O6311379   6.471   4.014   2.466  0.7316  0.4510 -0.5838
  139MOL    H6411380   6.292   4.110   2.453  1.7588  0.5971  2.0245
  139MOL    H6511381   6.409   4.175   2.346 -2.0607  2.1128  0.3745
  139MOL    C6611382   6.592   3.998   2.396 -0.2708  0.1638 -0.1875
  139MOL    O6711383   6.650   4.118   2.398 -0.1775  0.2219  0.3956
  139MOL    H6811384   6.578   3.955   2.297 -1.3055 -0.9162  0.4109
  139MOL    H6911385   6.658   3.933   2.455  0.0706  0.4741 -0.2294
  139MOL    C7011386   6.674   4.176   2.527  0.1196 -0.1565 -0.2660
  139MOL    O7111387   6.778   4.101   2.598 -0.1924 -0.0119  0.3600
  139MOL    H7211388   6.579   4.185   2.578 -0.8509  0.3244 -2.1222
  139MOL    H7311389   6.709   4.278   2.511  1.5874 -0.3762  1.3861
  139MOL    C7411390   6.897   4.172   2.587 -0.4672  0.0007  0.2363
  139MOL    O7511391   6.898   4.279   2.680  0.7199 -0.4503  0.0478
  139MOL    H7611392   6.918   4.209   2.487  1.2402 -2.0293 -0.1861
  139MOL    H7711393   6.982   4.106   2.608 -0.2995  0.1981  0.1763
  139MOL    C7811394   6.888   4.243   2.807 -0.4063  0.4253  0.0090
  139MOL    O7911395   6.958   4.337   2.882  0.4068  0.6141 -0.0642
  139MOL    H8011396   6.936   4.147   2.829 -2.2388 -0.8093 -1.2603
  139MOL    H8111397   6.786   4.229   2.842 -0.7575  1.4845 -0.5803
  139MOL    H8211398   7.051   4.329   2.863  0.0302  0.1894 -1.7793
  140MOL     C111399   6.731   0.172   4.700  0.4634 -0.3904  0.2181
  140MOL     O211400   6.873   0.172   4.703 -0.5853 -0.0624  0.1945
  140MOL     H311401   6.696   0.257   4.640  0.4612 -1.8816 -1.9856
  140MOL     H411402   6.698   0.083   4.645 -0.5527 -0.1880  0.4856
  140MOL     H511403   6.683   0.195   4.795 -1.1547 -0.4098 -0.5696
  140MOL     C611404   6.922   0.064   4.782 -0.3682  0.1107 -0.5378
  140MOL     O711405   6.882   0.051   4.916  0.3079  0.3205  0.0641
  140MOL     H811406   7.030   0.055   4.769 -0.3690 -2.0750  0.7346
  140MOL     H911407   6.884   7.754   4.740  1.4496 -0.9034  0.0024
  140MOL    C1011408   6.932   0.157   4.995 -0.3583 -0.1383 -0.6702
  140MOL    O1111409   7.060   0.119   5.045  0.2009  0.3630  0.9552
  140MOL    H1211410   6.856   0.164   5.072 -1.8215 -1.1870 -1.9705
  140MOL    H1311411   6.926   0.248   4.936 -0.8313  0.0637 -0.3065
  140MOL    C1411412   7.055   0.044   5.165 -0.1620  0.2001 -0.2166
  140MOL    O1511413   7.011   0.113   5.280  0.1176  0.0389 -0.2675
  140MOL    H1611414   7.156   0.011   5.190 -0.5555  1.4679  3.2801
  140MOL    H1711415   6.990   7.741   5.147  1.1592 -0.8710  0.0532
  140MOL    C1811416   7.086   0.225   5.310  0.5059 -0.0501  0.3213
  140MOL    O1911417   7.040   0.292   5.419  0.2122 -1.3750 -0.0620
  140MOL    H2011418   7.102   0.283   5.219  0.2385  0.3552  0.5322
  140MOL    H2111419   7.186   0.191   5.338 -1.2964 -3.4420  2.9295
  140MOL    C2211420   6.926   0.367   5.391  0.0861 -0.4810  0.1484
  140MOL    O2311421   6.945   0.456   5.281  0.1162 -0.0046  0.3201
  140MOL    H2411422   6.896   0.418   5.482  0.3605  0.5336 -0.3294
  140MOL    H2511423   6.848   0.296   5.363  0.1968 -1.0736  1.3367
  140MOL    C2611424   7.043   0.546   5.311  0.7373 -0.8468  0.1058
  140MOL    O2711425   6.972   0.642   5.378 -0.1318 -0.5865  0.4633
  140MOL    H2811426   7.067   0.581   5.211 -3.2530  0.5112 -0.4530
  140MOL    H2911427   7.138   0.506   5.349  0.7539 -1.3258 -0.4316
  140MOL    C3011428   7.048   0.753   5.413 -0.1359  0.0932  0.3744
  140MOL    O3111429   7.124   0.727   5.522  0.4432 -0.2662 -0.5545
  140MOL    H3211430   6.976   0.830   5.442  0.1901  0.2029  0.8867
  140MOL    H3311431   7.113   0.794   5.335  1.1413  0.4933  1.6343
  140MOL    C3411432   7.211   0.820   5.556  0.1682  0.4911  0.7905
  140MOL    O3511433   7.311   0.847   5.459 -0.2147  0.3109  0.8758
  140MOL    H3611434   7.259   0.788   5.648  2.1304 -0.5951 -0.5885
  140MOL    H3711435   7.156   0.913   5.572  2.7658  1.9427  1.5511
  140MOL    C3811436   7.413   0.754   5.438 -0.5221 -0.9017  0.1225
  140MOL    O3911437   7.509   0.811   5.356 -0.6069 -0.3739  0.0986
  140MOL    H4011438   7.371   0.666   5.389  0.5376 -0.6689 -1.2424
  140MOL    H4111439   7.456   0.740   5.538 -0.6333  1.7727  0.5801
  140MOL    C4211440   7.474   0.823   5.224  0.2028  0.1781  0.1816
  140MOL    O4311441   7.475   0.700   5.166  0.1026  0.2998  0.3139
  140MOL    H4411442   7.546   0.891   5.176 -1.1829  0.6718 -1.2406
  140MOL    H4511443   7.372   0.861   5.219  0.5313  1.1243  0.4056
  140MOL    C4611444   7.597   0.646   5.149  0.2030 -0.0648 -0.3972
  140MOL    O4711445   7.691   0.727   5.080  0.2106  0.8741 -0.6083
  140MOL    H4811446   7.585   0.547   5.107 -2.0002  0.1662 -0.3496
  140MOL    H4911447   7.639   0.629   5.248  0.0063 -2.0895 -0.6375
  140MOL    C5011448   7.682   0.719   4.937 -0.1512  0.0374  0.0312
  140MOL    O5111449   7.568   0.777   4.890 -0.2255  0.3117 -0.7980
  140MOL    H5211450   7.706   0.620   4.899  0.1749  0.3455 -0.5658
  140MOL    H5311451   7.762   0.782   4.899  0.3982  0.6961  2.2183
  140MOL    C5411452   7.558   0.755   4.753 -0.1173 -0.5542 -0.1838
  140MOL    O5511453   7.657   0.819   4.691 -0.0240 -0.2680  0.0322
  140MOL    H5611454   7.462   0.798   4.723  0.1231  0.6810  0.7574
  140MOL    H5711455   7.557   0.649   4.727  0.2897 -0.3529 -1.0506
  140MOL    C5811456   7.653   0.783   4.556  0.1046 -0.0995 -0.3034
  140MOL    O5911457   7.709   0.660   4.540 -0.1607  0.1713  0.2880
  140MOL    H6011458   7.715   0.854   4.501 -0.3276 -1.2696 -2.3477
  140MOL    H6111459   7.556   0.778   4.508 -0.4109  0.9470  0.5900
  140MOL    C6211460   0.067   0.659   4.540 -0.0835 -0.5788  0.5949
  140MOL    O6311461   0.119   0.530   4.536  0.2848 -0.1715 -0.0142
  140MOL    H6411462   0.102   0.721   4.622  0.2217  0.9757 -0.6801
  140MOL    H6511463   0.101   0.700   4.445  1.1699 -0.7529  0.9621
  140MOL    C6611464   0.113   0.463   4.660  0.3809 -0.0999  0.0721
  140MOL    O6711465   0.228   0.504   4.730 -0.2648 -0.2091 -0.0537
  140MOL    H6811466   0.112   0.355   4.646  1.6412  0.2985 -3.8813
  140MOL    H6911467   0.022   0.489   4.714 -0.3090  1.6275 -1.8356
  140MOL    C7011468   0.345   0.441   4.676  0.4607 -0.4066 -0.1373
  140MOL    O7111469   0.344   0.305   4.683 -0.4948 -0.6691  0.3667
  140MOL    H7211470   0.433   0.492   4.715  2.4983 -2.1739 -2.2498
  140MOL    H7311471   0.331   0.465   4.570 -1.6651  0.0037  0.2033
  140MOL    C7411472   0.407   0.259   4.796  0.2339  0.3426  0.1141
  140MOL    O7511473   0.545   0.285   4.800 -0.6250  0.1865 -0.2132
  140MOL    H7611474   0.389   0.152   4.807  0.5603  0.2095 -0.5623
  140MOL    H7711475   0.361   0.296   4.887 -0.9366 -0.8199  0.0070
  140MOL    C7811476   0.621   0.194   4.726  0.3374 -0.8071  0.0717
  140MOL    O7911477   0.761   0.206   4.766  0.2395  0.4320 -0.3126
  140MOL    H8011478   0.611   0.235   4.626 -2.1152  0.2402  0.7022
  140MOL    H8111479   0.585   0.091   4.732 -0.1368 -0.5844  1.1542
  140MOL    H8211480   0.789   0.296   4.751  1.0537  0.8573  3.3062
  141MOL     C111481   0.853   5.417   1.380  0.6994  0.5825  0.3072
  141MOL     O211482   0.831   5.549   1.419 -0.3043 -0.1382 -0.4363
  141MOL     H311483   0.810   5.407   1.280 -0.8461  0.1675  0.9957
  141MOL     H411484   0.958   5.389   1.377  0.5958  0.3103 -1.0001
  141MOL     H511485   0.789   5.350   1.438 -0.0502  1.0011 -0.0221
  141MOL     C611486   0.909   5.646   1.356 -0.3234  0.3443 -0.4854
  141MOL     O711487   1.040   5.654   1.408 -0.8817 -0.1644  0.0033
  141MOL     H811488   0.868   5.747   1.360 -1.6890 -0.2237  0.1083
  141MOL     H911489   0.911   5.613   1.252  0.0809 -3.3259  0.6235
  141MOL    C1011490   1.048   5.700   1.540  0.0870  0.4308 -0.4220
  141MOL    O1111491   1.012   5.602   1.624  0.6221 -0.3719  0.6252
  141MOL    H1211492   0.989   5.791   1.548  2.3573  1.8901  0.3824
  141MOL    H1311493   1.151   5.733   1.554  0.4614  0.3521 -2.8750
  141MOL    C1411494   1.110   5.500   1.642 -0.0274 -0.4277  0.7158
  141MOL    O1511495   1.222   5.534   1.717 -0.4240  0.4510  0.2438
  141MOL    H1611496   1.142   5.463   1.545  1.9977  1.2938  0.6942
  141MOL    H1711497   1.056   5.413   1.679 -2.4168  1.3977  1.6789
  141MOL    C1811498   1.199   5.528   1.854  0.2449  0.1652 -0.1040
  141MOL    O1911499   1.301   5.573   1.939  0.2168  0.3078 -0.8460
  141MOL    H2011500   1.175   5.425   1.881 -2.1670  0.9045  0.7350
  141MOL    H2111501   1.118   5.601   1.865 -0.1323 -0.4740  1.5376
  141MOL    C2211502   1.406   5.485   1.946 -0.3599 -0.3019  1.0732
  141MOL    O2311503   1.409   5.423   2.073 -0.1077  0.2074  0.2971
  141MOL    H2411504   1.492   5.551   1.932 -0.3701 -0.9570 -2.4805
  141MOL    H2511505   1.414   5.408   1.869  0.3744  0.0852  0.7600
  141MOL    C2611506   1.524   5.343   2.082  0.3397 -0.2718 -0.0085
  141MOL    O2711507   1.515   5.233   2.002  0.0989  0.5297  0.2497
  141MOL    H2811508   1.537   5.307   2.184  2.6907  0.4792  0.0012
  141MOL    H2911509   1.609   5.403   2.050  1.4027 -1.5205  0.4194
  141MOL    C3011510   1.442   5.136   2.055  0.3023 -0.4467 -0.4565
  141MOL    O3111511   1.511   5.071   2.155  0.0110 -0.2329 -0.1284
  141MOL    H3211512   1.407   5.061   1.984  0.5502 -0.6932 -0.3171
  141MOL    H3311513   1.354   5.176   2.106 -0.5686 -0.9320 -1.5627
  141MOL    C3411514   1.599   4.974   2.112  0.6793  0.6842 -0.4237
  141MOL    O3511515   1.528   4.873   2.048  0.3107  0.2256  0.2019
  141MOL    H3611516   1.653   4.937   2.198 -0.3219  0.7137  0.2228
  141MOL    H3711517   1.669   5.013   2.038 -0.5446 -0.9700 -2.5055
  141MOL    C3811518   1.617   4.798   1.979  0.0981  0.6439  0.3028
  141MOL    O3911519   1.626   4.848   1.851 -0.4326  0.1292  0.1747
  141MOL    H4011520   1.569   4.701   1.965 -1.3976  0.9786  2.8360
  141MOL    H4111521   1.714   4.770   2.021 -1.2379 -1.5498  2.0229
  141MOL    C4211522   1.510   4.825   1.770  0.1664  0.3269  0.0981
  141MOL    O4311523   1.467   4.690   1.749 -0.0808  0.3784 -0.1285
  141MOL    H4411524   1.529   4.884   1.681  0.7664  0.8170  0.5458
  141MOL    H4511525   1.428   4.886   1.808  1.4544  2.3278 -0.2978
  141MOL    C4611526   1.481   4.643   1.622  0.2593  0.3138  0.4685
  141MOL    O4711527   1.428   4.725   1.525  0.1597  0.5399  0.0427
  141MOL    H4811528   1.447   4.540   1.613  1.1190  0.1290 -0.8285
  141MOL    H4911529   1.589   4.659   1.612 -0.0013  0.5685 -2.1104
  141MOL    C5011530   1.285   4.731   1.555 -0.4263  0.4755  0.6520
  141MOL    O5111531   1.224   4.606   1.537  0.0512 -0.3291  0.1758
  141MOL    H5211532   1.248   4.794   1.474  3.0537 -0.5703 -1.8802
  141MOL    H5311533   1.262   4.778   1.651 -1.4670  0.1017  0.5890
  141MOL    C5411534   1.096   4.597   1.587  0.3774 -0.0915  0.7988
  141MOL    O5511535   0.998   4.673   1.522  0.1157 -0.1525 -0.1469
  141MOL    H5611536   1.098   4.628   1.691 -0.6756  0.3559  0.6967
  141MOL    H5711537   1.053   4.497   1.584  3.2988 -1.4294  2.1520
  141MOL    C5811538   0.873   4.677   1.587  0.4915 -0.0103 -0.2911
  141MOL    O5911539   0.802   4.553   1.584  0.6670  0.0391 -0.4879
  141MOL    H6011540   0.809   4.752   1.541 -1.4560 -0.0456  2.2302
  141MOL    H6111541   0.884   4.711   1.690 -0.6756  1.1021 -0.5243
  141MOL    C6211542   0.696   4.543   1.673  0.3115 -0.3131 -0.1312
  141MOL    O6311543   0.743   4.555   1.800  0.3557 -0.0939 -0.2594
  141MOL    H6411544   0.655   4.443   1.665 -2.3154  0.6336  0.9526
  141MOL    H6511545   0.631   4.629   1.659  2.5378  1.5811  0.7571
  141MOL    C6611546   0.641   4.573   1.895  0.9654 -0.1398 -0.3645
  141MOL    O6711547   0.696   4.601   2.023 -0.0699 -0.2770 -0.1927
  141MOL    H6811548   0.574   4.489   1.884 -0.7930  1.1839  0.0664
  141MOL    H6911549   0.574   4.653   1.866 -1.3302 -1.7803  0.3194
  141MOL    C7011550   0.751   4.729   2.036  0.1982 -0.0707  0.1580
  141MOL    O7111551   0.646   4.824   2.047 -0.4084 -0.8668  0.0154
  141MOL    H7211552   0.819   4.739   1.951 -2.2741 -1.0736 -1.9996
  141MOL    H7311553   0.817   4.717   2.122 -0.8219  0.7100  1.0514
  141MOL    C7411554   0.619   4.857   2.185  0.2156 -0.1802  0.0158
  141MOL    O7511555   0.579   4.742   2.250  0.5335  0.0288  0.3503
  141MOL    H7611556   0.544   4.935   2.195 -0.1493 -0.6177  0.7376
  141MOL    H7711557   0.711   4.896   2.230  0.4918  1.7880 -2.1327
  141MOL    C7811558   0.452   4.698   2.206  0.6616  0.1498  0.1860
  141MOL    O7911559   0.424   4.568   2.249  0.1647 -0.1068  0.5295
  141MOL    H8011560   0.441   4.695   2.098 -0.3461 -1.1069  0.3105
  141MOL    H8111561   0.368   4.765   2.229 -0.1647 -0.9490  0.4008
  141MOL    H8211562   0.480   4.508   2.202 -0.3639  2.2203 -3.3428
  142MOL     C111563   7.648   2.207   3.388  0.6518  0.0967 -0.3032
  142MOL     O211564   7.662   2.293   3.501 -0.7714  0.1766 -0.2692
  142MOL     H311565   7.739   2.186   3.332 -0.0189  0.9201 -1.7320
  142MOL     H411566   7.607   2.110   3.418 -1.2693  1.8444  3.0560
  142MOL     H511567   7.583   2.266   3.324 -1.5283 -0.4392  1.3547
  142MOL     C611568   7.759   2.245   3.589  0.6677 -0.1164 -1.1150
  142MOL     O711569   7.705   2.150   3.678  0.0403 -0.5345  0.0717
  142MOL     H811570   7.781   2.325   3.659 -0.5310 -1.9140  1.3666
  142MOL     H911571   0.070   2.222   3.541 -0.1578 -1.1860 -2.2667
  142MOL    C1011572   7.595   2.195   3.749 -0.6349 -0.4612 -0.0129
  142MOL    O1111573   7.627   2.279   3.855 -0.5091  1.2085  0.4072
  142MOL    H1211574   7.527   2.114   3.776  2.6720 -2.6718  1.9864
  142MOL    H1311575   7.532   2.258   3.686  1.1276  1.6242  0.2560
  142MOL    C1411576   7.639   2.212   3.978 -0.0995 -0.0040 -0.4901
  142MOL    O1511577   7.741   2.265   4.057 -0.4492 -0.0714 -0.2382
  142MOL    H1611578   7.655   2.105   3.965  1.1560  0.0781  0.2996
  142MOL    H1711579   7.543   2.228   4.028 -0.0379 -0.3184 -0.2675
  142MOL    C1811580   0.080   2.208   4.030 -0.1008  0.1701  0.1178
  142MOL    O1911581   0.089   2.073   4.064  0.2975 -0.3060 -0.0272
  142MOL    H2011582   0.146   2.273   4.087  0.2626  0.7191 -0.9105
  142MOL    H2111583   0.109   2.215   3.925 -1.2754 -1.3590 -0.3221
  142MOL    C2211584   0.217   2.023   4.054  0.2806 -1.0718 -0.3262
  142MOL    O2311585   0.277   2.046   3.928  0.4125 -0.2853 -0.0311
  142MOL    H2411586   0.226   1.918   4.083  0.2920 -1.1676 -0.6630
  142MOL    H2511587   0.260   2.076   4.139 -2.2621  1.7358 -0.7126
  142MOL    C2611588   0.220   1.979   3.820  0.1829  0.6067 -0.7371
  142MOL    O2711589   0.316   1.884   3.784  0.2036 -0.4398 -0.0115
  142MOL    H2811590   0.208   2.035   3.728 -2.8682  2.2037  0.5915
  142MOL    H2911591   0.131   1.926   3.853  1.2743 -1.0690 -0.3816
  142MOL    C3011592   0.295   1.826   3.662  0.0641  0.0095  0.2944
  142MOL    O3111593   0.347   1.912   3.567 -0.6659  0.4731  0.3446
  142MOL    H3211594   0.189   1.804   3.649  0.2540 -1.0831  0.5489
  142MOL    H3311595   0.360   1.738   3.657  0.7359  0.5354 -0.3412
  142MOL    C3411596   0.330   1.867   3.434 -0.1386 -1.1282  0.0987
  142MOL    O3511597   0.189   1.855   3.406 -0.2562  0.2295  0.2130
  142MOL    H3611598   0.371   1.766   3.434  0.3486 -0.9420  2.2676
  142MOL    H3711599   0.388   1.923   3.360 -2.4369  0.3957 -0.5989
  142MOL    C3811600   0.133   1.978   3.391  0.3889 -0.2048 -1.1077
  142MOL    O3911601   0.126   2.025   3.257 -0.0795 -0.3147  0.0305
  142MOL    H4011602   0.191   2.050   3.450 -1.9322  2.4279 -1.9130
  142MOL    H4111603   0.031   1.986   3.430 -0.2388  3.1784 -3.1879
  142MOL    C4211604   0.062   1.938   3.171  0.0032 -0.2804 -0.2574
  142MOL    O4311605   7.720   1.980   3.136 -0.0800  0.0179  0.1547
  142MOL    H4411606   0.054   1.835   3.204  1.3048 -0.4006 -0.2948
  142MOL    H4511607   0.116   1.924   3.078  0.6295 -2.8405  0.4682
  142MOL    C4611608   7.705   2.086   3.039 -0.5503 -0.8366 -0.3466
  142MOL    O4711609   7.764   2.054   2.913  0.5292  0.2009  0.0462
  142MOL    H4811610   7.760   2.172   3.077 -1.6433 -1.0930  1.8706
  142MOL    H4911611   7.597   2.105   3.033 -0.4383  0.8657  2.1059
  142MOL    C5011612   7.702   1.952   2.843  0.1629  0.6091  0.1015
  142MOL    O5111613   7.579   1.997   2.801  0.7670  0.2907 -0.1940
  142MOL    H5211614   7.693   1.860   2.901  2.3568  1.3290  1.6506
  142MOL    H5311615   7.769   1.931   2.760  1.5615  0.0539  1.3326
  142MOL    C5411616   7.575   2.047   2.671  0.5124 -0.6880 -0.5010
  142MOL    O5511617   7.614   1.950   2.579 -0.2530  0.3509  0.1213
  142MOL    H5611618   7.623   2.144   2.660  1.1998 -1.0272 -0.4628
  142MOL    H5711619   7.466   2.058   2.663  0.7799  1.1562 -1.8166
  142MOL    C5811620   7.531   1.841   2.581  0.7909 -0.3584  0.1786
  142MOL    O5911621   7.398   1.861   2.540  0.1426  0.0740  0.6950
  142MOL    H6011622   7.531   1.803   2.683  0.3356 -0.0884  0.2816
  142MOL    H6111623   7.562   1.757   2.519  1.7995  0.2573 -0.1595
  142MOL    C6211624   7.397   1.893   2.401 -0.0575  0.1044  0.3480
  142MOL    O6311625   7.446   1.799   2.310 -1.1942  0.2042 -0.1666
  142MOL    H6411626   7.454   1.984   2.388 -1.3885  1.2400  2.3099
  142MOL    H6511627   7.300   1.929   2.367  0.3201 -0.4212 -1.3636
  142MOL    C6611628   7.388   1.674   2.321  0.1422 -0.0033 -0.8416
  142MOL    O6711629   7.251   1.665   2.287  0.0536  0.2192  0.0805
  142MOL    H6811630   7.396   1.628   2.419 -1.6805 -1.9842 -1.5846
  142MOL    H6911631   7.442   1.605   2.257  1.5378  1.1145 -0.8916
  142MOL    C7011632   7.163   1.623   2.386 -0.1546 -0.3796  0.5245
  142MOL    O7111633   7.189   1.494   2.429  0.1733  0.1389 -0.8534
  142MOL    H7211634   7.060   1.642   2.357 -0.2962  0.2559  1.4325
  142MOL    H7311635   7.199   1.687   2.467  1.7856  1.2613 -1.5739
  142MOL    C7411636   7.177   1.403   2.324 -0.0364 -0.0896 -0.2083
  142MOL    O7511637   7.045   1.405   2.269  0.1662 -0.4727 -0.0433
  142MOL    H7611638   7.209   1.305   2.359  1.3882  0.4446  0.0216
  142MOL    H7711639   7.247   1.426   2.243  0.7275  0.1475  0.5108
  142MOL    C7811640   6.959   1.344   2.357 -0.7708 -0.6245  0.3150
  142MOL    O7911641   6.824   1.360   2.321 -0.1486 -0.5143 -0.1952
  142MOL    H8011642   6.962   1.396   2.453 -0.6175 -0.0890  0.0217
  142MOL    H8111643   6.977   1.237   2.364 -0.8861 -0.6660 -0.0010
  142MOL    H8211644   6.785   1.274   2.328 -2.8325  0.7244  0.8783
  143MOL     C111645   2.246   4.227   2.305  0.6946  0.4508 -0.1299
  143MOL     O211646   2.331   4.150   2.220  0.6984 -0.3805  0.2129
  143MOL     H311647   2.153   4.233   2.247 -1.2266 -2.5134  2.4752
  143MOL     H411648   2.227   4.156   2.385  1.7715  2.5239  2.0286
  143MOL     H511649   2.268   4.324   2.348  0.8620  0.5842 -0.5144
  143MOL     C611650   2.460   4.193   2.230 -0.4347  0.8710 -0.1027
  143MOL     O711651   2.511   4.171   2.363  0.1676 -0.1890 -0.1369
  143MOL     H811652   2.448   4.299   2.211 -1.9824  1.0570  1.7793
  143MOL     H911653   2.537   4.148   2.167  0.3961  0.8089  0.9253
  143MOL    C1011654   2.511   4.046   2.405 -0.5877  0.5440  0.2349
  143MOL    O1111655   2.544   4.048   2.541  0.4852  0.1269 -0.1015
  143MOL    H1211656   2.588   3.993   2.350 -0.1290 -0.9923  2.2610
  143MOL    H1311657   2.409   4.010   2.391 -0.8682  1.2865  0.3972
  143MOL    C1411658   2.675   4.063   2.559  0.4825  0.0175 -0.1165
  143MOL    O1511659   2.731   3.940   2.584  0.8192  0.3123 -0.4092
  143MOL    H1611660   2.677   4.121   2.651  1.8667  0.8417 -0.6429
  143MOL    H1711661   2.733   4.114   2.481  0.1215 -0.5742 -0.7831
  143MOL    C1811662   2.705   3.888   2.708 -0.0717 -0.1879  0.6102
  143MOL    O1911663   2.773   3.956   2.807 -0.0685 -0.0530  0.1665
  143MOL    H2011664   2.763   3.796   2.696  0.2457  0.5081 -4.1098
  143MOL    H2111665   2.600   3.874   2.731  0.3152 -0.0977  2.5126
  143MOL    C2211666   2.741   3.897   2.933 -0.4208  0.1684 -0.2415
  143MOL    O2311667   2.772   3.763   2.928 -0.3446  0.2313  0.3416
  143MOL    H2411668   2.636   3.905   2.961 -0.6303 -2.0479 -0.2944
  143MOL    H2511669   2.797   3.942   3.014 -1.3164 -1.1071  1.1242
  143MOL    C2611670   2.902   3.737   2.965  0.3553 -0.5513  0.1565
  143MOL    O2711671   2.928   3.758   3.097  0.6570  0.0472 -0.1252
  143MOL    H2811672   2.969   3.803   2.912  0.9248  1.0523  2.7894
  143MOL    H2911673   2.917   3.635   2.929 -2.1479 -0.5056 -1.1797
  143MOL    C3011674   2.868   3.665   3.180 -0.1410 -0.0195  0.2751
  143MOL    O3111675   2.936   3.546   3.189  0.0024  0.2805  0.3038
  143MOL    H3211676   2.767   3.639   3.147  0.4053 -1.1863 -0.4942
  143MOL    H3311677   2.848   3.713   3.276  1.6598 -3.3869  2.4279
  143MOL    C3411678   3.044   3.545   3.270 -0.0275  1.0863  0.4666
  143MOL    O3511679   3.010   3.554   3.403 -0.3786 -0.0808 -0.2045
  143MOL    H3611680   3.115   3.618   3.230  0.0305  0.2235 -1.0766
  143MOL    H3711681   3.103   3.457   3.243 -1.0210  0.1849  1.2243
  143MOL    C3811682   2.953   3.442   3.453  0.2147 -0.0428 -0.6471
  143MOL    O3911683   2.976   3.424   3.589 -0.1556  0.0202  0.2222
  143MOL    H4011684   2.987   3.352   3.402  1.2976 -0.1580  0.2547
  143MOL    H4111685   2.844   3.453   3.451 -0.0160 -2.2613 -1.6295
  143MOL    C4211686   3.098   3.369   3.612  0.2061 -0.2530 -0.1526
  143MOL    O4311687   3.092   3.234   3.620 -0.0123 -0.3178 -0.1760
  143MOL    H4411688   3.126   3.421   3.704  2.1328  1.1653 -1.4973
  143MOL    H4511689   3.166   3.410   3.538  0.3518  0.9056  0.6074
  143MOL    C4611690   3.213   3.174   3.576 -0.2295  0.5183 -0.1307
  143MOL    O4711691   3.233   3.196   3.442  0.0407  0.0739 -0.0839
  143MOL    H4811692   3.217   3.069   3.602 -0.9463  0.3302 -0.7555
  143MOL    H4911693   3.292   3.221   3.634 -0.4214 -0.0779  0.6254
  143MOL    C5011694   3.165   3.098   3.363 -0.9420 -0.1422 -0.4211
  143MOL    O5111695   3.234   2.974   3.368 -0.2714  0.2421 -0.5564
  143MOL    H5211696   3.145   3.138   3.264 -2.6257  1.4836  0.5510
  143MOL    H5311697   3.064   3.078   3.399 -1.0590 -1.7052 -1.5852
  143MOL    C5411698   3.328   2.964   3.268  0.6895  0.3056  1.1841
  143MOL    O5511699   3.276   2.945   3.142  0.4669  0.2039 -0.3247
  143MOL    H5611700   3.385   2.880   3.309  0.5067 -0.9315 -1.0466
  143MOL    H5711701   3.380   3.059   3.277 -0.7450  1.2657 -0.3750
  143MOL    C5811702   3.244   2.813   3.116  0.9381 -0.7250  0.4094
  143MOL    O5911703   3.361   2.733   3.115  0.0194  0.2340 -0.1888
  143MOL    H6011704   3.197   2.806   3.018  1.8898  1.3522 -0.2341
  143MOL    H6111705   3.173   2.773   3.188 -0.3852  0.3643 -0.2785
  143MOL    C6211706   3.426   2.726   2.992  0.5800 -0.3865 -0.2591
  143MOL    O6311707   3.449   2.588   2.965 -0.3741 -0.1642  0.2606
  143MOL    H6411708   3.520   2.780   3.003  1.4334 -1.7404 -0.8870
  143MOL    H6511709   3.373   2.771   2.908  1.2934 -1.1961 -1.1536
  143MOL    C6611710   3.328   2.527   2.931 -0.5443 -0.2822 -1.0147
  143MOL    O6711711   3.300   2.532   2.802  0.3560 -0.0630  0.7293
  143MOL    H6811712   3.245   2.579   2.978  1.1494  0.1626  1.5967
  143MOL    H6911713   3.329   2.422   2.960 -3.5321  0.2904  1.4980
  143MOL    C7011714   3.328   2.420   2.724  0.1530  0.3783 -0.1942
  143MOL    O7111715   3.254   2.304   2.754  0.6805  0.3337 -0.2305
  143MOL    H7211716   3.430   2.385   2.737  0.3527  0.8143 -0.5741
  143MOL    H7311717   3.318   2.461   2.623  2.6188  0.1497 -0.5582
  143MOL    C7411718   3.288   2.196   2.666  0.0804  0.5570 -0.4797
  143MOL    O7511719   3.189   2.185   2.563  0.2021  0.3700  0.1352
  143MOL    H7611720   3.279   2.117   2.740 -0.0004  1.2232  0.2262
  143MOL    H7711721   3.383   2.211   2.614 -0.4729  2.0936 -1.0648
  143MOL    C7811722   3.060   2.190   2.612  0.8632  0.2778 -0.2974
  143MOL    O7911723   2.979   2.154   2.504  0.1373 -0.4099 -0.6653
  143MOL    H8011724   3.026   2.284   2.655 -1.4081 -1.1135  1.0109
  143MOL    H8111725   3.043   2.114   2.688 -0.1872 -0.2380 -1.0373
  143MOL    H8211726   2.976   2.228   2.445 -0.6729 -0.7493 -1.0524
  144MOL     C111727   5.873   3.649   3.856 -0.7605  0.7881  0.1282
  144MOL     O211728   5.860   3.779   3.796  1.0081 -0.9207 -0.0764
  144MOL     H311729   5.847   3.651   3.962  0.6793 -0.2161  0.5012
  144MOL     H411730   5.802   3.582   3.807  0.3868 -1.7410  1.8580
  144MOL     H511731   5.971   3.602   3.852 -2.0696 -2.3080  2.3120
  144MOL     C611732   5.856   3.774   3.655  0.6054 -0.7940 -0.1526
  144MOL     O711733   5.754   3.700   3.596 -0.3462  0.4857  0.4101
  144MOL     H811734   5.946   3.718   3.630  0.2847 -0.3565 -2.3680
  144MOL     H911735   5.858   3.878   3.623  1.1678 -0.9487 -0.6319
  144MOL    C1011736   5.626   3.750   3.593 -0.2492  0.3949 -0.4474
  144MOL    O1111737   5.621   3.876   3.537 -0.0116 -0.1698 -0.0656
  144MOL    H1211738   5.583   3.751   3.693  3.2253 -1.5739  1.1865
  144MOL    H1311739   5.568   3.679   3.534  0.8523 -0.5402 -0.4310
  144MOL    C1411740   5.631   3.869   3.395 -0.2807 -0.1314 -0.6974
  144MOL    O1511741   5.510   3.833   3.328 -0.2971 -0.2409  0.3011
  144MOL    H1611742   5.711   3.797   3.378  0.5102  0.6695 -0.4181
  144MOL    H1711743   5.665   3.966   3.359 -2.8151  0.3797 -1.7713
  144MOL    C1811744   5.399   3.906   3.380 -0.2027 -0.1717 -0.7057
  144MOL    O1911745   5.338   3.969   3.277  0.2718 -0.0438  0.4861
  144MOL    H2011746   5.438   3.983   3.447 -2.7762  1.0246 -0.5161
  144MOL    H2111747   5.331   3.842   3.434  0.2510 -0.9423 -1.0403
  144MOL    C2211748   5.237   3.897   3.212  0.2217  0.2889 -0.7088
  144MOL    O2311749   5.179   3.971   3.114 -0.3656 -0.0559  0.2766
  144MOL    H2411750   5.161   3.860   3.280  0.8016 -0.8192 -0.6400
  144MOL    H2511751   5.271   3.806   3.161 -0.2085 -1.2962  1.7339
  144MOL    C2611752   5.087   4.066   3.164 -0.3805 -0.4569  0.0454
  144MOL    O2711753   4.965   4.002   3.192 -0.9727  0.1954  0.5341
  144MOL    H2811754   5.070   4.143   3.090 -0.3372 -0.5896 -0.1013
  144MOL    H2911755   5.126   4.115   3.253  0.3873  1.0895 -1.1253
  144MOL    C3011756   4.876   4.003   3.080  0.3734 -0.1754  0.1367
  144MOL    O3111757   4.936   3.956   2.958 -0.1630 -0.2240  0.3161
  144MOL    H3211758   4.854   4.107   3.059  1.2055  0.0263  0.2324
  144MOL    H3311759   4.775   3.965   3.095  0.1544 -0.1391 -1.1485
  144MOL    C3411760   4.950   3.820   2.955  0.4388 -0.3619 -0.2169
  144MOL    O3511761   4.829   3.746   2.932  0.4205 -0.1322  0.1819
  144MOL    H3611762   4.986   3.784   3.051  1.1009 -2.1605 -1.1142
  144MOL    H3711763   5.034   3.790   2.892  0.8118  0.5466 -0.1729
  144MOL    C3811764   4.853   3.613   2.913 -0.2420  0.5895 -0.1631
  144MOL    O3911765   4.920   3.605   2.789 -0.3745  0.0940  0.3220
  144MOL    H4011766   4.755   3.566   2.905 -0.7071  1.6673 -0.9982
  144MOL    H4111767   4.912   3.559   2.987 -1.9920  1.2837  1.7671
  144MOL    C4211768   4.846   3.650   2.678 -0.1537 -0.4603  0.5680
  144MOL    O4311769   4.788   3.537   2.622  0.7618 -0.8035 -0.0949
  144MOL    H4411770   4.917   3.689   2.606  1.3634 -3.5986  0.2575
  144MOL    H4511771   4.768   3.723   2.698  0.6734  0.5862 -0.0173
  144MOL    C4611772   4.871   3.451   2.547  0.2400 -0.4503 -0.0153
  144MOL    O4711773   4.905   3.504   2.428 -0.3156 -0.1946 -0.2944
  144MOL    H4811774   4.834   3.349   2.532 -1.8055 -0.1037  2.4451
  144MOL    H4911775   4.963   3.440   2.605 -0.5005 -2.0997  0.8956
  144MOL    C5011776   4.794   3.494   2.347  0.1616  0.4426 -0.1032
  144MOL    O5111777   4.797   3.371   2.284 -0.1779 -0.0883  0.2190
  144MOL    H5211778   4.798   3.575   2.275 -1.1350 -0.5960 -1.3619
  144MOL    H5311779   4.703   3.503   2.407 -0.6783  0.7479 -1.4012
  144MOL    C5411780   4.908   3.366   2.199 -0.2586  0.1557 -0.2717
  144MOL    O5511781   4.897   3.275   2.088 -0.0109 -0.1635 -0.3256
  144MOL    H5611782   4.991   3.334   2.263 -1.1647 -0.7614  0.4598
  144MOL    H5711783   4.928   3.461   2.149  1.9772 -0.6280 -0.9288
  144MOL    C5811784   4.873   3.141   2.126  0.6630  0.1967 -0.7352
  144MOL    O5911785   4.984   3.091   2.196 -0.3047  0.2023  0.7773
  144MOL    H6011786   4.848   3.079   2.040  1.8892 -2.5637  0.8167
  144MOL    H6111787   4.789   3.133   2.194 -0.6602  0.3584 -2.3164
  144MOL    C6211788   5.003   2.948   2.200  0.6248 -0.1202  0.2378
  144MOL    O6311789   5.003   2.906   2.335 -0.0616 -0.3207 -0.2693
  144MOL    H6411790   5.094   2.917   2.149  0.5032  0.5133 -0.3690
  144MOL    H6511791   4.916   2.902   2.153 -0.7740  1.1948  1.4581
  144MOL    C6611792   5.114   2.960   2.402 -1.0203  0.2496 -0.4606
  144MOL    O6711793   5.229   2.901   2.357 -0.1372 -0.6378 -0.3266
  144MOL    H6811794   5.106   2.929   2.506  1.7797  0.4624 -0.1427
  144MOL    H6911795   5.117   3.069   2.406 -2.0264  0.2438  0.9145
  144MOL    C7011796   5.269   2.781   2.417 -0.0893 -0.2866  0.2676
  144MOL    O7111797   5.320   2.811   2.545  0.3443 -0.0492  0.9444
  144MOL    H7211798   5.327   2.722   2.347 -0.0688  0.2735 -0.1918
  144MOL    H7311799   5.175   2.732   2.442 -0.8063  1.4753  1.1523
  144MOL    C7411800   5.444   2.865   2.543 -0.0616  0.1445  0.6701
  144MOL    O7511801   5.485   2.884   2.675  0.0016  0.1380 -0.4303
  144MOL    H7611802   5.447   2.957   2.484  0.8063 -0.9193 -1.0044
  144MOL    H7711803   5.510   2.792   2.494  0.2621  1.2421 -0.5397
  144MOL    C7811804   5.425   2.990   2.728 -0.7103 -0.1045  0.1754
  144MOL    O7911805   5.469   3.031   2.844  0.0001 -0.1596 -0.4542
  144MOL    H8011806   5.316   2.979   2.732 -0.7562  0.6417  1.0714
  144MOL    H8111807   5.441   3.074   2.660  0.1381  0.4093  1.0044
  144MOL    H8211808   5.556   3.065   2.826  0.0871 -0.2993 -0.3001
  145MOL     C111809   0.073   4.881   3.069  0.0961  0.3229  0.5941
  145MOL     O211810   0.017   4.895   2.944 -0.3672  0.1204 -0.8444
  145MOL     H311811   0.166   4.938   3.083  0.1380  0.4300 -0.1021
  145MOL     H411812   7.777   4.921   3.131  1.2294  1.2540  1.5001
  145MOL     H511813   0.097   4.781   3.104  0.6625 -0.5374 -2.1397
  145MOL     C611814   0.080   4.827   2.843 -0.4297  0.5978  0.5226
  145MOL     O711815   0.084   4.687   2.860 -0.1518  0.4433  0.0028
  145MOL     H811816   0.179   4.865   2.819 -1.1213 -0.0628 -3.6861
  145MOL     H911817   0.015   4.852   2.759  0.2024  0.1134 -0.1168
  145MOL    C1011818   7.745   4.626   2.894 -0.2528 -0.4515 -0.6235
  145MOL    O1111819   7.736   4.495   2.849  0.0784 -0.2254 -0.0137
  145MOL    H1211820   7.669   4.691   2.851 -0.3560 -0.1778 -0.0383
  145MOL    H1311821   7.742   4.625   3.003  1.0193  0.3706 -0.5706
  145MOL    C1411822   7.704   4.485   2.715  0.9337 -0.2059 -0.1221
  145MOL    O1511823   7.723   4.353   2.668 -0.3167 -0.3064 -0.6896
  145MOL    H1611824   7.756   4.558   2.653  0.3792  1.0080  0.8043
  145MOL    H1711825   7.598   4.510   2.720  0.8515 -0.4101 -0.8260
  145MOL    C1811826   0.076   4.321   2.663 -0.4455  0.2571 -0.2456
  145MOL    O1911827   0.139   4.372   2.553 -0.2358  0.3762  0.0593
  145MOL    H2011828   0.080   4.212   2.661 -0.3271  0.2755 -1.6021
  145MOL    H2111829   0.128   4.344   2.757 -0.9340 -1.8441  0.5626
  145MOL    C2211830   0.277   4.370   2.557  0.2212 -0.3100  0.2231
  145MOL    O2311831   0.327   4.247   2.519 -0.7738  0.3858 -0.7160
  145MOL    H2411832   0.316   4.409   2.651 -0.6251  1.1083 -0.0011
  145MOL    H2511833   0.311   4.444   2.485 -1.5590 -1.3029 -1.6816
  145MOL    C2611834   0.306   4.218   2.385 -0.2639 -0.2954  0.8463
  145MOL    O2711835   0.388   4.297   2.298 -0.1664 -0.3442  0.1253
  145MOL    H2811836   0.203   4.243   2.357  0.0381 -0.5418 -0.5299
  145MOL    H2911837   0.328   4.114   2.364 -0.3013 -0.0357 -0.5453
  145MOL    C3011838   0.521   4.286   2.326  0.3871  0.1558  0.4942
  145MOL    O3111839   0.588   4.354   2.218 -0.1374 -0.1753 -0.6468
  145MOL    H3211840   0.555   4.183   2.339  0.9712  0.1984 -0.6006
  145MOL    H3311841   0.529   4.354   2.410 -0.1725 -0.1196  0.7720
  145MOL    C3411842   0.730   4.322   2.216  0.6362 -0.0527  0.1166
  145MOL    O3511843   0.765   4.181   2.212 -0.2056 -0.0942  0.0426
  145MOL    H3611844   0.766   4.353   2.314 -1.6133  0.3725  0.8418
  145MOL    H3711845   0.777   4.388   2.143  2.1913 -0.4899  0.6936
  145MOL    C3811846   0.748   4.124   2.087  0.0644 -0.1516  0.6986
  145MOL    O3911847   0.611   4.114   2.040 -0.3577  0.5128  0.4009
  145MOL    H4011848   0.794   4.026   2.096  2.3052  0.8489  0.5072
  145MOL    H4111849   0.806   4.192   2.024  1.5258 -0.2149  1.9719
  145MOL    C4211850   0.554   3.991   2.082 -0.3833  0.0739 -0.2897
  145MOL    O4311851   0.587   3.888   1.995 -0.1498  0.5060 -0.0975
  145MOL    H4411852   0.446   4.002   2.091 -0.3588 -0.9296  1.4153
  145MOL    H4511853   0.589   3.953   2.178  2.1672  1.6370 -0.5612
  145MOL    C4611854   0.545   3.920   1.867 -0.2169 -0.6926 -0.3858
  145MOL    O4711855   0.410   3.920   1.855 -0.6888 -0.3016  0.1662
  145MOL    H4811856   0.594   3.843   1.807 -2.0088 -1.8295 -0.4407
  145MOL    H4911857   0.583   4.019   1.843  1.4086 -0.9589  0.9393
  145MOL    C5011858   0.344   3.793   1.880  0.3549  0.0823  0.2184
  145MOL    O5111859   0.336   3.712   1.771 -0.3465 -0.1915 -0.3019
  145MOL    H5211860   0.251   3.807   1.935  1.4306  2.2576  1.5505
  145MOL    H5311861   0.399   3.734   1.953 -0.7475 -0.9104  0.2570
  145MOL    C5411862   0.226   3.732   1.688 -0.1924  0.1539  0.2805
  145MOL    O5511863   0.248   3.848   1.617 -0.3233  0.2003  0.0823
  145MOL    H5611864   0.133   3.739   1.745  0.0629 -2.4052  1.0742
  145MOL    H5711865   0.212   3.647   1.620 -1.9524  0.1527  0.6064
  145MOL    C5811866   0.153   3.864   1.518 -0.2197  0.0911 -0.0505
  145MOL    O5911867   0.035   3.935   1.562 -0.4160  0.1643  0.1430
  145MOL    H6011868   0.136   3.773   1.460  2.1565 -0.6655  0.3777
  145MOL    H6111869   0.193   3.932   1.442 -0.8194 -0.4847 -0.8930
  145MOL    C6211870   0.065   4.053   1.620  0.0849 -0.3718  0.4660
  145MOL    O6311871   7.741   4.093   1.689 -0.5623 -0.0696  0.4609
  145MOL    H6411872   0.097   4.115   1.536  0.2818 -0.5589  0.4026
  145MOL    H6511873   0.153   4.064   1.684  1.4558 -0.0029 -1.4342
  145MOL    C6611874   7.700   4.018   1.802 -0.4378 -0.5140  0.0262
  145MOL    O6711875   7.773   4.030   1.918  0.0451  0.5991  0.5248
  145MOL    H6811876   7.692   3.916   1.764  0.1486 -0.6107  0.1658
  145MOL    H6911877   7.599   4.051   1.828 -0.2968 -0.6040  0.6849
  145MOL    C7011878   7.773   4.155   1.969  0.1750 -0.0114 -0.9717
  145MOL    O7111879   0.109   4.175   2.051 -0.5154 -0.6039 -0.1855
  145MOL    H7211880   7.685   4.172   2.030  1.2855  0.2585  0.5826
  145MOL    H7311881   7.770   4.231   1.891  2.6432  2.4731  1.2638
  145MOL    C7411882   0.228   4.198   1.986 -0.1257 -0.4056 -0.6160
  145MOL    O7511883   0.219   4.325   1.930  0.3707 -0.1453  0.0123
  145MOL    H7611884   0.231   4.121   1.909  1.4839 -0.6031 -0.3867
  145MOL    H7711885   0.312   4.184   2.054  0.5787  2.1718 -0.8845
  145MOL    C7811886   0.303   4.415   1.999  0.5564 -0.8706  0.2380
  145MOL    O7911887   0.307   4.547   1.941 -0.3396  0.3555  0.2282
  145MOL    H8011888   0.407   4.385   1.987  0.6825 -0.1815 -0.3674
  145MOL    H8111889   0.276   4.416   2.105 -1.0390 -0.7498 -0.1603
  145MOL    H8211890   0.224   4.588   1.960 -0.4147  0.6050 -0.6349
  146MOL     C111891   5.689   5.634   0.676 -0.3830  0.9674  0.0515
  146MOL     O211892   5.806   5.693   0.730 -0.4713 -0.3993  0.1514
  146MOL     H311893   5.696   5.620   0.568 -0.7249 -2.1350  0.3941
  146MOL     H411894   5.684   5.536   0.723 -1.6084  0.3745 -1.2662
  146MOL     H511895   5.601   5.684   0.717  0.4861 -0.7190  4.2292
  146MOL     C611896   5.849   5.803   0.654 -0.2656 -0.2373  0.1693
  146MOL     O711897   5.748   5.905   0.647 -0.4838 -0.1758  0.0985
  146MOL     H811898   5.886   5.769   0.557  1.7621 -0.6957  1.0714
  146MOL     H911899   5.942   5.834   0.701  0.0887  1.0207 -1.3174
  146MOL    C1011900   5.734   5.968   0.769 -0.6356  0.3557  0.3519
  146MOL    O1111901   5.845   6.036   0.818  0.3158  0.2141 -0.2774
  146MOL    H1211902   5.722   5.889   0.843 -0.8171 -0.2344 -0.3026
  146MOL    H1311903   5.638   6.021   0.772 -0.7090  0.2447 -0.0633
  146MOL    C1411904   5.895   6.129   0.730  0.7572 -0.1735  0.7581
  146MOL    O1511905   6.010   6.191   0.792  0.0674  0.5269  0.0035
  146MOL    H1611906   5.838   6.220   0.713  2.6378  1.0992  1.0312
  146MOL    H1711907   5.905   6.074   0.637  1.3217  0.6968  0.2884
  146MOL    C1811908   6.124   6.122   0.765 -0.4728  0.0942 -0.0783
  146MOL    O1911909   6.156   6.126   0.628 -0.6375 -0.7816  0.5660
  146MOL    H2011910   6.116   6.021   0.804 -2.7006  1.0889  2.1337
  146MOL    H2111911   6.216   6.159   0.810  0.2324  0.3129 -1.6581
  146MOL    C2211912   6.220   6.240   0.605  0.0848  0.1417 -0.0211
  146MOL    O2311913   6.357   6.224   0.627  0.3522 -0.4351  0.4976
  146MOL    H2411914   6.186   6.323   0.668 -1.8953 -1.7501  1.4587
  146MOL    H2511915   6.199   6.278   0.505 -1.5475  1.2937  0.7287
  146MOL    C2611916   6.427   6.154   0.531  0.8200 -0.3345  0.4000
  146MOL    O2711917   6.458   6.226   0.415 -0.7137  0.2568 -0.3354
  146MOL    H2811918   6.364   6.073   0.497  0.7879 -0.6799  1.2616
  146MOL    H2911919   6.524   6.128   0.573  1.3196  1.2921  0.3083
  146MOL    C3011920   6.534   6.348   0.442 -0.4055  0.1616  0.4129
  146MOL    O3111921   6.648   6.331   0.519 -0.4647  0.6751 -0.0912
  146MOL    H3211922   6.469   6.429   0.477 -0.8221  0.4577 -1.0197
  146MOL    H3311923   6.565   6.377   0.342  1.2575  0.3959  0.9872
  146MOL    C3411924   6.657   6.411   0.634 -0.1183 -0.2155 -0.0201
  146MOL    O3511925   6.665   6.547   0.593  0.1873 -0.3716  0.2004
  146MOL    H3611926   6.738   6.385   0.701  0.2279  0.0015 -0.3481
  146MOL    H3711927   6.562   6.390   0.684  0.8778  0.5494  2.2550
  146MOL    C3811928   6.797   6.587   0.559 -0.6733  0.0403 -0.1235
  146MOL    O3911929   6.861   6.637   0.671  0.4573  0.3380 -0.0306
  146MOL    H4011930   6.782   6.660   0.481 -3.0847  0.1812  0.4200
  146MOL    H4111931   6.858   6.504   0.523 -1.1314  0.0291 -0.8657
  146MOL    C4211932   6.971   6.714   0.633  0.0115 -0.0538 -0.2964
  146MOL    O4311933   6.938   6.837   0.577  0.2970  0.3254  0.0634
  146MOL    H4411934   7.031   6.646   0.572  0.4419 -0.4726  0.5695
  146MOL    H4511935   7.027   6.725   0.726 -1.4058  1.0175  0.4513
  146MOL    C4611936   6.920   6.941   0.666 -0.3880  0.4290 -0.5059
  146MOL    O4711937   7.038   6.977   0.730 -0.4913 -0.9068  0.5320
  146MOL    H4811938   6.861   6.915   0.754  0.2234  3.2687  0.7830
  146MOL    H4911939   6.872   7.028   0.619 -0.4294  0.9354  0.4688
  146MOL    C5011940   7.138   7.027   0.648 -0.2774  0.2073  0.2047
  146MOL    O5111941   7.124   7.167   0.642  0.3760  0.1861 -0.0130
  146MOL    H5211942   7.127   6.983   0.549  0.3121 -0.9643  0.6567
  146MOL    H5311943   7.236   6.994   0.681  0.0336  1.9128  1.0576
  146MOL    C5411944   7.177   7.230   0.757  0.1213  0.5966 -0.7639
  146MOL    O5511945   7.312   7.192   0.773  0.3126 -0.3573  0.2394
  146MOL    H5611946   7.124   7.197   0.846 -0.9744  0.5280 -1.4349
  146MOL    H5711947   7.173   7.338   0.747  1.4850  0.7252 -0.0174
  146MOL    C5811948   7.391   7.255   0.680  0.1682  0.2924  0.3441
  146MOL    O5911949   7.411   7.394   0.712 -0.3843 -0.0353 -0.1523
  146MOL    H6011950   7.348   7.247   0.581 -0.3726  0.5558  0.5539
  146MOL    H6111951   7.488   7.206   0.675  0.1870  0.2440  1.0407
  146MOL    C6211952   7.507   7.414   0.809  0.9246 -0.6565 -0.5936
  146MOL    O6311953   7.637   7.418   0.746  0.2872 -0.4736 -0.3746
  146MOL    H6411954   7.503   7.337   0.886 -2.0095 -0.1243 -0.1546
  146MOL    H6511955   7.514   7.503   0.870 -1.6077 -0.7034 -0.2103
  146MOL    C6611956   7.654   7.499   0.635  0.7405 -0.6616  0.5364
  146MOL    O6711957   7.782   7.514   0.589  0.4348  0.8665 -0.7050
  146MOL    H6811958   7.603   7.594   0.649  2.2651  0.4549 -1.1758
  146MOL    H6911959   7.597   7.452   0.556  0.8331  0.5407 -0.2585
  146MOL    C7011960   0.075   7.591   0.665 -0.0106  0.2485 -0.7822
  146MOL    O7111961   0.071   7.726   0.619 -0.4412  0.3484 -0.1678
  146MOL    H7211962   0.179   7.560   0.665  0.1832  0.8845  0.5460
  146MOL    H7311963   0.050   7.584   0.771  3.9453  0.5692  0.2494
  146MOL    C7411964   0.168   0.030   0.680 -0.0438 -0.3838  0.7844
  146MOL    O7511965   0.299   7.773   0.659 -0.3099 -0.1693  0.3688
  146MOL    H7611966   0.147   0.029   0.787 -0.4959 -1.3983  0.6982
  146MOL    H7711967   0.149   0.133   0.650 -0.4534 -0.6415  0.1267
  146MOL    C7811968   0.337   7.777   0.522  0.2847  0.8007 -0.3407
  146MOL    O7911969   0.449   0.074   0.499  0.6297  0.1081 -0.0252
  146MOL    H8011970   0.259   0.033   0.456  0.1876  0.3310 -0.5119
  146MOL    H8111971   0.351   7.676   0.487  0.0156  0.3876  0.7050
  146MOL    H8211972   0.527   0.035   0.536 -0.5863 -2.7889 -0.3414
  147MOL     C111973   0.757   4.395   1.276 -0.9564 -0.0533  0.2367
  147MOL     O211974   0.715   4.373   1.143  0.2805 -0.1147  0.5728
  147MOL     H311975   0.859   4.436   1.282 -1.8812  2.1755  1.3790
  147MOL     H411976   0.693   4.462   1.333 -0.1906  2.9562 -2.2748
  147MOL     H511977   0.759   4.301   1.330 -1.0080 -1.3155 -1.9145
  147MOL     C611978   0.688   4.485   1.068 -0.2066  0.1420  0.4622
  147MOL     O711979   0.583   4.564   1.116 -0.7275 -0.8189  0.0661
  147MOL     H811980   0.669   4.458   0.965 -0.2744 -0.4643  0.6324
  147MOL     H911981   0.775   4.551   1.063  0.0770 -0.3335 -0.9225
  147MOL    C1011982   0.456   4.512   1.103 -0.5799  0.3268  0.6133
  147MOL    O1111983   0.411   4.528   0.977 -0.0584  0.3477  1.0079
  147MOL    H1211984   0.385   4.572   1.159  1.3228  1.4278  1.8961
  147MOL    H1311985   0.456   4.406   1.128  1.1858  0.1085 -0.1948
  147MOL    C1411986   0.385   4.657   0.939  0.0380 -0.3882 -0.7691
  147MOL    O1511987   0.271   4.721   0.995 -0.0750  0.1534 -0.2528
  147MOL    H1611988   0.371   4.670   0.832 -0.1499  0.9761 -0.5939
  147MOL    H1711989   0.464   4.729   0.960 -0.5376 -0.3723  1.4853
  147MOL    C1811990   0.151   4.662   0.952 -0.5073  0.2755  0.5030
  147MOL    O1911991   0.106   4.712   0.829  0.5736 -0.2567 -0.2671
  147MOL    H2011992   0.084   4.689   1.034  0.1013  0.0266  1.0907
  147MOL    H2111993   0.159   4.553   0.953 -0.0187  0.2927 -1.0547
  147MOL    C2211994   0.053   4.842   0.828  0.3566  0.2232  0.1577
  147MOL    O2311995   0.053   4.894   0.699 -1.0854  0.0485 -0.2503
  147MOL    H2411996   0.112   4.908   0.891 -0.9505  2.1644 -0.6013
  147MOL    H2511997   7.739   4.842   0.877 -0.0778  2.6143 -0.6438
  147MOL    C2611998   7.762   4.817   0.611 -0.2804  0.1729 -0.4257
  147MOL    O2711999   7.629   4.818   0.649  0.4331  0.1408 -0.1046
  147MOL    H2812000   0.023   4.721   0.589 -0.1705 -0.2148  1.3961
  147MOL    H2912001   7.769   4.872   0.517 -1.0016 -1.8726 -1.6969
  147MOL    C3012002   7.546   4.770   0.548  0.3622 -0.3736 -0.2728
  147MOL    O3112003   7.573   4.635   0.519  0.4063 -0.0737 -0.0134
  147MOL    H3212004   7.569   4.837   0.465 -1.1268  0.3412 -0.1265
  147MOL    H3312005   7.441   4.791   0.569  0.3007 -0.9086 -0.0541
  147MOL    C3412006   7.520   4.556   0.615 -0.7277  0.3222 -0.0754
  147MOL    O3512007   7.390   4.534   0.588  0.1092  0.6871  0.3206
  147MOL    H3612008   7.536   4.584   0.719  1.3408 -1.2562  0.0712
  147MOL    H3712009   7.573   4.462   0.600 -0.3527  0.5783 -0.3648
  147MOL    C3812010   7.337   4.445   0.687 -0.3121  0.4752 -0.0134
  147MOL    O3912011   7.336   4.505   0.811  0.0556 -0.3497 -0.1119
  147MOL    H4012012   7.375   4.344   0.701 -0.4195  0.6084  1.2300
  147MOL    H4112013   7.231   4.436   0.663 -0.2354 -1.7240  0.3991
  147MOL    C4212014   7.250   4.455   0.907  0.4205  0.0547  0.0891
  147MOL    O4312015   7.122   4.500   0.879  0.4049  0.7274 -0.9314
  147MOL    H4412016   7.271   4.496   1.006 -1.1173  0.1420  0.3939
  147MOL    H4512017   7.267   4.348   0.912 -1.3204 -0.2612 -0.5559
  147MOL    C4612018   7.098   4.646   0.877  1.0277 -0.2054  0.2443
  147MOL    O4712019   7.067   4.691   1.008  0.5408  0.2906  0.1702
  147MOL    H4812020   7.016   4.675   0.811 -1.0086  0.3175  2.9032
  147MOL    H4912021   7.193   4.689   0.844  0.0087  2.4884  0.6492
  147MOL    C5012022   7.065   4.832   1.021 -0.7707  0.0045  0.2087
  147MOL    O5112023   7.203   4.883   0.992  0.1475 -0.1639 -0.1154
  147MOL    H5212024   7.037   4.847   1.125 -1.3003 -2.1779  0.3993
  147MOL    H5312025   6.986   4.861   0.952 -1.6096  0.7357  1.4534
  147MOL    C5412026   7.294   4.850   1.099 -0.7390  0.3113  0.1303
  147MOL    O5512027   7.357   4.724   1.086  0.5265  0.2246 -0.0242
  147MOL    H5612028   7.245   4.843   1.197 -0.6487 -0.2693  0.1337
  147MOL    H5712029   7.368   4.930   1.099 -0.4747  0.0688  1.3085
  147MOL    C5812030   7.465   4.728   1.012 -0.3222  0.1087  0.1073
  147MOL    O5912031   7.574   4.780   1.088  0.3849  0.4761 -0.1326
  147MOL    H6012032   7.451   4.786   0.922  3.3208  1.0593  0.0836
  147MOL    H6112033   7.499   4.631   0.975  1.2501 -0.6962  3.4758
  147MOL    C6212034   7.616   4.700   1.194 -0.4005  0.6815 -0.0136
  147MOL    O6312035   7.681   4.591   1.145 -0.1569  0.5463 -0.2666
  147MOL    H6412036   7.524   4.676   1.247 -1.2821 -1.0398 -2.2171
  147MOL    H6512037   7.687   4.766   1.244 -0.8074  0.6344  0.6325
  147MOL    C6612038   7.707   4.492   1.239 -0.0619  0.3529  0.6694
  147MOL    O6712039   7.589   4.444   1.290 -0.0508  0.1558 -0.3276
  147MOL    H6812040   7.773   4.523   1.319  0.2082  3.2747 -0.6222
  147MOL    H6912041   7.765   4.412   1.193  0.3362  1.9335 -1.6470
  147MOL    C7012042   7.525   4.355   1.204  0.4593 -1.1542  0.1605
  147MOL    O7112043   7.600   4.236   1.195 -0.0030  0.6516 -0.2977
  147MOL    H7212044   7.484   4.393   1.110 -0.5851  0.1896  1.1497
  147MOL    H7312045   7.434   4.329   1.258 -0.5682  2.3083  0.2243
  147MOL    C7412046   7.595   4.147   1.305  0.6692  0.4973 -0.1136
  147MOL    O7512047   7.701   4.054   1.290 -0.1246  0.2115  0.5824
  147MOL    H7612048   7.501   4.093   1.297  0.3207  1.0496  0.2166
  147MOL    H7712049   7.613   4.203   1.397  2.2062 -0.5707  0.2557
  147MOL    C7812050   7.683   3.964   1.182  0.0426 -1.0273 -0.4049
  147MOL    O7912051   0.004   3.875   1.160  0.0998 -0.5032  0.5154
  147MOL    H8012052   7.666   4.009   1.085  2.3224  0.0386 -0.3439
  147MOL    H8112053   7.597   3.903   1.212 -0.5498  0.2300  0.4993
  147MOL    H8212054   7.769   3.800   1.215 -3.8879  1.2277  1.7381
  148MOL     C112055   0.685   1.108   3.134  0.5761  0.2128  0.9237
  148MOL     O212056   0.738   1.102   2.998 -0.1021  0.0283  0.4022
  148MOL     H312057   0.772   1.105   3.199  1.3184  0.2872 -0.0523
  148MOL     H412058   0.629   1.197   3.164  0.1794  0.5508 -0.7527
  148MOL     H512059   0.624   1.020   3.157  1.5842 -0.0713  2.5405
  148MOL     C612060   0.809   1.214   2.963  0.1330  0.7419  0.1574
  148MOL     O712061   0.738   1.330   2.975  0.3769 -0.0092  0.1586
  148MOL     H812062   0.847   1.205   2.861  0.6610  1.3187  0.3001
  148MOL     H912063   0.893   1.219   3.033  1.0755 -0.3703 -0.8606
  148MOL    C1012064   0.648   1.355   2.872  0.3077 -0.2309  0.3708
  148MOL    O1112065   0.709   1.385   2.749 -0.4861  0.2375 -0.3715
  148MOL    H1212066   0.571   1.430   2.891 -0.9561 -1.6345  0.8343
  148MOL    H1312067   0.584   1.267   2.864  1.3677 -1.0120  0.4070
  148MOL    C1412068   0.763   1.513   2.745  0.1003  0.1086  0.4088
  148MOL    O1512069   0.667   1.600   2.697 -0.6906 -0.1327 -0.3400
  148MOL    H1612070   0.857   1.507   2.691  1.0433  0.7085  1.9354
  148MOL    H1712071   0.793   1.549   2.843  1.8093  0.5870 -0.2862
  148MOL    C1812072   0.706   1.731   2.690  0.0567  0.3354 -0.4369
  148MOL    O1912073   0.802   1.752   2.596 -0.3635  0.3942  0.1894
  148MOL    H2012074   0.753   1.775   2.778 -1.4677 -1.4709  1.3390
  148MOL    H2112075   0.628   1.804   2.667 -0.0778  0.5719  0.7576
  148MOL    C2212076   0.759   1.742   2.467 -0.0616 -0.3626  0.0858
  148MOL    O2312077   0.665   1.841   2.445  0.5978  0.1382 -0.4012
  148MOL    H2412078   0.710   1.645   2.456 -4.2147  1.3672  2.3116
  148MOL    H2512079   0.839   1.752   2.394 -0.4471  0.2665 -0.2458
  148MOL    C2612080   0.732   1.964   2.431  0.7732 -0.0136 -0.1004
  148MOL    O2712081   0.637   2.072   2.430 -0.1720 -0.2050 -0.5593
  148MOL    H2812082   0.774   1.964   2.331  1.5659 -2.0887  0.2154
  148MOL    H2912083   0.813   1.978   2.503  2.2281  0.3503 -1.7906
  148MOL    C3012084   0.559   2.076   2.545 -0.0309 -0.2945  0.5518
  148MOL    O3112085   0.621   2.129   2.655 -0.4832 -0.4064 -0.1315
  148MOL    H3212086   0.516   1.977   2.564 -0.1146 -0.2694  0.4924
  148MOL    H3312087   0.468   2.129   2.517  0.0939 -0.7037 -0.6757
  148MOL    C3412088   0.634   2.265   2.656 -0.9026  0.1303 -0.3186
  148MOL    O3512089   0.519   2.330   2.717 -0.2012  0.2711 -0.4860
  148MOL    H3612090   0.636   2.301   2.553  0.3176 -1.9017 -1.0305
  148MOL    H3712091   0.720   2.296   2.716 -1.3064 -1.0596  0.8953
  148MOL    C3812092   0.541   2.458   2.768  0.0335 -0.2688 -0.4226
  148MOL    O3912093   0.621   2.455   2.883  0.1614  0.4010 -0.2616
  148MOL    H4012094   0.444   2.502   2.789  0.0619 -0.3415 -0.1413
  148MOL    H4112095   0.583   2.522   2.690  0.3318 -1.8255 -1.5672
  148MOL    C4212096   0.547   2.409   2.999  0.3493  0.0815  0.7581
  148MOL    O4312097   0.443   2.496   3.030 -0.2705  0.1864  0.0223
  148MOL    H4412098   0.614   2.382   3.080  1.7359 -0.3820 -0.5347
  148MOL    H4512099   0.495   2.318   2.970  0.4626  0.1246  0.4184
  148MOL    C4612100   0.463   2.575   3.136  0.0570 -0.1110 -0.1604
  148MOL    O4712101   0.443   2.512   3.257  0.4090  0.3512  0.0276
  148MOL    H4812102   0.394   2.659   3.127 -0.5916 -0.6647 -0.3774
  148MOL    H4912103   0.564   2.617   3.136 -0.1606  0.4135 -0.1537
  148MOL    C5012104   0.321   2.447   3.271  0.3261  0.0153  0.1741
  148MOL    O5112105   0.214   2.535   3.290  0.2482  0.1138  0.3052
  148MOL    H5212106   0.329   2.393   3.366  0.2468  1.2249  0.8861
  148MOL    H5312107   0.294   2.379   3.191 -0.7567  2.2791 -1.4191
  148MOL    C5412108   0.094   2.478   3.321 -0.2970  0.0009 -0.2077
  148MOL    O5512109   0.038   2.414   3.209  1.1690 -0.4082 -0.1836
  148MOL    H5612110   0.035   2.567   3.343  0.4116  0.8492 -1.6742
  148MOL    H5712111   0.092   2.416   3.411  2.8121  0.3309  0.1407
  148MOL    C5812112   0.017   2.497   3.107  0.1727  0.4117  1.0635
  148MOL    O5912113   7.736   2.430   3.013  0.5741  0.2612  0.2042
  148MOL    H6012114   0.112   2.533   3.067 -0.8415  4.1427  1.7904
  148MOL    H6112115   7.737   2.583   3.131 -1.5740 -0.3613 -0.6393
  148MOL    C6212116   7.597   2.433   3.026 -0.0080  0.3573  0.0733
  148MOL    O6312117   7.539   2.543   2.956 -0.4677 -0.3609 -0.4248
  148MOL    H6412118   7.557   2.434   3.127 -0.6188 -2.3207 -0.1039
  148MOL    H6512119   7.577   2.335   2.982 -0.3728  0.9464 -1.0815
  148MOL    C6612120   7.399   2.531   2.945  0.3990  0.0692 -0.5098
  148MOL    O6712121   7.336   2.653   2.896 -0.5633  0.3493 -0.1814
  148MOL    H6812122   7.349   2.503   3.038 -0.1305  1.6984 -0.2942
  148MOL    H6912123   7.384   2.459   2.865 -2.0537 -2.4882  2.1335
  148MOL    C7012124   7.325   2.746   2.998  0.0022 -0.1707  0.7658
  148MOL    O7112125   7.228   2.706   3.095  0.1115  0.7484 -0.3023
  148MOL    H7212126   7.305   2.843   2.953  1.9990  0.1046  0.4149
  148MOL    H7312127   7.424   2.753   3.043  0.7645  1.0935 -1.0384
  148MOL    C7412128   7.099   2.696   3.044  0.5750  0.7417  0.4738
  148MOL    O7512129   7.004   2.648   3.147 -0.8142 -0.4186 -0.1289
  148MOL    H7612130   7.086   2.635   2.955 -1.7915 -2.3312  2.7627
  148MOL    H7712131   7.056   2.793   3.021 -0.0573  0.3268 -0.1086
  148MOL    C7812132   7.023   2.717   3.267 -0.3794  1.1741  0.2972
  148MOL    O7912133   6.927   2.684   3.363 -0.0843 -0.2149 -0.7794
  148MOL    H8012134   7.035   2.824   3.251  0.0907  0.9204 -1.1150
  148MOL    H8112135   7.120   2.690   3.309 -1.6022 -2.2240  1.0622
  148MOL    H8212136   6.855   2.643   3.317 -0.9400 -0.9872  1.1569
  149MOL     C112137   4.612   4.881   5.354 -0.4007  0.5027 -0.0753
  149MOL     O212138   4.502   4.962   5.377  0.2179  0.4644  0.2890
  149MOL     H312139   4.692   4.920   5.418 -0.9072 -1.3879  1.7758
  149MOL     H412140   4.591   4.777   5.379 -3.9374  1.3686  0.7938
  149MOL     H512141   4.635   4.878   5.248 -0.1383 -1.0236  0.0142
  149MOL     C612142   4.404   4.918   5.286 -0.7390  0.2148 -0.5151
  149MOL     O712143   4.281   4.979   5.316  0.2108  0.8251  0.1850
  149MOL     H812144   4.389   4.810   5.285 -0.3758  0.1669 -0.8446
  149MOL     H912145   4.429   4.951   5.185 -1.0721  1.8427 -0.0915
  149MOL    C1012146   4.225   4.936   5.433 -0.6649  0.4665  0.2802
  149MOL    O1112147   4.180   4.805   5.435  0.1518 -0.0849 -0.0628
  149MOL    H1212148   4.135   4.994   5.450 -1.0396 -0.5189  1.7422
  149MOL    H1312149   4.284   4.944   5.525 -3.1287 -1.1497  2.0759
  149MOL    C1412150   4.075   4.785   5.349 -0.0190  0.1605  0.2573
  149MOL    O1512151   3.963   4.865   5.377  0.4878 -0.6318 -0.4246
  149MOL    H1612152   4.043   4.681   5.352  0.9397 -0.1003  2.8763
  149MOL    H1712153   4.089   4.812   5.244  0.9693 -1.5752 -0.0661
  149MOL    C1812154   3.883   4.810   5.479  0.5734 -0.7639 -0.1050
  149MOL    O1912155   3.808   4.705   5.436  0.8537  0.5516 -0.1079
  149MOL    H2012156   3.818   4.891   5.512  0.1883 -0.9169 -0.4970
  149MOL    H2112157   3.936   4.770   5.565 -0.5818 -0.2338  0.8773
  149MOL    C2212158   3.711   4.733   5.338 -0.2645 -0.5027  0.6242
  149MOL    O2312159   3.595   4.788   5.401 -0.5716 -0.1350  0.1271
  149MOL    H2412160   3.689   4.644   5.279 -2.7186  1.8708 -2.2253
  149MOL    H2512161   3.752   4.808   5.271 -0.2418 -0.1386  1.0415
  149MOL    C2612162   3.504   4.827   5.310  0.8850  0.5976 -0.1574
  149MOL    O2712163   3.547   4.932   5.232 -0.2174 -0.1800 -0.5192
  149MOL    H2812164   3.423   4.867   5.372  2.3577 -0.5096  2.5694
  149MOL    H2912165   3.475   4.742   5.248  2.2422  1.1342 -1.5655
  149MOL    C3012166   3.550   5.056   5.303 -0.5869  0.2712  0.6063
  149MOL    O3112167   3.638   5.158   5.256 -0.4239 -0.2425  0.5366
  149MOL    H3212168   3.562   5.038   5.410  2.0566  0.3718  0.3609
  149MOL    H3312169   3.451   5.102   5.299  0.2841  2.0705 -0.9820
  149MOL    C3412170   3.771   5.147   5.304 -0.0536  0.1491 -0.9466
  149MOL    O3512171   3.773   5.159   5.443 -0.1747  0.1782  0.3666
  149MOL    H3612172   3.832   5.225   5.258 -1.4420  2.6451  1.2310
  149MOL    H3712173   3.802   5.047   5.278 -0.1994 -0.5250  1.3115
  149MOL    C3812174   3.778   5.285   5.493 -0.7878  0.1254  0.3811
  149MOL    O3912175   3.908   5.339   5.472  0.0452  0.1414  0.2819
  149MOL    H4012176   3.756   5.277   5.599 -0.3699  0.5896  0.5019
  149MOL    H4112177   3.699   5.346   5.447 -1.3414 -0.2512  0.8207
  149MOL    C4212178   3.991   5.289   5.572  0.5812 -0.0769 -0.0590
  149MOL    O4312179   3.976   5.365   5.691  0.3688  0.4487 -0.3101
  149MOL    H4412180   4.091   5.304   5.532  0.0624  0.1133 -1.3074
  149MOL    H4512181   3.960   5.185   5.577 -0.0800  0.0484 -1.1858
  149MOL    C4612182   4.038   5.483   5.694  0.2629 -0.0534  0.5878
  149MOL    O4712183   4.017   5.548   5.814 -0.2806 -0.3477 -0.0356
  149MOL    H4812184   4.003   5.520   5.598 -0.7234 -0.9429  0.5925
  149MOL    H4912185   4.145   5.480   5.678  0.2887  1.9409  0.2079
  149MOL    C5012186   4.095   5.505   5.926  0.3475 -1.0226  0.1295
  149MOL    O5112187   4.234   5.528   5.918  0.1562 -0.2067 -0.0993
  149MOL    H5212188   4.073   5.398   5.935 -0.3178 -0.9403 -0.4353
  149MOL    H5312189   4.045   5.549   6.012  0.6437 -0.2575 -0.0904
  149MOL    C5412190   4.304   5.487   6.035  0.7685  0.2546  0.3560
  149MOL    O5512191   4.306   5.345   6.046  0.1117 -0.1233  0.2846
  149MOL    H5612192   4.257   5.526   6.125 -0.5400  2.7839 -1.3216
  149MOL    H5712193   4.405   5.528   6.037  0.3138  1.4157  0.2812
  149MOL    C5812194   4.343   5.298   6.176  0.1436 -0.2804  0.2340
  149MOL    O5912195   4.470   5.342   6.205 -0.2131  0.0545 -0.0581
  149MOL    H6012196   4.342   5.189   6.171 -1.2909 -0.3008  0.9162
  149MOL    H6112197   4.288   5.327   6.265 -0.0988 -0.0401  0.0059
  149MOL    C6212198   4.569   5.239   6.199  0.0711 -0.1655  0.1897
  149MOL    O6312199   4.601   5.188   6.076  0.1935 -0.1162  0.4317
  149MOL    H6412200   4.531   5.150   6.249 -0.1237 -0.5110 -0.5668
  149MOL    H6512201   4.662   5.271   6.245 -1.0124  0.5796  1.9275
  149MOL    C6612202   4.658   5.282   5.986  1.0468 -0.3817 -0.2247
  149MOL    O6712203   4.796   5.316   6.020  0.0835  0.2603 -0.0373
  149MOL    H6812204   4.605   5.377   5.980  1.8946 -0.0438 -2.6407
  149MOL    H6912205   4.654   5.240   5.886 -1.7947 -0.7940  0.0364
  149MOL    C7012206   4.853   5.392   5.919  0.0374 -0.4232 -0.4505
  149MOL    O7112207   4.808   5.524   5.925  0.0308 -0.7084 -0.2473
  149MOL    H7212208   4.846   5.344   5.821  0.1637 -2.2817  0.4381
  149MOL    H7312209   4.959   5.377   5.936  0.5115  1.5566 -1.4885
  149MOL    C7412210   4.870   5.593   6.025  0.2151 -0.0794  0.4340
  149MOL    O7512211   5.001   5.628   5.985 -0.4121  0.6803  0.0879
  149MOL    H7612212   4.855   5.543   6.121  1.2574 -0.8725  0.1932
  149MOL    H7712213   4.825   5.692   6.033 -2.1245 -1.0325 -0.5344
  149MOL    C7812214   5.073   5.668   6.095  0.1536 -0.2205 -0.2303
  149MOL    O7912215   5.209   5.680   6.061 -0.1750  0.2683  0.4196
  149MOL    H8012216   5.075   5.597   6.178  0.5316 -1.5942 -1.4084
  149MOL    H8112217   5.040   5.764   6.136  1.1392 -0.3367  0.8667
  149MOL    H8212218   5.230   5.772   6.063 -0.6464  0.4472 -1.3284
  150MOL     C112219   4.581   0.200   6.594  0.5396  0.2350  0.8706
  150MOL     O212220   4.487   0.264   6.501  0.7409  0.6425  0.0135
  150MOL     H312221   4.679   0.176   6.554 -0.6566 -3.4161 -0.1004
  150MOL     H412222   4.600   0.267   6.678  0.4977 -1.6157  2.3841
  150MOL     H512223   4.533   0.117   6.645 -1.4297 -0.5497 -2.0812
  150MOL     C612224   4.481   0.198   6.380 -0.1598  0.0338 -0.3856
  150MOL     O712225   4.375   0.104   6.376 -0.0441  0.1159  0.1954
  150MOL     H812226   4.576   0.164   6.339  0.2354 -0.5939  1.0181
  150MOL     H912227   4.449   0.280   6.316  1.1558  2.0657  1.4968
  150MOL    C1012228   4.254   0.152   6.429 -0.1119  0.0082 -0.1696
  150MOL    O1112229   4.194   0.245   6.338 -0.2186  0.0261 -0.3909
  150MOL    H1212230   4.265   0.192   6.530  2.4987  1.1251 -0.8439
  150MOL    H1312231   4.180   0.073   6.430  1.4021 -1.5428 -2.8636
  150MOL    C1412232   4.175   0.372   6.389  0.5854 -0.3250 -0.6238
  150MOL    O1512233   4.058   0.378   6.455  0.1443 -0.0933 -0.2545
  150MOL    H1612234   4.179   0.445   6.309 -0.6505 -1.1575 -1.4850
  150MOL    H1712235   4.261   0.402   6.448  1.7876 -3.6035 -0.5658
  150MOL    C1812236   3.950   0.393   6.362  0.1262 -0.5400  0.0443
  150MOL    O1912237   3.940   0.526   6.327  0.8558  0.1602 -0.1140
  150MOL    H2012238   3.868   0.371   6.430 -1.2401 -0.6440 -1.5931
  150MOL    H2112239   3.948   0.332   6.271 -0.7638 -1.8493  0.9266
  150MOL    C2212240   3.863   0.550   6.209  0.5522  0.6520 -0.1709
  150MOL    O2312241   3.947   0.512   6.106 -0.0088  0.3008 -0.3158
  150MOL    H2412242   3.841   0.656   6.205  2.2498  1.1598  2.5396
  150MOL    H2512243   3.765   0.503   6.210  0.7226  0.2900  1.2861
  150MOL    C2612244   4.057   0.602   6.095  0.2122 -0.1056 -0.6069
  150MOL    O2712245   4.004   0.722   6.056 -0.3303 -0.3007  0.1130
  150MOL    H2812246   4.121   0.556   6.019  1.4407  3.7408 -2.0485
  150MOL    H2912247   4.109   0.602   6.191 -0.5300 -1.0861 -0.2022
  150MOL    C3012248   4.097   0.824   6.074 -0.2154 -0.2131 -0.0796
  150MOL    O3112249   4.105   0.859   6.216  0.0010  0.9762  0.4371
  150MOL    H3212250   4.060   0.904   6.011 -2.1207 -2.1009 -1.4723
  150MOL    H3312251   4.196   0.787   6.046 -0.1881 -0.8093  0.7566
  150MOL    C3412252   3.991   0.942   6.245 -0.2981  0.0960 -0.0854
  150MOL    O3512253   4.009   1.074   6.204 -0.3558  0.5421  0.3658
  150MOL    H3612254   3.965   0.935   6.351  1.2318 -2.5085  0.1484
  150MOL    H3712255   3.901   0.902   6.199  0.4795 -1.8979  0.1030
  150MOL    C3812256   4.088   1.134   6.301 -0.6488  0.0052  0.1589
  150MOL    O3912257   4.024   1.150   6.418 -0.6297  0.2188 -0.3510
  150MOL    H4012258   4.131   1.229   6.267 -1.0562  0.7379  1.6505
  150MOL    H4112259   4.172   1.068   6.322 -0.9864 -0.1926  0.8899
  150MOL    C4212260   3.927   1.256   6.419 -0.3611  0.2424  0.4513
  150MOL    O4312261   3.977   1.383   6.381  0.3862 -0.1910  0.2323
  150MOL    H4412262   3.872   1.270   6.512  0.0872 -0.7629  0.8858
  150MOL    H4512263   3.855   1.218   6.347  0.2572  1.1585 -0.6543
  150MOL    C4612264   4.085   1.419   6.462 -0.2862 -0.3410  0.1928
  150MOL    O4712265   4.048   1.440   6.589  0.1658  0.5080  0.3374
  150MOL    H4812266   4.135   1.502   6.413 -1.8536  1.4766  1.6324
  150MOL    H4912267   4.163   1.343   6.454 -0.5120 -0.4176 -1.5164
  150MOL    C5012268   4.157   1.469   6.667 -0.0642 -0.4666 -0.3132
  150MOL    O5112269   4.254   1.371   6.675  0.2545  0.2182  0.0609
  150MOL    H5212270   4.115   1.492   6.765 -1.9096 -1.7048 -0.7779
  150MOL    H5312271   4.203   1.557   6.623 -1.1530  1.1131  1.6569
  150MOL    C5412272   4.197   1.250   6.721  0.5207 -0.1729 -0.9915
  150MOL    O5512273   4.180   1.241   6.858 -0.1111  0.5804 -0.2939
  150MOL    H5612274   4.251   1.168   6.674  1.7291  0.9912 -1.6224
  150MOL    H5712275   4.094   1.227   6.693  1.0039 -0.0164 -2.9589
  150MOL    C5812276   4.312   1.224   6.920  0.9194  0.2816  0.4654
  150MOL    O5912277   4.314   1.286   7.045 -0.1603  0.2382 -0.1088
  150MOL    H6012278   4.387   1.272   6.858 -0.9627  0.8087 -1.4608
  150MOL    H6112279   4.342   1.119   6.928  2.0853  0.6451  0.9650
  150MOL    C6212280   4.243   1.219   7.148 -0.0106  0.0178  0.3722
  150MOL    O6312281   4.299   1.095   7.185  0.0416  1.2682 -0.2162
  150MOL    H6412282   4.143   1.208   7.106 -0.0196 -0.4838  0.5265
  150MOL    H6512283   4.242   1.279   7.239  5.3176 -0.7150  1.0862
  150MOL    C6612284   4.417   1.112   7.250  0.3493 -0.6098  0.0106
  150MOL    O6712285   4.402   1.168   7.377 -0.0075 -0.0031  0.0588
  150MOL    H6812286   4.478   1.186   7.198  0.3590  0.5934  1.7097
  150MOL    H6912287   4.475   1.020   7.237 -0.3036 -1.4608  2.6909
  150MOL    C7012288   4.377   1.079   7.476  0.2038 -0.8190  0.4731
  150MOL    O7112289   4.471   0.979   7.486 -1.0892  0.4271  0.7229
  150MOL    H7212290   4.276   1.041   7.459  0.4441 -0.9938 -0.5725
  150MOL    H7312291   4.383   1.142   7.565 -2.1452  1.1709 -0.7283
  150MOL    C7412292   4.418   0.853   7.487 -0.5713 -0.0155  0.2072
  150MOL    O7512293   4.514   0.774   7.548  0.6286 -0.1566  0.2332
  150MOL    H7612294   4.392   0.810   7.390 -1.1058 -0.8785  0.7223
  150MOL    H7712295   4.327   0.847   7.547 -2.1508  0.6618 -2.0772
  150MOL    C7812296   4.512   0.794   7.688 -0.1819  0.1975 -0.2067
  150MOL    O7912297   4.613   0.722   7.752  0.3409 -0.0072 -0.3971
  150MOL    H8012298   4.421   0.762   7.739  0.5429 -3.0864 -0.8149
  150MOL    H8112299   4.541   0.895   7.716  0.6020 -0.2425  0.5950
  150MOL    H8212300   4.688   0.779   7.747  1.8156 -1.8332  0.4015
  151MOL     C112301   7.133   0.919   0.836  0.2107 -0.1250 -0.2803
  151MOL     O212302   7.196   0.797   0.874 -0.6347 -0.5135  0.1214
  151MOL     H312303   7.045   0.953   0.890 -1.3267  0.1242 -2.8254
  151MOL     H412304   7.207   0.994   0.864 -0.0650 -0.4543  1.3515
  151MOL     H512305   7.120   0.927   0.728  3.7263  1.5204 -0.6460
  151MOL     C612306   7.105   0.696   0.898 -0.2953 -0.1488 -0.6441
  151MOL     O712307   7.017   0.718   1.004  0.1055  0.0258  0.3614
  151MOL     H812308   7.153   0.598   0.907  0.1010  0.2492  1.9482
  151MOL     H912309   7.043   0.684   0.809 -0.8264 -0.9980 -0.1706
  151MOL    C1012310   7.075   0.694   1.128 -0.1043 -0.0089  0.7890
  151MOL    O1112311   7.131   0.809   1.168 -0.1362  0.1482  0.8135
  151MOL    H1212312   7.159   0.625   1.120 -0.1461  0.1027 -0.9133
  151MOL    H1312313   7.006   0.645   1.196 -0.0042  0.3202  1.1245
  151MOL    C1412314   7.036   0.913   1.192 -0.1272  0.7067  0.0642
  151MOL    O1512315   7.077   0.979   1.310  0.0424 -0.8704 -0.0892
  151MOL    H1612316   6.933   0.880   1.185  0.5365 -1.3399 -0.3719
  151MOL    H1712317   7.040   0.987   1.112  0.0909  1.2465  0.5671
  151MOL    C1812318   7.018   0.922   1.421 -0.0985 -0.0131  1.0606
  151MOL    O1912319   6.884   0.948   1.424 -0.2275  0.4154 -0.0179
  151MOL    H2012320   7.067   0.963   1.509  0.3539 -0.8111  1.1795
  151MOL    H2112321   7.033   0.815   1.415 -3.9830 -0.6516  1.1529
  151MOL    C2212322   6.848   1.080   1.453  0.1719 -0.1884  0.1982
  151MOL    O2312323   6.843   1.102   1.591 -0.2196 -0.3929  0.2482
  151MOL    H2412324   6.750   1.099   1.408  0.9968  0.0116 -1.5477
  151MOL    H2512325   6.915   1.157   1.416  1.9109 -1.6518  0.2045
  151MOL    C2612326   6.726   1.048   1.645  0.0602  0.1123  0.0461
  151MOL    O2712327   6.609   1.116   1.609  0.0059 -0.2063 -0.0192
  151MOL    H2812328   6.748   1.056   1.751 -2.1184  0.2543  0.5195
  151MOL    H2912329   6.714   0.942   1.622 -0.2963  0.4081 -1.1723
  151MOL    C3012330   6.618   1.246   1.661 -0.0459 -0.8372 -0.9407
  151MOL    O3112331   6.588   1.244   1.797  0.3230 -0.1869 -0.5566
  151MOL    H3212332   6.553   1.318   1.612  1.8651  1.0438 -0.7753
  151MOL    H3312333   6.719   1.287   1.649 -0.0024 -0.2484  1.2464
  151MOL    C3412334   6.569   1.373   1.835 -0.2023 -0.3463 -0.6524
  151MOL    O3512335   6.435   1.415   1.809  0.4826 -0.4489 -0.5522
  151MOL    H3612336   6.630   1.442   1.776  0.3285  0.1568  0.4858
  151MOL    H3712337   6.608   1.381   1.936  0.6338 -3.6045 -0.6772
  151MOL    C3812338   6.327   1.350   1.868  0.0760  0.4640  0.2186
  151MOL    O3912339   6.200   1.408   1.830  0.4508 -0.4782  0.0200
  151MOL    H4012340   6.344   1.332   1.974  0.4328  3.6325  0.7723
  151MOL    H4112341   6.335   1.256   1.814  1.2761  0.5631  0.2290
  151MOL    C4212342   6.168   1.525   1.903 -0.4650  0.6234  0.0234
  151MOL    O4312343   6.224   1.629   1.833  0.0523 -0.4337  0.2409
  151MOL    H4412344   6.199   1.519   2.007 -1.4438 -1.2057  0.2180
  151MOL    H4512345   6.060   1.541   1.899 -0.4098  1.8626  2.6480
  151MOL    C4612346   6.175   1.647   1.703 -0.3477 -0.2478  0.2892
  151MOL    O4712347   6.223   1.777   1.664 -0.2705  0.0701  0.1324
  151MOL    H4812348   6.066   1.645   1.703 -0.3499 -1.8621 -1.3711
  151MOL    H4912349   6.222   1.582   1.628  0.3086  0.6817 -0.1179
  151MOL    C5012350   6.190   1.881   1.753  0.5412 -0.3547  0.1123
  151MOL    O5112351   6.174   2.003   1.688  0.0320  0.7209  0.2465
  151MOL    H5212352   6.269   1.891   1.828  0.9541  0.6736 -0.4475
  151MOL    H5312353   6.100   1.848   1.805  0.6296 -1.9673 -0.7390
  151MOL    C5412354   6.294   2.043   1.641 -0.8604  0.4094  0.8575
  151MOL    O5512355   6.283   2.163   1.565  0.3818  0.0565 -0.7813
  151MOL    H5612356   6.343   1.969   1.579 -0.8633  1.3664 -0.3007
  151MOL    H5712357   6.365   2.051   1.723  0.4500 -1.6916 -0.0711
  151MOL    C5812358   6.404   2.228   1.547  0.2710  0.4088  0.8876
  151MOL    O5912359   6.442   2.303   1.662  0.5882  0.2721  0.1314
  151MOL    H6012360   6.386   2.273   1.450 -1.6557 -2.1659  0.0144
  151MOL    H6112361   6.484   2.154   1.537 -2.1493 -2.2041  0.2758
  151MOL    C6212362   6.525   2.404   1.625  0.8604  0.5238  0.1603
  151MOL    O6312363   6.649   2.368   1.575 -0.3243  0.1868  0.1568
  151MOL    H6412364   6.544   2.454   1.720 -0.6983 -1.0974  1.3589
  151MOL    H6512365   6.471   2.473   1.561 -0.2226 -1.3557 -1.0006
  151MOL    C6612366   6.717   2.467   1.502 -0.0412  0.1665  0.6975
  151MOL    O6712367   6.760   2.564   1.590 -0.5499  0.6333  0.3257
  151MOL    H6812368   6.655   2.515   1.427  0.2315  1.0737  1.0514
  151MOL    H6912369   6.797   2.409   1.455  1.7293  2.1393  1.1969
  151MOL    C7012370   6.872   2.532   1.669 -0.3511  0.0792  0.2947
  151MOL    O7112371   6.989   2.506   1.594  0.1327 -0.2489 -0.6920
  151MOL    H7212372   6.854   2.444   1.730  1.4832 -1.8933 -1.9288
  151MOL    H7312373   6.889   2.612   1.741  1.9911 -0.3121  0.1943
  151MOL    C7412374   7.031   2.623   1.530  0.0079  0.1973  0.6023
  151MOL    O7512375   7.105   2.712   1.612  0.1576  1.0249  0.6341
  151MOL    H7612376   6.943   2.678   1.497  0.5643  1.2287  0.8449
  151MOL    H7712377   7.076   2.588   1.437 -0.5231  0.0788  0.3878
  151MOL    C7812378   7.229   2.674   1.640 -0.5309  0.5860 -0.2454
  151MOL    O7912379   7.292   2.764   1.733  0.3878  0.2988  0.8671
  151MOL    H8012380   7.290   2.687   1.551 -1.9460  1.4310 -1.1134
  151MOL    H8112381   7.243   2.573   1.677  1.8188  1.0101  0.1065
  151MOL    H8212382   7.266   2.745   1.822 -0.2317 -1.9332  0.2431
  152MOL     C112383   5.426   5.417   1.696 -0.0010  0.3611 -0.4480
  152MOL     O212384   5.528   5.358   1.781 -0.0519 -0.0779  0.3870
  152MOL     H312385   5.458   5.386   1.596  0.6726 -0.7622  0.1062
  152MOL     H412386   5.331   5.368   1.719  0.9697 -1.4651 -0.1968
  152MOL     H512387   5.416   5.525   1.691  2.6529  0.6159 -1.0952
  152MOL     C612388   5.551   5.445   1.890  0.1344 -0.7005  0.1752
  152MOL     O712389   5.614   5.559   1.845 -0.0239  0.1272  0.1907
  152MOL     H812390   5.617   5.394   1.960 -0.3737 -0.2097  1.0278
  152MOL     H912391   5.466   5.475   1.951  0.3239 -1.7331  0.9643
  152MOL    C1012392   5.738   5.537   1.795 -0.7886  0.2869 -0.3555
  152MOL    O1112393   5.787   5.655   1.739  0.0451  0.0504 -0.1495
  152MOL    H1212394   5.737   5.466   1.712 -1.2613  1.3250 -1.2411
  152MOL    H1312395   5.814   5.505   1.867 -2.1460 -0.3383  0.8285
  152MOL    C1412396   5.794   5.757   1.828 -0.2178 -0.2756 -0.6741
  152MOL    O1512397   5.903   5.841   1.802 -0.7716 -0.4091  0.2373
  152MOL    H1612398   5.794   5.725   1.933  1.1336  2.5600  0.2502
  152MOL    H1712399   5.702   5.811   1.806 -0.3945  0.5754  1.9464
  152MOL    C1812400   5.898   5.952   1.889 -0.7750 -0.6508  0.8201
  152MOL    O1912401   5.912   5.907   2.019 -0.4448 -0.3051 -0.3268
  152MOL    H2012402   5.801   6.001   1.885 -0.4301 -0.1066 -1.0518
  152MOL    H2112403   5.975   6.023   1.862 -0.9228 -0.5850  0.5692
  152MOL    C2212404   6.039   5.863   2.050 -0.4030 -0.2041  0.3098
  152MOL    O2312405   6.115   5.967   2.098  0.2036 -0.1254 -1.0858
  152MOL    H2412406   6.099   5.848   1.961  0.7866  0.1674  1.0379
  152MOL    H2512407   6.041   5.778   2.118 -0.2875 -0.5393 -0.1114
  152MOL    C2612408   6.094   5.981   2.230  0.3118 -0.1080 -0.4187
  152MOL    O2712409   6.133   5.863   2.299 -0.6316 -0.2056  0.0284
  152MOL    H2812410   5.990   5.996   2.257  0.3155 -1.0800  0.1389
  152MOL    H2912411   6.148   6.071   2.261  3.0587 -1.7070 -0.3634
  152MOL    C3012412   6.267   5.845   2.299 -0.0302  0.3531  0.4772
  152MOL    O3112413   6.327   5.936   2.384  0.4513 -0.3215  0.3262
  152MOL    H3212414   6.308   5.860   2.200  3.4720 -3.2728  1.2248
  152MOL    H3312415   6.296   5.742   2.319 -4.8647 -1.0581  0.8151
  152MOL    C3412416   6.335   5.891   2.514  0.6818  0.9662  0.2257
  152MOL    O3512417   6.411   5.774   2.527 -0.3783  0.1149 -0.5656
  152MOL    H3612418   6.239   5.856   2.550  1.6735 -2.1720 -0.0186
  152MOL    H3712419   6.381   5.966   2.579  1.5714  0.6447 -0.0298
  152MOL    C3812420   6.552   5.797   2.531 -0.2911  0.0377  0.9790
  152MOL    O3912421   6.623   5.688   2.478  0.1725 -0.0218  0.1527
  152MOL    H4012422   6.581   5.818   2.634 -4.4152  0.5789  2.1444
  152MOL    H4112423   6.581   5.882   2.470 -2.1758 -1.6538 -2.4814
  152MOL    C4212424   6.625   5.584   2.568  0.5133 -0.0710  0.2888
  152MOL    O4312425   6.716   5.598   2.675  0.5498 -0.4646 -0.3216
  152MOL    H4412426   6.637   5.490   2.514  1.1074 -0.5221  1.2066
  152MOL    H4512427   6.526   5.572   2.612  0.7382 -0.9229  0.5612
  152MOL    C4612428   6.845   5.579   2.643 -0.2999  0.4583  0.4589
  152MOL    O4712429   6.859   5.446   2.612 -0.1615 -0.2848 -0.2043
  152MOL    H4812430   6.909   5.607   2.726  1.3360 -0.3977 -0.4803
  152MOL    H4912431   6.879   5.645   2.563  1.6673  0.0890  0.9656
  152MOL    C5012432   6.858   5.360   2.721  0.4634 -0.1166 -0.4076
  152MOL    O5112433   6.978   5.345   2.787 -0.4871 -0.5717  0.2597
  152MOL    H5212434   6.820   5.261   2.697 -1.2909  0.7689 -1.3425
  152MOL    H5312435   6.795   5.402   2.799  0.8569 -0.9303  0.3626
  152MOL    C5412436   7.084   5.287   2.705  0.9564 -0.2533 -0.6487
  152MOL    O5512437   7.083   5.152   2.690 -0.2269 -0.3208 -0.4718
  152MOL    H5612438   7.175   5.318   2.756  1.7794 -0.2542 -2.1067
  152MOL    H5712439   7.084   5.334   2.607  1.1948  0.8621 -0.1291
  152MOL    C5812440   7.203   5.097   2.650  0.0670  0.1419 -0.1332
  152MOL    O5912441   7.315   5.118   2.735 -0.1876  0.0060 -0.4259
  152MOL    H6012442   7.218   5.138   2.550 -0.5578 -0.1945 -0.3674
  152MOL    H6112443   7.192   4.988   2.647 -0.8768  0.1133  2.5909
  152MOL    C6212444   7.298   5.084   2.870  0.0637 -0.4525  0.2947
  152MOL    O6312445   7.420   5.046   2.926  1.1596 -0.8329 -0.6150
  152MOL    H6412446   7.230   5.000   2.885 -0.3586 -0.3792 -1.1267
  152MOL    H6512447   7.264   5.169   2.929  0.7773  0.1067 -0.0973
  152MOL    C6612448   7.510   5.153   2.939  0.6856 -0.0016  0.3817
  152MOL    O6712449   7.473   5.252   3.032  0.3167 -0.1387  0.4975
  152MOL    H6812450   7.511   5.203   2.842 -0.4740 -0.4073  0.1504
  152MOL    H6912451   7.607   5.110   2.962  1.0190  0.9368  0.7571
  152MOL    C7012452   7.471   5.217   3.161 -0.4656  0.0516 -0.6462
  152MOL    O7112453   7.446   5.332   3.238 -0.0903  0.2910  0.2515
  152MOL    H7212454   7.567   5.172   3.186 -1.1720 -0.6400  0.9150
  152MOL    H7312455   7.385   5.152   3.177  1.0240 -1.8551 -0.2900
  152MOL    C7412456   7.448   5.314   3.375 -0.0536  0.3018  0.0391
  152MOL    O7512457   7.578   5.325   3.426 -0.1860 -0.7552 -0.0374
  152MOL    H7612458   7.387   5.238   3.425 -0.1003  0.1904 -0.1880
  152MOL    H7712459   7.398   5.395   3.428 -0.4538 -0.1921  0.4370
  152MOL    C7812460   7.634   5.454   3.409  1.3700 -0.0731 -0.4750
  152MOL    O7912461   7.760   5.463   3.477 -0.2795 -0.4277  0.6827
  152MOL    H8012462   7.572   5.534   3.449 -0.5629 -2.6432  1.8195
  152MOL    H8112463   7.657   5.468   3.303  2.3393 -1.0133 -0.4107
  152MOL    H8212464   0.040   5.443   3.410 -0.0135  1.4085  0.3562
  153MOL     C112465   4.349   5.633   7.144  0.2492  0.0558  0.8093
  153MOL     O212466   4.396   5.647   7.014 -0.1725 -0.5307 -0.5830
  153MOL     H312467   4.342   5.535   7.191  0.2249  0.0529  0.7983
  153MOL     H412468   4.440   5.664   7.195  2.3124 -0.6793 -2.2883
  153MOL     H512469   4.259   5.692   7.160 -0.4282 -0.4588 -0.9780
  153MOL     C612470   4.299   5.628   6.918  0.6400 -0.7215  0.1797
  153MOL     O712471   4.202   5.730   6.912  0.1189  0.3628  0.6002
  153MOL     H812472   4.258   5.527   6.912  1.8057 -1.2157  0.3607
  153MOL     H912473   4.349   5.627   6.821 -0.0323  0.3926 -0.1833
  153MOL    C1012474   4.261   5.859   6.904  0.9716 -0.2708  1.0065
  153MOL    O1112475   4.317   5.890   6.782  0.1683  0.5139  0.5703
  153MOL    H1212476   4.343   5.867   6.975  1.0079  0.5043  0.8863
  153MOL    H1312477   4.189   5.938   6.929  0.9642  0.7851 -2.1458
  153MOL    C1412478   4.225   5.883   6.684  0.2779 -0.0511  0.2878
  153MOL    O1512479   4.227   5.760   6.618  0.0927  0.0564  0.0143
  153MOL    H1612480   4.241   5.965   6.613 -2.4365 -0.0347 -0.3309
  153MOL    H1712481   4.123   5.897   6.720  0.5594 -0.3037  1.1901
  153MOL    C1812482   4.348   5.734   6.553  0.3044 -0.1868 -0.0233
  153MOL    O1912483   4.348   5.604   6.511  0.2935  0.3808 -0.1565
  153MOL    H2012484   4.427   5.734   6.629  1.0757  0.3971 -0.8228
  153MOL    H2112485   4.370   5.806   6.475 -1.2435 -1.2324 -1.4383
  153MOL    C2212486   4.460   5.569   6.445 -0.6734 -0.4310  0.1325
  153MOL    O2312487   4.462   5.619   6.313 -0.0385  0.3386  0.1230
  153MOL    H2412488   4.470   5.461   6.446  2.9017 -0.2177 -3.2466
  153MOL    H2512489   4.545   5.606   6.503 -0.7666 -0.4944  0.3117
  153MOL    C2612490   4.586   5.627   6.256 -0.0970  0.1096 -0.6881
  153MOL    O2712491   4.670   5.718   6.320 -0.3491 -0.2798  0.2429
  153MOL    H2812492   4.577   5.641   6.148 -2.0282  0.9696 -0.4302
  153MOL    H2912493   4.637   5.531   6.255 -1.8254 -0.8174 -2.8621
  153MOL    C3012494   4.637   5.853   6.297 -0.6199 -0.0416 -0.2008
  153MOL    O3112495   4.668   5.879   6.155 -0.5626 -0.3366  0.6548
  153MOL    H3212496   4.699   5.922   6.353  0.5290 -2.5808  1.7590
  153MOL    H3312497   4.534   5.882   6.319 -1.0267 -0.9397 -0.8418
  153MOL    C3412498   4.659   6.020   6.125  0.4314 -0.1226 -0.2113
  153MOL    O3512499   4.777   6.087   6.155  0.6021 -0.3900  0.0059
  153MOL    H3612500   4.567   6.062   6.167 -0.3808 -0.4578 -1.6227
  153MOL    H3712501   4.655   6.022   6.017  2.4675 -1.4177 -0.3442
  153MOL    C3812502   4.774   6.229   6.127  0.4765  0.5173  0.2939
  153MOL    O3912503   4.696   6.295   6.226 -0.6897 -0.1120 -0.1601
  153MOL    H4012504   4.732   6.251   6.029 -1.5918 -0.9014  0.8101
  153MOL    H4112505   4.877   6.263   6.124 -0.0869  2.2609  0.3432
  153MOL    C4212506   4.738   6.285   6.362 -0.1836  0.1784 -0.1623
  153MOL    O4312507   4.845   6.373   6.394  0.2431  0.0735 -0.1439
  153MOL    H4412508   4.783   6.187   6.378 -1.3359 -0.2782  0.3962
  153MOL    H4512509   4.653   6.286   6.431  0.8583 -0.8594  1.1564
  153MOL    C4612510   4.811   6.507   6.392  0.1176 -0.5001 -0.1275
  153MOL    O4712511   4.714   6.549   6.493  0.0218  0.1174 -0.2724
  153MOL    H4812512   4.771   6.533   6.294  2.4474 -1.8985 -1.4888
  153MOL    H4912513   4.897   6.568   6.419  0.2067 -0.6732 -0.0117
  153MOL    C5012514   4.695   6.685   6.495  0.0168  0.6230 -0.8134
  153MOL    O5112515   4.599   6.718   6.401  0.1625  0.4056  0.2384
  153MOL    H5212516   4.783   6.745   6.471 -0.2376 -0.3395 -4.3776
  153MOL    H5312517   4.671   6.717   6.596 -1.3915 -1.9218 -0.2974
  153MOL    C5412518   4.567   6.852   6.384  0.3910 -0.9182 -0.8805
  153MOL    O5512519   4.545   6.911   6.503  0.0509  0.3433  0.1482
  153MOL    H5612520   4.490   6.862   6.307 -1.4574  0.8120  1.1399
  153MOL    H5712521   4.657   6.897   6.340  0.2588 -2.5415 -2.9132
  153MOL    C5812522   4.422   6.883   6.564 -0.7692  0.6867 -0.9823
  153MOL    O5912523   4.399   6.976   6.662 -0.2593  0.5165 -0.4398
  153MOL    H6012524   4.435   6.787   6.613  0.0020  2.6890  2.9404
  153MOL    H6112525   4.337   6.865   6.497  0.0467 -1.7301 -1.4189
  153MOL    C6212526   4.272   6.965   6.723  0.6699  0.2731 -0.4983
  153MOL    O6312527   4.173   7.035   6.653 -0.6039 -0.8042 -0.4099
  153MOL    H6412528   4.290   7.015   6.818 -3.7204  0.3481  0.3952
  153MOL    H6512529   4.263   6.860   6.751 -0.4087  0.1578 -1.2715
  153MOL    C6612530   4.186   7.177   6.672  0.0293 -1.0417 -0.1555
  153MOL    O6712531   4.154   7.213   6.797  0.6456 -0.6412 -0.1315
  153MOL    H6812532   4.115   7.226   6.605  0.2359 -0.1441  0.2725
  153MOL    H6912533   4.275   7.219   6.626 -0.7717  0.2544 -0.5643
  153MOL    C7012534   4.023   7.176   6.836  0.9386 -0.7198  0.7382
  153MOL    O7112535   3.923   7.209   6.751  0.4766  0.0234  0.2124
  153MOL    H7212536   4.009   7.219   6.935  1.7015  1.4129 -0.0558
  153MOL    H7312537   4.008   7.069   6.854 -1.6540 -0.7731 -1.3524
  153MOL    C7412538   3.879   7.344   6.751 -0.5773  0.7710 -1.1379
  153MOL    O7512539   3.976   7.430   6.705  0.0343  0.5495  0.1503
  153MOL    H7612540   3.858   7.373   6.854  1.8456 -0.3349 -0.3032
  153MOL    H7712541   3.785   7.352   6.696  0.2008 -1.9174 -2.9436
  153MOL    C7812542   3.974   7.440   6.567  1.1018 -0.1821 -0.0359
  153MOL    O7912543   4.089   7.502   6.514 -0.5708 -0.1436 -0.4550
  153MOL    H8012544   3.895   7.509   6.540  2.3364  0.9598 -0.8345
  153MOL    H8112545   3.958   7.342   6.523  0.4375  0.8141 -2.0660
  153MOL    H8212546   4.107   7.581   6.563 -2.7349 -0.0237  0.2255
  154MOL     C112547   3.975   0.630   4.497  0.0909 -0.2234  0.4174
  154MOL     O212548   3.919   0.751   4.463  0.3947 -0.1111 -0.1605
  154MOL     H312549   4.045   0.603   4.419 -0.2607 -0.3253  0.1378
  154MOL     H412550   4.034   0.647   4.587  2.2872 -0.5224 -0.9425
  154MOL     H512551   3.913   0.543   4.517 -1.2373 -0.0734 -2.7569
  154MOL     C612552   3.851   0.744   4.350  0.1132 -0.3310  0.2770
  154MOL     O712553   3.827   0.875   4.306 -0.2602 -0.1799 -0.2359
  154MOL     H812554   3.762   0.683   4.362  0.2909 -0.6483  0.0075
  154MOL     H912555   3.901   0.689   4.271 -0.5831 -0.7358  0.1146
  154MOL    C1012556   3.754   0.880   4.192 -0.1976  0.5177  0.3905
  154MOL    O1112557   3.623   0.842   4.204 -0.1148 -0.9464 -0.0258
  154MOL    H1212558   3.806   0.828   4.111  1.2374 -0.7990  2.1303
  154MOL    H1312559   3.743   0.987   4.177 -2.7472  0.7919  3.6062
  154MOL    C1412560   3.549   0.934   4.281 -1.4509  0.1880  0.5891
  154MOL    O1512561   3.503   1.044   4.203  0.1503 -0.0873  0.2941
  154MOL    H1612562   3.605   0.958   4.371  0.6501 -0.8610 -0.3786
  154MOL    H1712563   3.459   0.879   4.307 -0.9145 -0.1871  1.7004
  154MOL    C1812564   3.456   1.151   4.280  0.9380  0.1988  0.8064
  154MOL    O1912565   3.551   1.210   4.361  0.2492  0.4410  0.0006
  154MOL    H2012566   3.384   1.106   4.350  0.8991 -0.4183  0.3679
  154MOL    H2112567   3.412   1.234   4.225  1.2955  0.3291  0.7212
  154MOL    C2212568   3.644   1.296   4.291  0.0392 -0.1361 -0.0375
  154MOL    O2312569   3.712   1.386   4.374 -0.4305 -0.2347 -0.1016
  154MOL    H2412570   3.590   1.351   4.214  0.2383 -2.1648 -1.6819
  154MOL    H2512571   3.706   1.221   4.243 -0.8517 -0.3055 -0.9360
  154MOL    C2612572   3.788   1.308   4.461 -0.1969  0.0347  0.0587
  154MOL    O2712573   3.879   1.221   4.403 -0.1118  0.0883  0.1736
  154MOL    H2812574   3.708   1.259   4.516 -1.5989  1.4494 -0.6576
  154MOL    H2912575   3.839   1.371   4.533 -0.3443  0.4633 -0.2088
  154MOL    C3012576   3.893   1.109   4.487 -0.8840  0.1692 -1.0220
  154MOL    O3112577   3.946   1.144   4.608 -0.2276  0.1115  0.0532
  154MOL    H3212578   3.961   1.036   4.442  1.3583  1.6302 -0.1391
  154MOL    H3312579   3.799   1.059   4.506  0.5799 -2.5641 -0.7297
  154MOL    C3412580   3.976   1.038   4.695 -0.3015  0.4369 -0.1054
  154MOL    O3512581   3.864   1.003   4.772  0.2507 -0.3952 -0.0483
  154MOL    H3612582   4.062   1.062   4.757  0.5148  1.7036 -1.6861
  154MOL    H3712583   4.016   0.962   4.629  1.9104  0.7749  0.8185
  154MOL    C3812584   3.822   1.105   4.865  0.1804 -0.3645  0.0387
  154MOL    O3912585   3.765   1.065   4.982  0.5689 -0.0310  0.0880
  154MOL    H4012586   3.741   1.147   4.804 -0.2296 -0.5713  0.4371
  154MOL    H4112587   3.894   1.186   4.876 -0.1654  0.2559 -2.0910
  154MOL    C4212588   3.853   0.989   5.054 -0.6274 -0.1095  0.0665
  154MOL    O4312589   3.952   1.069   5.117 -0.4522  0.6711 -0.1089
  154MOL    H4412590   3.913   0.915   5.001  0.3866  0.1438  0.8420
  154MOL    H4512591   3.791   0.938   5.127 -1.4859  0.8325 -0.0034
  154MOL    C4612592   3.898   1.180   5.187 -0.3992  0.4666 -0.1946
  154MOL    O4712593   3.811   1.130   5.288  0.1293 -0.4769  0.2263
  154MOL    H4812594   3.847   1.252   5.123  0.0683 -1.1919 -2.5081
  154MOL    H4912595   3.976   1.244   5.228  1.3155 -0.3237 -2.1224
  154MOL    C5012596   3.775   1.226   5.390 -1.0465  0.5496  0.6135
  154MOL    O5112597   3.876   1.248   5.480 -0.8829  0.2809  0.0744
  154MOL    H5212598   3.683   1.201   5.444 -0.6061 -0.5596  0.8703
  154MOL    H5312599   3.745   1.319   5.341  2.7631  1.0676 -0.8659
  154MOL    C5412600   3.896   1.149   5.568  0.4930  0.9313 -0.2107
  154MOL    O5512601   3.813   1.171   5.683 -0.6898 -0.5408  0.2205
  154MOL    H5612602   4.000   1.146   5.599  1.3390  2.6874 -2.7205
  154MOL    H5712603   3.880   1.054   5.516 -0.4528  0.9417  0.0560
  154MOL    C5812604   3.805   1.059   5.763 -0.1454 -0.5266 -0.5173
  154MOL    O5912605   3.704   0.968   5.726  0.3276  0.2861  0.0117
  154MOL    H6012606   3.783   1.081   5.867 -0.2481 -3.1762  0.0524
  154MOL    H6112607   3.903   1.012   5.766 -0.2824 -0.7501  0.4511
  154MOL    C6212608   3.710   0.859   5.813  0.3324  0.2483  0.4823
  154MOL    O6312609   3.632   0.883   5.923 -0.2605 -0.0786 -0.1401
  154MOL    H6412610   3.812   0.828   5.837  0.5671  0.9218  0.3899
  154MOL    H6512611   3.666   0.779   5.754 -0.1520  2.7049 -2.6418
  154MOL    C6612612   3.497   0.885   5.910  0.0514 -0.1487  0.6027
  154MOL    O6712613   3.449   0.759   5.883 -0.3890  0.6096  0.2790
  154MOL    H6812614   3.470   0.955   5.831 -2.1454  0.0398  1.4877
  154MOL    H6912615   3.448   0.915   6.002  1.3975 -0.0927  1.3120
  154MOL    C7012616   3.476   0.672   5.988 -0.3383  0.0265 -0.5102
  154MOL    O7112617   3.419   0.699   6.119  0.0079 -0.0715 -1.2086
  154MOL    H7212618   3.583   0.666   6.007 -0.3681 -0.7560 -0.5640
  154MOL    H7312619   3.441   0.572   5.960  0.9631 -1.3815  2.6616
  154MOL    C7412620   3.290   0.661   6.133 -0.0462  0.0122  0.1187
  154MOL    O7512621   3.283   0.517   6.130 -0.2309  0.5160 -0.6599
  154MOL    H7612622   3.230   0.701   6.051  1.4942  0.7703 -0.6559
  154MOL    H7712623   3.252   0.709   6.223  1.7566 -0.1302  0.9738
  154MOL    C7812624   3.336   0.446   6.239  0.1912  0.1229  0.0295
  154MOL    O7912625   3.312   0.303   6.230 -0.0722  0.7722  0.5736
  154MOL    H8012626   3.297   0.486   6.332  0.4391  1.2990 -0.3617
  154MOL    H8112627   3.444   0.462   6.238  0.3091 -0.7062 -1.0941
  154MOL    H8212628   3.360   0.256   6.165 -0.7620  0.8869 -0.0287
  155MOL     C112629   1.921   6.747   2.541  0.1991 -0.0547 -0.5859
  155MOL     O212630   1.788   6.798   2.571 -0.6539 -0.3743 -0.1453
  155MOL     H312631   1.920   6.639   2.535  0.6927 -0.0976  0.1302
  155MOL     H412632   1.970   6.793   2.455  1.7441  1.1335  0.8862
  155MOL     H512633   1.994   6.769   2.619  0.8700  0.9249 -1.4718
  155MOL     C612634   1.684   6.727   2.510 -0.9891  0.6236  0.1692
  155MOL     O712635   1.677   6.752   2.378  0.1685  0.5402 -0.2178
  155MOL     H812636   1.599   6.774   2.560  0.5546  0.5967  2.9222
  155MOL     H912637   1.691   6.620   2.532  2.8380  0.9515  0.9294
  155MOL    C1012638   1.546   6.744   2.328  0.1668  0.1513 -0.3979
  155MOL    O1112639   1.468   6.853   2.365 -0.1662 -0.4072 -0.2911
  155MOL    H1212640   1.491   6.651   2.345  2.3680 -1.0430  0.3210
  155MOL    H1312641   1.544   6.747   2.220 -0.9104 -1.9370 -0.4575
  155MOL    C1412642   1.496   6.968   2.286 -0.2267  0.1995 -0.6077
  155MOL    O1512643   1.447   6.967   2.154  0.8128  0.2089 -0.4602
  155MOL    H1612644   1.604   6.974   2.288 -0.2842  1.2339 -0.4599
  155MOL    H1712645   1.439   7.039   2.347  0.7094 -0.6714  1.3301
  155MOL    C1812646   1.460   7.099   2.096  0.8329 -0.1459 -0.1340
  155MOL    O1912647   1.358   7.188   2.125  0.1053 -0.4539  0.3550
  155MOL    H2012648   1.460   7.095   1.987  1.8950 -0.3154 -0.1365
  155MOL    H2112649   1.554   7.140   2.133  1.0600 -1.3271  0.6292
  155MOL    C2212650   1.228   7.146   2.075  0.8069  0.3505 -0.1925
  155MOL    O2312651   1.225   7.144   1.936 -0.4353  0.2186  0.0579
  155MOL    H2412652   1.151   7.211   2.116 -1.3418 -1.5550 -1.1228
  155MOL    H2512653   1.209   7.046   2.114  1.7808  0.5227  0.7709
  155MOL    C2612654   1.221   7.275   1.886 -0.6510  0.1818  0.3132
  155MOL    O2712655   1.088   7.323   1.888 -0.6103  0.1830 -0.3833
  155MOL    H2812656   1.245   7.255   1.782 -0.3639  1.6082  0.0889
  155MOL    H2912657   1.304   7.333   1.927 -1.5390  1.1587  0.7236
  155MOL    C3012658   1.083   7.442   1.809  0.2269 -0.0580 -0.7878
  155MOL    O3112659   0.955   7.464   1.779 -0.1925  0.0452 -0.1935
  155MOL    H3212660   1.117   7.428   1.707 -1.0803 -1.1725 -1.0790
  155MOL    H3312661   1.136   7.527   1.852  0.7983 -1.4353  1.3537
  155MOL    C3412662   0.882   7.522   1.877 -0.1341 -0.3821  0.2022
  155MOL    O3512663   0.913   7.660   1.878  0.3916 -0.1148 -0.1463
  155MOL    H3612664   0.908   7.481   1.974  1.9545 -1.0140 -0.5893
  155MOL    H3712665   0.777   7.496   1.861 -0.0917 -1.3822  1.5044
  155MOL    C3812666   0.839   7.726   1.783 -0.5645  0.4533  0.0487
  155MOL    O3912667   0.704   7.749   1.816  0.0767  0.2311 -0.2460
  155MOL    H4012668   0.846   7.670   1.690 -2.6634 -0.8247  0.6438
  155MOL    H4112669   0.885   0.040   1.769  1.9731 -0.4596  1.5929
  155MOL    C4212670   0.699   0.058   1.916 -0.7277  0.3709 -0.4317
  155MOL    O4312671   0.631   0.176   1.874 -0.2591 -0.5325  0.1249
  155MOL    H4412672   0.793   0.088   1.962 -0.3269 -0.7632 -0.5194
  155MOL    H4512673   0.636   0.003   1.986  0.9816  1.5032  2.0581
  155MOL    C4612674   0.701   0.250   1.776 -0.2947  0.3701  0.0700
  155MOL    O4712675   0.830   0.292   1.820  0.0244 -0.4560 -0.6011
  155MOL    H4812676   0.643   0.332   1.733 -1.7256  0.2547  1.7129
  155MOL    H4912677   0.699   0.188   1.686 -2.2044 -1.3136  1.2108
  155MOL    C5012678   0.818   0.413   1.884 -0.0160  0.3646 -0.0373
  155MOL    O5112679   0.937   0.443   1.941  0.0520 -0.0727 -0.4824
  155MOL    H5212680   0.739   0.410   1.958  0.2759 -0.6244  0.2386
  155MOL    H5312681   0.807   0.492   1.809 -0.2222  2.1565  1.8642
  155MOL    C5412682   0.948   0.572   1.999  0.0778  0.4045  0.4838
  155MOL    O5512683   0.948   0.673   1.908  0.0046  0.1310 -0.0484
  155MOL    H5612684   1.034   0.570   2.066 -0.2227  0.2821  0.8650
  155MOL    H5712685   0.860   0.584   2.062 -1.1219  0.7050 -1.1934
  155MOL    C5812686   1.064   0.680   1.834 -0.0630 -0.1523  0.3344
  155MOL    O5912687   1.057   0.610   1.715 -0.6099 -0.3746  0.3984
  155MOL    H6012688   1.147   0.628   1.882  0.0937 -1.4627 -1.2894
  155MOL    H6112689   1.089   0.785   1.817 -1.1461 -0.4237 -3.5171
  155MOL    C6212690   0.992   0.691   1.616  0.3688  0.2498  0.1800
  155MOL    O6312691   1.083   0.771   1.541 -0.0558 -0.0275  0.2052
  155MOL    H6412692   0.916   0.758   1.656  1.7165  0.9054  1.6917
  155MOL    H6512693   0.941   0.622   1.549  0.0887  2.5355 -2.0733
  155MOL    C6612694   1.168   0.694   1.462 -0.4546 -0.7897  0.0925
  155MOL    O6712695   1.104   0.642   1.346 -0.5085 -0.2353 -0.2784
  155MOL    H6812696   1.216   0.618   1.524  2.5510  0.8855 -0.0481
  155MOL    H6912697   1.256   0.754   1.439  1.4406 -1.9445  3.7861
  155MOL    C7012698   1.187   0.568   1.262  0.2033  0.0367  0.3742
  155MOL    O7112699   1.218   0.448   1.322  0.1065  0.3753 -0.5672
  155MOL    H7212700   1.272   0.631   1.236 -0.1036 -0.0350 -0.8771
  155MOL    H7312701   1.123   0.560   1.174  0.9729 -0.2480 -0.1667
  155MOL    C7412702   1.262   0.357   1.225 -0.1678  0.2479  0.0295
  155MOL    O7512703   1.385   0.388   1.176  0.4501  0.7378 -0.1607
  155MOL    H7612704   1.191   0.348   1.143 -1.1578  0.5435  0.8429
  155MOL    H7712705   1.261   0.258   1.270  1.1976 -0.6175 -1.7531
  155MOL    C7812706   1.478   0.380   1.265  0.0281  0.2381  0.8419
  155MOL    O7912707   1.601   0.441   1.231  0.1406 -0.3359 -0.1086
  155MOL    H8012708   1.500   0.278   1.296  0.4653  0.3366  0.8608
  155MOL    H8112709   1.443   0.434   1.353 -1.2662  0.7233  0.0569
  155MOL    H8212710   1.641   0.395   1.159 -1.1036 -1.7327  0.0680
  156MOL     C112711   0.595   0.822   7.499  0.0779 -0.1511  0.1513
  156MOL     O212712   0.514   0.751   7.591 -0.0520  0.5168  0.1383
  156MOL     H312713   0.655   0.911   7.517 -0.5184  0.0528  1.1433
  156MOL     H412714   0.662   0.750   7.452 -0.8007  0.1778 -1.6330
  156MOL     H512715   0.525   0.853   7.422 -1.6291 -2.2627  0.7927
  156MOL     C612716   0.419   0.834   7.647 -0.9260  0.4496  0.0297
  156MOL     O712717   0.485   0.924   7.733  0.0355  0.2096  0.1467
  156MOL     H812718   0.356   0.770   7.708  0.3835  1.0335  2.0434
  156MOL     H912719   0.349   0.875   7.573 -1.4295 -2.3856 -1.1131
  156MOL    C1012720   0.520   0.875   0.075  0.0349  0.2076 -0.1018
  156MOL    O1112721   0.425   0.919   0.166 -0.3968 -0.2275 -0.0936
  156MOL    H1212722   0.622   0.904   0.100  0.1978  0.1613 -0.7070
  156MOL    H1312723   0.510   0.766   0.069 -0.9511  0.2732  0.2555
  156MOL    C1412724   0.442   1.049   0.205  0.0313 -0.5230  0.5914
  156MOL    O1512725   0.551   1.068   0.284  0.4235 -0.0236  0.5069
  156MOL    H1612726   0.345   1.093   0.229 -0.4849 -0.7906 -0.9017
  156MOL    H1712727   0.467   1.107   0.116 -0.3725  0.1568  0.9214
  156MOL    C1812728   0.514   1.074   0.419  0.4451  0.1241  0.3243
  156MOL    O1912729   0.433   1.192   0.434 -0.0495  0.5705  0.5533
  156MOL    H2012730   0.601   1.094   0.481 -0.4082  1.3912  1.1390
  156MOL    H2112731   0.455   0.986   0.445  0.0422  0.2969 -0.0012
  156MOL    C2212732   0.512   1.306   0.461 -0.4136 -0.2205 -0.1816
  156MOL    O2312733   0.575   1.308   0.587  0.6266  0.2962 -0.0868
  156MOL    H2412734   0.461   1.402   0.450 -1.2694 -0.5153  1.1269
  156MOL    H2512735   0.587   1.311   0.382 -1.1458 -0.0129 -0.8793
  156MOL    C2612736   0.476   1.326   0.682 -0.1714 -0.5933 -0.3380
  156MOL    O2712737   0.457   1.465   0.688 -0.2931 -0.1263  0.0940
  156MOL    H2812738   0.504   1.277   0.776  2.4041  0.7770 -0.3352
  156MOL    H2912739   0.394   1.262   0.650  0.2232 -1.4728  0.3815
  156MOL    C3012740   0.542   1.533   0.775 -0.4572  0.3783 -0.2356
  156MOL    O3112741   0.495   1.513   0.908 -0.0385  0.5913  0.7445
  156MOL    H3212742   0.553   1.639   0.753  2.9555  0.2552  0.6797
  156MOL    H3312743   0.642   1.491   0.770 -0.5296  0.2066 -0.2504
  156MOL    C3412744   0.411   1.605   0.950 -0.0762 -0.1363 -0.2610
  156MOL    O3512745   0.482   1.716   0.998 -0.8387 -0.7080 -0.0991
  156MOL    H3612746   0.351   1.563   1.031  0.8291  1.5080  1.2872
  156MOL    H3712747   0.348   1.634   0.866 -0.0404  1.5346  0.2690
  156MOL    C3812748   0.549   1.686   1.122 -0.3886 -0.3282 -0.1119
  156MOL    O3912749   0.451   1.687   1.218  0.3245 -0.1108 -0.0169
  156MOL    H4012750   0.626   1.761   1.137 -0.6099 -0.2165  0.5181
  156MOL    H4112751   0.595   1.588   1.115  0.9790  0.3410 -0.6999
  156MOL    C4212752   0.488   1.728   1.344  0.0159  0.3046 -0.0057
  156MOL    O4312753   0.381   1.735   1.437  0.1838 -0.1323 -0.6573
  156MOL    H4412754   0.545   1.820   1.342  2.3380 -1.1001 -0.6843
  156MOL    H4512755   0.551   1.646   1.380 -0.2911  0.6576  1.3823
  156MOL    C4612756   0.318   1.613   1.459  0.1727  0.4590 -0.2567
  156MOL    O4712757   0.265   1.561   1.342  0.0474 -0.1981  0.4632
  156MOL    H4812758   0.238   1.620   1.534  1.0054 -1.7095  0.8701
  156MOL    H4912759   0.394   1.553   1.508 -1.1564 -0.2467  0.9922
  156MOL    C5012760   0.160   1.632   1.285  0.1331 -0.1524 -0.1297
  156MOL    O5112761   0.045   1.614   1.361 -0.5721 -0.2130 -0.1982
  156MOL    H5212762   0.140   1.608   1.181 -1.9254  1.4668 -0.1356
  156MOL    H5312763   0.170   1.741   1.282  2.8375 -0.3337  0.8710
  156MOL    C5412764   0.014   1.473   1.380  0.1897 -0.9380 -0.2723
  156MOL    O5512765   7.756   1.421   1.262  1.3036  0.8130 -0.1350
  156MOL    H5612766   7.731   1.470   1.467 -2.0162  3.3024 -1.6491
  156MOL    H5712767   0.105   1.422   1.411  1.9186  1.2675 -1.5419
  156MOL    C5812768   7.626   1.455   1.242 -0.4234 -0.3088 -0.0929
  156MOL    O5912769   7.561   1.371   1.150 -0.1673  0.4523 -0.8288
  156MOL    H6012770   7.631   1.552   1.194  0.1859 -0.7444 -0.9198
  156MOL    H6112771   7.569   1.456   1.335  0.7101  1.2419  0.5948
  156MOL    C6212772   7.497   1.252   1.199 -0.0944  0.3280  0.0660
  156MOL    O6312773   7.397   1.293   1.285 -0.1435 -0.3075 -0.0831
  156MOL    H6412774   7.558   1.172   1.241  1.0303 -0.0456 -2.1898
  156MOL    H6512775   7.459   1.215   1.104 -0.6202  0.3014  0.2845
  156MOL    C6612776   7.333   1.187   1.360 -0.1633 -0.3028  0.2232
  156MOL    O6712777   7.423   1.122   1.447 -0.3620  0.3319  0.6624
  156MOL    H6812778   7.311   1.121   1.276 -0.2620 -0.0697  0.0680
  156MOL    H6912779   7.232   1.210   1.395 -0.4554 -0.3922 -0.5558
  156MOL    C7012780   7.453   1.206   1.556  0.4572  0.4554 -0.1077
  156MOL    O7112781   7.534   1.143   1.651  0.0850 -0.5180  0.3263
  156MOL    H7212782   7.364   1.202   1.618  1.1770 -1.6736  0.8258
  156MOL    H7312783   7.473   1.313   1.542  0.8358  0.2493 -1.2195
  156MOL    C7412784   7.672   1.141   1.624  0.3573  1.1164  0.2885
  156MOL    O7512785   7.725   1.270   1.624  0.5821  0.3914  0.5968
  156MOL    H7612786   7.690   1.076   1.539 -0.3018  0.4052  0.6815
  156MOL    H7712787   7.711   1.082   1.707 -1.2673  0.8478  0.8914
  156MOL    C7812788   7.723   1.333   1.745  0.0487  0.0453 -0.3820
  156MOL    O7912789   7.732   1.476   1.726  0.2673 -0.6637 -0.3711
  156MOL    H8012790   0.022   1.306   1.810 -0.0803 -0.1694 -0.3075
  156MOL    H8112791   7.632   1.316   1.802  0.4799 -0.2471  0.2182
  156MOL    H8212792   7.647   1.502   1.693  0.1809 -0.9624 -0.3815
  157MOL     C112793   6.648   7.403   0.525 -0.9600  0.1093  0.1250
  157MOL     O212794   6.563   7.341   0.424 -0.3936  0.3072  0.0986
  157MOL     H312795   6.673   7.331   0.603  0.9886  0.8002  0.1698
  157MOL     H412796   6.740   7.442   0.482 -0.9527 -0.8471 -0.7403
  157MOL     H512797   6.584   7.478   0.573 -0.7837  0.5481 -0.3143
  157MOL     C612798   6.521   7.436   0.336  0.8601  0.0315  0.2626
  157MOL     O712799   6.623   7.493   0.261 -0.3534  0.6973 -0.5412
  157MOL     H812800   6.475   7.518   0.392 -0.1530 -3.1712  4.3134
  157MOL     H912801   6.449   7.395   0.265  0.0639  0.5081  0.7814
  157MOL    C1012802   6.693   7.401   0.182  0.2678  0.7812  0.1979
  157MOL    O1112803   6.815   7.454   0.132  0.1515  0.1382 -0.0399
  157MOL    H1212804   6.638   7.371   0.093 -0.8518  3.8472 -0.2108
  157MOL    H1312805   6.720   7.313   0.241  0.1750  1.1201  0.7499
  157MOL    C1412806   6.918   7.468   0.226  0.3088  0.4657 -0.2500
  157MOL    O1512807   6.975   7.343   0.268  0.5799 -0.4161  0.3866
  157MOL    H1612808   6.890   7.528   0.313 -0.4946  1.7600 -1.3907
  157MOL    H1712809   7.002   7.530   0.193 -0.1412  2.1240  1.6203
  157MOL    C1812810   7.090   7.309   0.201  0.8606  0.5770 -0.1973
  157MOL    O1912811   7.200   7.382   0.235  0.0093  0.2710 -0.4453
  157MOL    H2012812   7.080   7.308   0.092  2.7113  0.2284 -0.3768
  157MOL    H2112813   7.109   7.204   0.224  0.7315  0.7745  0.8405
  157MOL    C2212814   7.264   7.342   0.353 -0.2290  0.0595  0.0058
  157MOL    O2312815   7.328   7.223   0.346 -0.0690  0.4798  0.9388
  157MOL    H2412816   7.182   7.338   0.424 -0.8230 -1.2709 -0.7336
  157MOL    H2512817   7.334   7.422   0.376 -0.0274 -0.8931  2.8414
  157MOL    C2612818   7.435   7.227   0.254  0.5685 -0.2708 -0.7190
  157MOL    O2712819   7.490   7.102   0.230  0.7216 -0.3459  0.3964
  157MOL    H2812820   7.513   7.299   0.279 -0.3759  0.8272 -0.8372
  157MOL    H2912821   7.379   7.249   0.163 -0.4805 -0.7810 -0.2090
  157MOL    C3012822   7.534   7.034   0.344 -0.5010  0.1035  0.2400
  157MOL    O3112823   7.672   7.059   0.348 -0.2097 -0.3480  0.1233
  157MOL    H3212824   7.519   6.927   0.329 -1.5687  0.4698 -1.4143
  157MOL    H3312825   7.481   7.058   0.437 -0.5159 -0.0554  0.2726
  157MOL    C3412826   7.742   6.988   0.448 -0.1101 -0.5939 -0.6431
  157MOL    O3512827   7.728   7.044   0.577  0.5487  0.2641 -0.6164
  157MOL    H3612828   0.062   6.988   0.416 -0.0316 -0.2268 -0.3901
  157MOL    H3712829   7.716   6.882   0.450 -0.4318 -0.5092  1.2933
  157MOL    C3812830   0.030   7.146   0.599 -0.1082  0.0393 -0.7010
  157MOL    O3912831   0.154   7.111   0.643 -0.0727  0.0050  0.3798
  157MOL    H4012832   7.763   7.199   0.681 -2.2841 -2.1513 -0.5742
  157MOL    H4112833   0.036   7.210   0.511  1.1115 -0.1797 -0.7790
  157MOL    C4212834   0.250   7.197   0.602 -0.2250  0.2244  0.8965
  157MOL    O4312835   0.273   7.195   0.461 -0.1854 -0.3455  0.0715
  157MOL    H4412836   0.342   7.173   0.656 -0.6851 -3.4520  0.1911
  157MOL    H4512837   0.213   7.299   0.617 -1.3951  0.0382 -0.6971
  157MOL    C4612838   0.366   7.098   0.427  0.0594 -0.4046 -0.0747
  157MOL    O4712839   0.496   7.135   0.454 -0.3680  0.0588  0.9138
  157MOL    H4812840   0.360   7.078   0.320  1.9003  2.1624 -0.7026
  157MOL    H4912841   0.343   7.000   0.470 -0.0469  0.1811  1.2275
  157MOL    C5012842   0.531   7.241   0.375  0.0059  0.1505  0.4760
  157MOL    O5112843   0.498   7.365   0.428  0.7501 -0.0225  0.5887
  157MOL    H5212844   0.490   7.231   0.275  1.8469  0.5049 -0.3362
  157MOL    H5312845   0.638   7.240   0.353 -0.0344  3.2857  0.0368
  157MOL    C5412846   0.597   7.399   0.520  0.2244 -0.4258  1.0179
  157MOL    O5512847   0.705   7.459   0.455  0.1287  0.3927 -0.2351
  157MOL    H5612848   0.638   7.309   0.566  0.8299 -0.1334  1.0509
  157MOL    H5712849   0.564   7.466   0.599 -2.1079  0.4301 -0.6249
  157MOL    C5812850   0.679   7.592   0.412  0.1515  0.8068 -0.4561
  157MOL    O5912851   0.648   7.681   0.520  0.5375 -0.1149  0.6990
  157MOL    H6012852   0.599   7.595   0.338  0.4499  1.5756 -0.7430
  157MOL    H6112853   0.766   7.635   0.364  0.4048 -2.0993 -2.7386
  157MOL    C6212854   0.755   7.696   0.608 -0.6216 -0.2431 -0.1135
  157MOL    O6312855   0.851   0.001   0.560  0.1145  0.6560  0.1193
  157MOL    H6412856   0.804   7.600   0.627 -2.6784 -1.1909  0.5520
  157MOL    H6512857   0.724   7.729   0.707 -1.2028 -1.1034 -0.0049
  157MOL    C6612858   0.813   0.132   0.548 -0.1880 -0.3486  0.0309
  157MOL    O6712859   0.751   0.190   0.657  0.1234 -0.4890 -0.2508
  157MOL    H6812860   0.759   0.152   0.455 -1.6972 -0.4058  0.8770
  157MOL    H6912861   0.908   0.182   0.530  0.4420 -1.8096 -0.7952
  157MOL    C7012862   0.749   0.325   0.642 -0.2903 -0.0216  0.1467
  157MOL    O7112863   0.871   0.390   0.648 -0.0600  0.4526  0.4087
  157MOL    H7212864   0.697   0.347   0.736  2.6191  0.9159  1.5745
  157MOL    H7312865   0.686   0.367   0.563  0.7240  0.0975 -0.6002
  157MOL    C7412866   0.970   0.332   0.732  0.0816  0.2578  0.2925
  157MOL    O7512867   1.037   0.433   0.799  0.0741 -0.2200 -0.2724
  157MOL    H7612868   1.043   0.289   0.664 -1.0741 -0.5168 -0.4854
  157MOL    H7712869   0.937   0.254   0.800  0.0999  0.3457  0.4011
  157MOL    C7812870   0.956   0.501   0.887 -0.3335 -0.6601  0.2768
  157MOL    O7912871   0.915   0.431   1.003  0.1535  0.2592 -0.3091
  157MOL    H8012872   0.864   0.547   0.849  1.7380  1.6600 -2.0997
  157MOL    H8112873   1.023   0.585   0.906 -1.7649  0.9235 -1.3655
  157MOL    H8212874   0.851   0.479   1.053 -1.0275 -1.5433 -0.0265
  158MOL     C112875   7.581   4.258   3.306  0.4478  1.3600  0.5108
  158MOL     O212876   7.510   4.356   3.231 -0.3650 -0.3077  0.4263
  158MOL     H312877   7.511   4.184   3.345  0.8045  0.1099 -1.1818
  158MOL     H412878   7.658   4.201   3.256  0.1068 -1.6863  3.3022
  158MOL     H512879   7.631   4.292   3.397 -0.0465  2.2812  0.4541
  158MOL     C612880   7.598   4.428   3.153 -0.4141  0.0172  0.1083
  158MOL     O712881   7.686   4.502   3.230 -0.5678 -0.2950  0.0445
  158MOL     H812882   7.534   4.494   3.094 -1.6894 -0.0040  1.4351
  158MOL     H912883   7.652   4.363   3.084 -2.1994  0.1552 -1.4526
  158MOL    C1012884   7.623   4.604   3.305 -0.7401  0.4738  0.3310
  158MOL    O1112885   7.643   4.726   3.243  0.5292  0.4062  0.3500
  158MOL    H1212886   7.674   4.615   3.400 -1.2013  2.2585  0.3856
  158MOL    H1312887   7.521   4.584   3.339  0.0876  0.0392  2.6326
  158MOL    C1412888   7.533   4.769   3.171  0.0773  0.6219 -0.0033
  158MOL    O1512889   7.489   4.883   3.238  0.4558  0.0720  0.0794
  158MOL    H1612890   7.453   4.700   3.145 -0.3464  0.9632  0.3843
  158MOL    H1712891   7.578   4.796   3.075  2.4064 -0.6185  0.6909
  158MOL    C1812892   7.410   4.844   3.345  0.2520 -0.1377  0.0441
  158MOL    O1912893   7.290   4.777   3.304  0.0541 -0.1785 -0.0884
  158MOL    H2012894   7.373   4.935   3.393  1.3088  0.9543 -1.1703
  158MOL    H2112895   7.458   4.778   3.417  1.2957 -0.8604 -1.2985
  158MOL    C2212896   7.177   4.792   3.392  0.2075  0.8468  0.8458
  158MOL    O2312897   7.219   4.786   3.527  1.0476 -0.7139  0.2713
  158MOL    H2412898   7.098   4.723   3.362  1.4843 -0.5232  0.5809
  158MOL    H2512899   7.149   4.896   3.375  0.2766  1.0402  1.8895
  158MOL    C2612900   7.247   4.660   3.576  0.2107 -0.1674 -1.3057
  158MOL    O2712901   7.128   4.621   3.647  0.0162  0.3860  1.0188
  158MOL    H2812902   7.332   4.679   3.641  1.0831  0.9471 -2.7388
  158MOL    H2912903   7.251   4.588   3.494 -0.8256 -0.4256 -1.1320
  158MOL    C3012904   7.091   4.716   3.743 -0.2166  0.1813 -0.0830
  158MOL    O3112905   6.999   4.662   3.837  0.6155  0.1158 -0.3378
  158MOL    H3212906   7.035   4.789   3.685 -2.2508 -1.6023 -0.4203
  158MOL    H3312907   7.175   4.760   3.798  0.7850 -0.7110 -0.8784
  158MOL    C3412908   7.062   4.580   3.927  0.5143 -0.1694  0.5970
  158MOL    O3512909   7.130   4.660   4.015  0.0508 -0.8777  0.1589
  158MOL    H3612910   7.129   4.512   3.875 -2.1230 -1.1295 -1.6279
  158MOL    H3712911   6.975   4.525   3.962  1.0468  0.1858  2.5699
  158MOL    C3812912   7.195   4.578   4.109  0.1740 -0.0919  0.2906
  158MOL    O3912913   7.319   4.531   4.057 -0.2179  0.2870  0.6060
  158MOL    H4012914   7.130   4.497   4.143 -0.4579  1.1013  1.9846
  158MOL    H4112915   7.213   4.640   4.197 -1.7990  1.4121 -0.3263
  158MOL    C4212916   7.411   4.634   4.037 -0.3338 -0.0587  0.5141
  158MOL    O4312917   7.435   4.700   4.160 -0.0663 -0.6143  0.3075
  158MOL    H4412918   7.362   4.702   3.967  0.3780 -2.1424 -2.0860
  158MOL    H4512919   7.503   4.591   3.996 -0.1252 -0.0617  0.9796
  158MOL    C4612920   7.511   4.629   4.249 -0.1237 -0.1372  0.3422
  158MOL    O4712921   7.646   4.650   4.245 -0.0452 -0.0128 -0.0574
  158MOL    H4812922   7.510   4.523   4.227 -1.1568  0.1958 -1.2874
  158MOL    H4912923   7.469   4.643   4.349  0.8904  2.5984  0.4289
  158MOL    C5012924   7.696   4.733   4.348 -0.5798  0.6317 -0.8830
  158MOL    O5112925   7.726   4.654   4.459  0.2557  0.0518  0.5831
  158MOL    H5212926   7.634   4.814   4.386 -1.8555  0.2402 -2.0766
  158MOL    H5312927   0.006   4.773   4.310 -1.2880  2.0209 -1.1750
  158MOL    C5412928   0.024   4.546   4.428 -0.2192  1.1351  0.0401
  158MOL    O5512929   0.063   4.481   4.543  0.1732  0.3248 -0.8142
  158MOL    H5612930   0.114   4.579   4.375  0.3897  1.5503  1.3252
  158MOL    H5712931   7.770   4.467   4.364 -0.1077  0.5714  0.6647
  158MOL    C5812932   7.751   4.396   4.597  0.2698 -0.6282 -0.9150
  158MOL    O5912933   7.699   4.305   4.511  0.3568  0.3349 -0.0918
  158MOL    H6012934   7.668   4.460   4.628  0.0738 -0.3818 -1.9275
  158MOL    H6112935   0.011   4.357   4.689 -1.7205  0.4418  0.5161
  158MOL    C6212936   7.784   4.196   4.484 -0.3947  0.0668  0.0545
  158MOL    O6312937   7.767   4.098   4.584  0.6703  0.0410 -0.2473
  158MOL    H6412938   0.101   4.237   4.483 -0.4934  0.3123 -1.9727
  158MOL    H6512939   7.773   4.159   4.382  0.9849 -1.5232  0.4800
  158MOL    C6612940   7.659   4.018   4.555  0.1421  0.1713 -0.2111
  158MOL    O6712941   7.688   3.930   4.445 -0.0161 -0.1413 -0.0561
  158MOL    H6812942   7.566   4.073   4.539 -0.2117 -0.5541 -0.6687
  158MOL    H6912943   7.647   3.958   4.645  2.0856  1.4874  0.9725
  158MOL    C7012944   0.005   3.837   4.467  0.5002 -0.6782 -0.7930
  158MOL    O7112945   0.011   3.746   4.367  0.2750 -0.3756  0.4750
  158MOL    H7212946   7.775   3.786   4.563 -0.2971  0.1711 -0.4528
  158MOL    H7312947   0.100   3.890   4.479  2.3062 -3.5026 -2.0335
  158MOL    C7412948   0.055   3.794   4.248  0.2597  0.4729  0.9153
  158MOL    O7512949   0.192   3.834   4.256 -0.5854  0.3554 -0.0061
  158MOL    H7612950   7.779   3.879   4.213  0.6458  0.6742  0.7462
  158MOL    H7712951   0.046   3.716   4.173 -0.9040 -0.9501  2.4745
  158MOL    C7812952   0.284   3.738   4.215 -0.6764  0.3516  0.1425
  158MOL    O7912953   0.415   3.769   4.274 -0.2355  0.3308 -0.2589
  158MOL    H8012954   0.290   3.735   4.106  0.8232 -0.7733  0.2369
  158MOL    H8112955   0.251   3.637   4.242 -1.0965  0.4493 -0.0064
  158MOL    H8212956   0.459   3.828   4.215 -1.3263  0.9191 -0.5053
  159MOL     C112957   3.876   7.550   0.084 -0.4920 -0.0647  0.0638
  159MOL     O212958   3.863   7.411   0.075 -0.3817 -0.5942  1.2462
  159MOL     H312959   3.931   7.598   0.002 -0.6476  1.3561  0.7703
  159MOL     H412960   3.788   7.607   0.115 -0.7772 -0.7989  0.6153
  159MOL     H512961   3.943   7.575   0.166  0.2116 -0.4268 -0.3980
  159MOL     C612962   3.988   7.351   0.073 -1.0599 -0.7825  0.8028
  159MOL     O712963   4.066   7.361   0.188  0.3435 -0.1523 -0.2915
  159MOL     H812964   4.041   7.393   7.772  0.6643 -0.7753  1.8662
  159MOL     H912965   3.979   7.247   0.043 -0.1523 -0.2257 -1.4729
  159MOL    C1012966   4.006   7.306   0.305 -0.2725  0.6879 -0.3197
  159MOL    O1112967   3.987   7.165   0.301  0.1372  0.2005 -0.1774
  159MOL    H1212968   3.908   7.353   0.310 -1.0213 -0.9227  0.8228
  159MOL    H1312969   4.073   7.328   0.388  0.7942  0.4511 -1.0980
  159MOL    C1412970   4.105   7.087   0.300 -0.3015  0.1029 -0.2008
  159MOL    O1512971   4.079   6.950   0.284 -0.5102  0.2714  0.3010
  159MOL    H1612972   4.145   7.105   0.400  0.1736 -1.4123 -0.1052
  159MOL    H1712973   4.171   7.131   0.225  1.2607 -3.2711 -0.9207
  159MOL    C1812974   4.010   6.905   0.391  0.9447 -0.0411 -0.3960
  159MOL    O1912975   4.078   6.910   0.513 -0.2709  0.1374  0.1940
  159MOL    H2012976   3.987   6.802   0.365  0.7945  0.4123 -2.0902
  159MOL    H2112977   3.913   6.955   0.389 -0.1096 -2.0142 -0.0101
  159MOL    C2212978   4.003   6.841   0.616 -0.0503  0.3346 -0.3593
  159MOL    O2312979   4.061   6.880   0.739  0.3634  0.0069  0.4209
  159MOL    H2412980   4.000   6.734   0.599 -1.9954  0.0140  1.7762
  159MOL    H2512981   3.897   6.861   0.629 -0.3976 -2.8202  2.3984
  159MOL    C2612982   4.167   6.792   0.776 -0.0081  0.0057 -0.0103
  159MOL    O2712983   4.126   6.659   0.804  0.3783  0.8251 -0.4137
  159MOL    H2812984   4.212   6.839   0.864 -3.3968 -0.3905  2.0492
  159MOL    H2912985   4.249   6.777   0.706 -0.8916 -2.2298 -0.5950
  159MOL    C3012986   4.042   6.650   0.920 -0.0255  0.0205  0.1031
  159MOL    O3112987   4.118   6.630   1.039 -0.7580 -0.2119 -0.4288
  159MOL    H3212988   3.973   6.567   0.911  1.1499 -0.9710  0.0494
  159MOL    H3312989   3.972   6.733   0.926 -0.3003 -0.3592  3.0314
  159MOL    C3412990   4.191   6.508   1.043 -0.5419  0.4944  0.4277
  159MOL    O3512991   4.115   6.397   1.013  0.3145  0.8629  0.0687
  159MOL    H3612992   4.241   6.484   1.137  0.9667 -0.6754 -0.6331
  159MOL    H3712993   4.270   6.515   0.968  0.3324 -1.1927  1.1433
  159MOL    C3812994   4.031   6.359   1.116  0.3952 -0.2342 -0.6723
  159MOL    O3912995   4.098   6.325   1.239 -0.3151  0.3574  0.2075
  159MOL    H4012996   3.962   6.279   1.090  1.4662 -0.8363 -1.7045
  159MOL    H4112997   3.953   6.431   1.141  0.1086 -1.4640  2.2897
  159MOL    C4212998   4.015   6.310   1.347 -0.1792  0.5288 -0.5482
  159MOL    O4312999   3.921   6.210   1.329 -0.1371 -0.8396  0.0302
  159MOL    H4413000   3.959   6.402   1.359 -2.2478 -0.9100  1.2271
  159MOL    H4513001   4.068   6.312   1.443 -2.0320 -0.8242  0.5460
  159MOL    C4613002   3.988   6.090   1.335  0.0133 -0.4281  0.4172
  159MOL    O4713003   4.017   6.044   1.464  0.0121 -0.2887 -0.0947
  159MOL    H4813004   4.079   6.099   1.277  1.5694 -3.0257  2.3770
  159MOL    H4913005   3.919   6.020   1.287 -0.1806 -0.5994  0.9416
  159MOL    C5013006   3.904   5.989   1.517  0.0771  0.4679  0.5776
  159MOL    O5113007   3.890   5.859   1.475  0.3943 -0.4567  0.2630
  159MOL    H5213008   3.808   6.038   1.499 -0.8347 -0.8306  1.8771
  159MOL    H5313009   3.913   5.999   1.625 -1.5644  1.7266  0.6237
  159MOL    C5413010   3.811   5.777   1.559  0.8397 -0.0074 -0.1552
  159MOL    O5513011   3.869   5.744   1.679  0.5085  0.4342 -0.4385
  159MOL    H5613012   3.788   5.690   1.498  0.6371 -0.4926  0.6184
  159MOL    H5713013   3.717   5.828   1.579  1.1404 -0.2010  1.9200
  159MOL    C5813014   3.958   5.635   1.680  0.2632 -0.6008 -0.1096
  159MOL    O5913015   4.021   5.645   1.802 -0.5099  0.4665  0.2379
  159MOL    H6013016   4.029   5.645   1.597 -0.4768 -0.7268 -0.7621
  159MOL    H6113017   3.906   5.540   1.679 -1.4049  0.2988  0.0242
  159MOL    C6213018   4.104   5.749   1.812 -0.0275  0.1136 -0.4706
  159MOL    O6313019   4.048   5.841   1.899 -0.8018  0.0523  0.8424
  159MOL    H6413020   4.125   5.800   1.717 -0.5900  2.9919  0.8842
  159MOL    H6513021   4.205   5.722   1.845  0.1582  1.5632  0.2008
  159MOL    C6613022   4.057   5.796   2.029 -0.8724 -0.2284 -0.2659
  159MOL    O6713023   4.186   5.816   2.081 -0.1090 -0.3177  0.3253
  159MOL    H6813024   4.027   5.693   2.046  0.0704 -0.3895  0.5022
  159MOL    H6913025   3.978   5.857   2.072 -1.7861 -1.5893  0.0125
  159MOL    C7013026   4.246   5.940   2.077 -0.1673 -0.9180  0.4924
  159MOL    O7113027   4.354   5.937   1.985  0.0613  0.2069  0.0758
  159MOL    H7213028   4.289   5.963   2.174  0.5100  2.1562 -0.4761
  159MOL    H7313029   4.173   6.008   2.034 -1.0829 -2.5305 -0.5839
  159MOL    C7413030   4.470   5.882   2.044 -0.0019  0.2398 -0.0585
  159MOL    O7513031   4.561   5.979   2.091  0.1965  0.4296  0.2707
  159MOL    H7613032   4.517   5.816   1.970 -0.8318  1.6568 -1.8895
  159MOL    H7713033   4.455   5.815   2.129  3.2778 -1.0416 -0.4075
  159MOL    C7813034   4.641   6.018   1.985  0.3899  0.1380 -0.6097
  159MOL    O7913035   4.568   6.095   1.900  0.3804  0.1819 -0.1491
  159MOL    H8013036   4.684   5.935   1.929 -0.7718 -0.8128 -0.1271
  159MOL    H8113037   4.729   6.074   2.016 -0.5369  0.2416  1.9816
  159MOL    H8213038   4.497   6.044   1.864  0.5334 -0.6787  0.7592
  160MOL     C113039   6.467   5.818   7.293 -0.3905  0.5468 -0.0755
  160MOL     O213040   6.482   5.678   7.313 -0.5293  0.1797  0.1928
  160MOL     H313041   6.555   5.870   7.330 -0.9266  3.3316 -2.4709
  160MOL     H413042   6.475   5.841   7.186 -1.7293  2.3080  0.1890
  160MOL     H513043   6.377   5.860   7.336 -2.0300 -0.8331 -2.0570
  160MOL     C613044   6.522   5.646   7.443 -0.5460 -0.3458  0.6611
  160MOL     O713045   6.442   5.692   7.539 -0.3015 -0.3510 -0.7180
  160MOL     H813046   6.619   5.692   7.463 -1.2617  1.5710 -0.2139
  160MOL     H913047   6.559   5.543   7.447 -1.1165 -0.5839 -0.0354
  160MOL    C1013048   6.329   5.616   7.551 -0.1222  0.3154 -0.0538
  160MOL    O1113049   6.355   5.488   7.592 -0.5671  0.4079 -0.0638
  160MOL    H1213050   6.280   5.607   7.454  0.4347  0.3277 -0.3380
  160MOL    H1313051   6.261   5.659   7.624 -0.9990  0.9993 -1.2568
  160MOL    C1413052   6.371   5.479   7.730  0.4127 -0.5974 -0.1985
  160MOL    O1513053   6.256   5.430   0.011 -0.0442 -0.8845  0.5592
  160MOL    H1613054   6.395   5.573   7.779  2.7486 -0.5605 -1.3304
  160MOL    H1713055   6.460   5.418   7.749  0.7634  0.1578  0.6188
  160MOL    C1813056   6.221   5.299   7.748  0.0520 -0.2904 -0.8162
  160MOL    O1913057   6.146   5.232   0.058  0.6323 -0.0303 -0.6343
  160MOL    H2013058   6.313   5.241   7.739  1.0578  1.2607 -0.7558
  160MOL    H2113059   6.169   5.310   7.653 -0.4587  0.0154 -0.5003
  160MOL    C2213060   6.211   5.177   0.166  0.0012 -0.5673  0.4964
  160MOL    O2313061   6.123   5.148   0.270 -0.0547 -0.1508 -0.0815
  160MOL    H2413062   6.288   5.238   0.212  0.8963 -0.9557 -0.4663
  160MOL    H2513063   6.270   5.090   0.140  0.5925  0.1091 -0.4705
  160MOL    C2613064   6.021   5.058   0.231  0.4411  0.6319 -0.7524
  160MOL    O2713065   6.075   4.931   0.249 -0.2515 -0.3333 -0.3420
  160MOL    H2813066   5.997   5.079   0.127 -0.3564  1.1640 -0.4671
  160MOL    H2913067   5.926   5.058   0.285  0.3559  1.0841 -0.9027
  160MOL    C3013068   6.062   4.895   0.382 -0.8982  0.3899 -0.2992
  160MOL    O3113069   5.933   4.854   0.407  0.1789  0.1676  0.1363
  160MOL    H3213070   6.094   4.971   0.452 -1.1178  0.8618 -0.7108
  160MOL    H3313071   6.138   4.818   0.400 -0.4590  1.1579  1.2057
  160MOL    C3413072   5.934   4.771   0.519 -0.0026 -0.0756  0.2399
  160MOL    O3513073   5.988   4.647   0.493 -0.1796  0.6250  0.1501
  160MOL    H3613074   5.837   4.760   0.569  1.5737  0.4444  3.5068
  160MOL    H3713075   5.997   4.813   0.597 -1.0569 -1.2733  1.7632
  160MOL    C3813076   5.910   4.568   0.404  0.4163 -0.7739 -0.0627
  160MOL    O3913077   5.792   4.517   0.464 -0.5047 -0.0246 -0.4364
  160MOL    H4013078   5.976   4.484   0.382  2.9187  0.9669  0.5754
  160MOL    H4113079   5.912   4.622   0.309  0.2782  0.8681  0.8350
  160MOL    C4213080   5.684   4.520   0.376 -0.2230 -0.6463 -0.1256
  160MOL    O4313081   5.642   4.653   0.328 -0.5417  0.0360 -0.2167
  160MOL    H4413082   5.598   4.475   0.426  0.4991 -1.4601  0.3929
  160MOL    H4513083   5.707   4.458   0.289 -2.0242  0.9556 -1.7982
  160MOL    C4613084   5.546   4.715   0.399 -0.5419  0.7196  0.3495
  160MOL    O4713085   5.431   4.639   0.393  0.6419 -0.8603 -0.4708
  160MOL    H4813086   5.532   4.812   0.351  2.1960  2.3632  2.6466
  160MOL    H4913087   5.574   4.735   0.503 -0.2152 -1.0310  0.6119
  160MOL    C5013088   5.326   4.701   0.463 -0.0665  0.1240  0.6094
  160MOL    O5113089   5.269   4.812   0.393  0.0294  0.0245  0.0519
  160MOL    H5213090   5.363   4.736   0.559 -0.0374 -0.2182  0.7210
  160MOL    H5313091   5.259   4.620   0.490  0.9881 -0.4845  1.4474
  160MOL    C5413092   5.163   4.866   0.453 -0.0237  0.2269 -0.1587
  160MOL    O5513093   5.197   4.963   0.543  0.1128 -0.3956  0.6902
  160MOL    H5613094   5.101   4.794   0.507  1.7037  0.3373  2.0556
  160MOL    H5713095   5.100   4.901   0.371 -0.1966  2.5307  0.9409
  160MOL    C5813096   5.200   5.084   0.478  0.1498  0.1816 -0.5841
  160MOL    O5913097   5.075   5.149   0.461  0.2336 -0.1805  0.6278
  160MOL    H6013098   5.261   5.081   0.388 -1.0572  1.8254 -1.4919
  160MOL    H6113099   5.257   5.140   0.553 -0.4401  0.0336 -0.0190
  160MOL    C6213100   5.022   5.187   0.581 -0.0472 -0.1397  0.1376
  160MOL    O6313101   5.087   5.301   0.641  0.4657  0.5487  0.1975
  160MOL    H6413102   5.024   5.114   0.662  3.3849 -0.7134 -0.3732
  160MOL    H6513103   4.919   5.220   0.566  0.3870  0.5834 -1.3678
  160MOL    C6613104   5.071   5.417   0.561  0.4501  0.5392  0.7715
  160MOL    O6713105   5.147   5.523   0.606 -0.2213  0.1330 -0.2298
  160MOL    H6813106   4.968   5.447   0.579 -0.0511 -1.4716  1.3446
  160MOL    H6913107   5.082   5.400   0.453 -3.8053 -0.6621  0.4623
  160MOL    C7013108   5.291   5.493   0.606 -0.1304  0.2845  0.1563
  160MOL    O7113109   5.339   5.444   0.485  0.7402 -0.7269 -0.5264
  160MOL    H7213110   5.315   5.415   0.679 -1.4731 -0.1097  0.1898
  160MOL    H7313111   5.340   5.586   0.635 -3.7995  1.9885  1.1084
  160MOL    C7413112   5.468   5.450   0.467  0.0158 -0.3840 -0.5322
  160MOL    O7513113   5.506   5.578   0.434 -0.2205  0.2203 -0.4397
  160MOL    H7613114   5.500   5.369   0.402 -1.4932 -0.7663 -0.8172
  160MOL    H7713115   5.525   5.437   0.559 -1.1308  0.9032  0.3895
  160MOL    C7813116   5.467   5.626   0.309 -0.1031 -0.3541 -0.3819
  160MOL    O7913117   5.478   5.765   0.313  0.1077 -0.3724 -0.1269
  160MOL    H8013118   5.366   5.602   0.277 -0.0772  0.8182 -1.3681
  160MOL    H8113119   5.536   5.585   0.235 -1.7813 -0.3587 -1.9815
  160MOL    H8213120   5.566   5.778   0.281 -0.6257  0.2905 -1.9599
  161MOL     C113121   0.095   6.122   5.577 -0.0781 -0.1777 -0.1757
  161MOL     O213122   0.195   6.029   5.632 -0.4734  0.3875  0.4827
  161MOL     H313123   0.106   6.132   5.469  0.4026  0.3523 -0.0770
  161MOL     H413124   7.779   6.082   5.599  0.8225 -4.2060 -2.8840
  161MOL     H513125   0.107   6.223   5.616  1.5503 -0.9661  1.4678
  161MOL     C613126   0.183   5.903   5.581 -0.2874 -0.2324 -0.2019
  161MOL     O713127   0.062   5.846   5.632  0.1421  0.2914 -0.1026
  161MOL     H813128   0.268   5.836   5.598 -0.4606 -0.9766 -2.1117
  161MOL     H913129   0.172   5.913   5.473  1.6765 -0.8834 -0.4972
  161MOL    C1013130   0.059   5.815   5.771 -0.2324  0.6460 -0.3467
  161MOL    O1113131   0.152   5.716   5.801  0.0218 -0.5287  0.1333
  161MOL    H1213132   7.747   5.774   5.803 -0.1778 -0.9966 -2.1693
  161MOL    H1313133   0.092   5.906   5.821  3.3007 -0.5803 -0.2892
  161MOL    C1413134   0.129   5.593   5.745  0.6949  0.2076 -0.5046
  161MOL    O1513135   0.034   5.521   5.820  0.3742  0.2388  1.2053
  161MOL    H1613136   0.215   5.526   5.747 -0.6553 -1.5521  0.8862
  161MOL    H1713137   0.096   5.610   5.643  1.4042  2.1980 -0.4208
  161MOL    C1813138   7.770   5.411   5.741 -0.5215  0.3223 -0.3539
  161MOL    O1913139   7.671   5.338   5.800 -0.1631 -0.8344  0.1563
  161MOL    H2013140   0.068   5.354   5.697  0.3734  0.6496  0.8427
  161MOL    H2113141   7.718   5.443   5.651 -1.2498 -0.1514 -0.1036
  161MOL    C2213142   7.718   5.241   5.891  0.5650 -0.0877 -0.2505
  161MOL    O2313143   7.768   5.124   5.836 -0.0344  0.1718  0.5546
  161MOL    H2413144   7.638   5.217   5.962 -0.8100 -1.2688 -2.1701
  161MOL    H2513145   0.014   5.282   5.953  0.2893 -0.3178  0.2657
  161MOL    C2613146   7.666   5.050   5.775 -0.5597  0.2624  0.3229
  161MOL    O2713147   7.727   4.939   5.713 -0.6549 -0.3900  0.0866
  161MOL    H2813148   7.603   5.105   5.705 -0.8475 -0.7057 -0.1856
  161MOL    H2913149   7.615   5.018   5.866 -2.6854 -0.6491 -1.1492
  161MOL    C3013150   7.773   4.975   5.593  0.6747 -0.2189  0.2019
  161MOL    O3113151   7.671   4.992   5.495 -0.3393  0.2357 -0.0639
  161MOL    H3213152   0.049   4.894   5.549  2.9084  1.9972 -0.9488
  161MOL    H3313153   0.049   5.066   5.601 -0.8820  0.7891  0.4865
  161MOL    C3413154   7.715   5.031   5.369 -0.3205 -0.0220  0.0822
  161MOL    O3513155   7.771   5.156   5.368 -0.0216 -1.0344 -0.2048
  161MOL    H3613156   7.629   5.027   5.302 -0.4366 -1.8961  0.3237
  161MOL    H3713157   7.781   4.962   5.317 -0.0567 -0.0504  0.4549
  161MOL    C3813158   7.672   5.252   5.386 -0.4817 -0.5457 -0.6655
  161MOL    O3913159   7.603   5.274   5.270 -1.0880 -0.3199  0.3452
  161MOL    H4013160   7.716   5.343   5.427 -1.7221 -1.0209  1.8231
  161MOL    H4113161   7.603   5.229   5.467 -2.0554  0.4794 -1.7040
  161MOL    C4213162   7.684   5.315   5.161  0.3831 -0.1508 -0.4664
  161MOL    O4313163   7.713   5.446   5.170  0.0580 -0.4246  0.1043
  161MOL    H4413164   7.637   5.286   5.067  0.4089 -1.8026  0.0074
  161MOL    H4513165   7.782   5.267   5.166  0.4734  0.1895  1.1570
  161MOL    C4613166   7.615   5.527   5.112  0.2413 -0.1789  0.2020
  161MOL    O4713167   7.636   5.544   4.973  0.1693  0.1997 -0.1628
  161MOL    H4813168   7.623   5.615   5.176  0.0610 -0.5890  0.7958
  161MOL    H4913169   7.514   5.487   5.111 -0.1627  0.7993  0.7932
  161MOL    C5013170   7.650   5.671   4.928  0.2983 -0.5479  0.4030
  161MOL    O5113171   7.530   5.738   4.928 -0.5350  0.1251 -0.5717
  161MOL    H5213172   7.698   5.679   4.831  1.0035  1.8458  0.9404
  161MOL    H5313173   7.718   5.715   5.000 -0.0727 -0.5132  0.7341
  161MOL    C5413174   7.430   5.678   4.844  0.2691  0.4268 -1.0453
  161MOL    O5513175   7.455   5.694   4.705 -0.5088 -0.2094  0.0843
  161MOL    H5613176   7.331   5.717   4.866  0.4319  0.6705 -0.7321
  161MOL    H5713177   7.426   5.572   4.868 -0.6763  0.9069  1.1017
  161MOL    C5813178   7.431   5.829   4.675 -0.1429 -0.0557  0.0735
  161MOL    O5913179   7.297   5.851   4.637  0.0730  0.4058  0.2519
  161MOL    H6013180   7.478   5.853   4.580 -1.6461 -1.4454 -1.0436
  161MOL    H6113181   7.457   5.901   4.753  0.0312 -0.6915  0.6026
  161MOL    C6213182   7.259   5.984   4.644  0.3919  0.0331 -0.0922
  161MOL    O6313183   7.281   6.033   4.766 -0.6324  0.4524 -0.9726
  161MOL    H6413184   7.154   5.985   4.614  0.4570 -1.3077 -0.4019
  161MOL    H6513185   7.305   6.049   4.569 -0.5072  1.5134  0.6123
  161MOL    C6613186   7.249   6.168   4.770 -0.7348  0.0670  0.0820
  161MOL    O6713187   7.341   6.249   4.697  0.2627  0.2068  0.5495
  161MOL    H6813188   7.244   6.209   4.871 -0.0246  0.5557 -0.0715
  161MOL    H6913189   7.151   6.176   4.724  0.0628  0.0625 -1.6503
  161MOL    C7013190   7.464   6.262   4.758  0.6116  0.1085  0.4778
  161MOL    O7113191   7.461   6.363   4.849  0.0606 -0.0745  0.0332
  161MOL    H7213192   7.526   6.294   4.674  3.8099  1.5697  3.2620
  161MOL    H7313193   7.505   6.169   4.798  0.5740 -0.7165 -1.3465
  161MOL    C7413194   7.482   6.491   4.792  0.0463  0.6360 -0.3929
  161MOL    O7513195   7.621   6.513   4.769 -0.0418 -0.8008  0.2787
  161MOL    H7613196   7.437   6.557   4.866 -0.4950 -0.9329  0.7265
  161MOL    H7713197   7.427   6.505   4.699 -3.5948  1.3618  1.7745
  161MOL    C7813198   7.691   6.496   4.883 -0.2191 -0.1880  0.0664
  161MOL    O7913199   0.039   6.551   4.861  0.0626 -0.1416 -0.4872
  161MOL    H8013200   7.702   6.389   4.899 -2.4675 -0.4614 -0.1398
  161MOL    H8113201   7.645   6.542   4.971  1.4156 -1.3716  1.5710
  161MOL    H8213202   0.084   6.476   4.826 -0.1109 -0.4647 -0.0186
  162MOL     C113203   6.641   4.125   1.871 -0.4017  0.1867 -0.1864
  162MOL     O213204   6.608   3.997   1.929 -0.7812 -0.6088  0.3597
  162MOL     H313205   6.643   4.196   1.954  0.0085 -0.0085 -0.0242
  162MOL     H413206   6.739   4.119   1.823 -0.5544  0.4121 -0.5256
  162MOL     H513207   6.570   4.151   1.793 -0.2655  0.7996 -0.1086
  162MOL     C613208   6.479   4.001   1.982  0.4789 -0.1728  0.5470
  162MOL     O713209   6.389   4.006   1.879  0.6783  0.5149  0.8939
  162MOL     H813210   6.467   4.085   2.051 -0.4650 -0.0172  0.2043
  162MOL     H913211   6.457   3.911   2.038 -1.4709 -1.7384 -2.5991
  162MOL    C1013212   6.383   3.893   1.798 -0.2454  0.1675  0.4539
  162MOL    O1113213   6.331   3.788   1.866  0.1371  0.1983 -0.6346
  162MOL    H1213214   6.483   3.869   1.761 -1.0130 -2.3482 -0.0917
  162MOL    H1313215   6.327   3.921   1.709  1.5246 -1.6696 -1.2925
  162MOL    C1413216   6.189   3.781   1.849  0.3437  0.7875  0.0799
  162MOL    O1513217   6.152   3.744   1.721  0.6042  0.6454  0.4071
  162MOL    H1613218   6.150   3.879   1.873  0.2327  0.3879  1.5474
  162MOL    H1713219   6.146   3.713   1.922  0.7495  0.4678  0.0252
  162MOL    C1813220   6.174   3.608   1.695 -0.0109 -0.4108 -0.2540
  162MOL    O1913221   6.079   3.523   1.766 -0.6959  0.3391  0.3717
  162MOL    H2013222   6.270   3.572   1.730 -0.5884 -1.1072  0.6389
  162MOL    H2113223   6.172   3.579   1.590  2.7395  0.2098 -0.4940
  162MOL    C2213224   5.951   3.531   1.717 -0.8119 -0.0583 -0.4457
  162MOL    O2313225   5.941   3.520   1.577  0.5171  0.2241 -0.1818
  162MOL    H2413226   5.918   3.631   1.746  2.1179  1.1107 -0.9292
  162MOL    H2513227   5.889   3.459   1.770  1.5712 -0.7167  1.5373
  162MOL    C2613228   5.809   3.511   1.526  0.0340  0.3829  0.4561
  162MOL    O2713229   5.728   3.616   1.560 -0.5328  0.9410 -0.1364
  162MOL    H2813230   5.772   3.420   1.573  0.4727  1.1995  2.4482
  162MOL    H2913231   5.822   3.503   1.418  1.3972  3.3518  0.3500
  162MOL    C3013232   5.752   3.735   1.497 -0.4388  0.3413  0.0412
  162MOL    O3113233   5.701   3.751   1.367 -0.6150 -0.1631 -0.5779
  162MOL    H3213234   5.860   3.742   1.485 -0.3026 -1.9154 -0.2171
  162MOL    H3313235   5.718   3.820   1.557  0.8451 -0.4371  1.8821
  162MOL    C3413236   5.747   3.877   1.304  0.7270 -0.1803  0.0497
  162MOL    O3513237   5.685   3.991   1.355  0.2569  0.3789 -0.2311
  162MOL    H3613238   5.730   3.888   1.197  1.6053 -0.3700 -0.1133
  162MOL    H3713239   5.855   3.891   1.309  0.4562  1.4493  1.8430
  162MOL    C3813240   5.549   3.991   1.346  0.2774  0.1921 -0.2038
  162MOL    O3913241   5.488   3.938   1.458  0.0379 -0.3304 -0.0371
  162MOL    H4013242   5.521   3.934   1.257  2.4926 -0.1893 -0.6788
  162MOL    H4113243   5.507   4.091   1.337 -1.2117 -0.1575  2.1715
  162MOL    C4213244   5.484   4.030   1.561  0.1472 -0.4125 -0.2483
  162MOL    O4313245   5.393   4.131   1.536  0.5010 -0.2320 -0.4546
  162MOL    H4413246   5.586   4.067   1.567 -1.1398  2.7138  3.7686
  162MOL    H4513247   5.470   3.976   1.655 -0.6878 -0.8655 -0.6161
  162MOL    C4613248   5.263   4.098   1.565 -0.1607 -0.2365  0.0551
  162MOL    O4713249   5.229   4.092   1.699  0.4940  0.9743  0.0215
  162MOL    H4813250   5.245   3.996   1.529  0.3720  0.1999 -1.4786
  162MOL    H4913251   5.203   4.164   1.503  0.4124  0.8487  0.6470
  162MOL    C5013252   5.200   4.216   1.752  0.0908 -0.1006 -0.3966
  162MOL    O5113253   5.074   4.254   1.719  0.1740 -0.1446 -0.3832
  162MOL    H5213254   5.276   4.282   1.711 -0.1997  0.1220 -0.5741
  162MOL    H5313255   5.226   4.202   1.857 -0.3258 -1.0024 -0.4098
  162MOL    C5413256   4.980   4.188   1.802  0.2316 -0.0890  0.1253
  162MOL    O5513257   4.958   4.253   1.924  0.1864 -0.2781 -0.4127
  162MOL    H5613258   4.997   4.082   1.816 -3.3698 -0.4601  2.2573
  162MOL    H5713259   4.887   4.204   1.748 -0.1986 -0.5858  0.7115
  162MOL    C5813260   4.908   4.384   1.911  0.0039  0.2750 -0.5645
  162MOL    O5913261   4.915   4.457   2.031  0.2733 -0.5314  0.4066
  162MOL    H6013262   4.803   4.369   1.885  0.2187  0.4909 -1.5718
  162MOL    H6113263   4.954   4.435   1.826 -0.8250 -0.3314 -1.3922
  162MOL    C6213264   5.039   4.523   2.053 -1.0133  0.1622  0.2019
  162MOL    O6313265   5.037   4.601   2.168  0.2867  0.1034 -0.2758
  162MOL    H6413266   5.068   4.585   1.968 -1.4503  0.1917  0.0751
  162MOL    H6513267   5.111   4.444   2.074 -0.4371 -0.2380 -2.9757
  162MOL    C6613268   4.938   4.697   2.168 -0.2875 -0.5815 -0.4674
  162MOL    O6713269   4.974   4.807   2.094  0.3599  0.0822  0.3922
  162MOL    H6813270   4.922   4.737   2.268 -0.1779 -0.9480 -0.3004
  162MOL    H6913271   4.848   4.646   2.135  0.5390 -0.2906 -3.2488
  162MOL    C7013272   5.081   4.878   2.164 -0.4931  0.0072 -0.1487
  162MOL    O7113273   5.033   4.949   2.275  0.6843  0.7665  0.4303
  162MOL    H7213274   5.130   4.940   2.088  0.1456  0.4422  0.6110
  162MOL    H7313275   5.151   4.805   2.206 -0.1009  0.4856  0.0247
  162MOL    C7413276   4.941   5.047   2.241  0.7126  0.1024 -0.4633
  162MOL    O7513277   4.915   5.130   2.355  0.2345 -0.4877  0.2141
  162MOL    H7613278   4.850   4.994   2.214  0.2183 -1.1679  3.3429
  162MOL    H7713279   4.977   5.107   2.157 -1.7221  0.1132 -1.5432
  162MOL    C7813280   4.828   5.069   2.448  0.3390  0.0121  0.4133
  162MOL    O7913281   4.807   5.156   2.561 -0.6487 -0.3267  0.0027
  162MOL    H8013282   4.878   4.982   2.492  1.0038  1.3706  2.4378
  162MOL    H8113283   4.735   5.027   2.410  1.2035  0.6659 -2.5463
  162MOL    H8213284   4.718   5.189   2.562 -0.0985  1.2029 -0.4017
  163MOL     C113285   5.133   1.181   5.866 -0.0847  0.1181  0.4415
  163MOL     O213286   5.100   1.156   6.000 -0.7346 -0.1548  0.3797
  163MOL     H313287   5.216   1.120   5.829 -0.0470  2.6430 -4.0568
  163MOL     H413288   5.047   1.153   5.804  0.9239 -0.4764 -0.7262
  163MOL     H513289   5.164   1.282   5.840  0.7437 -0.1768  0.2480
  163MOL     C613290   5.197   1.204   6.089  0.2402 -0.4696 -0.1367
  163MOL     O713291   5.329   1.165   6.063  0.8983  0.7014  0.7577
  163MOL     H813292   5.157   1.185   6.189 -0.4480 -0.2538 -0.3712
  163MOL     H913293   5.200   1.313   6.082  3.0931 -0.3406  1.9583
  163MOL    C1013294   5.384   1.113   6.182 -0.1856 -0.0404  0.0245
  163MOL    O1113295   5.311   1.003   6.231 -0.0477 -0.3106  0.5688
  163MOL    H1213296   5.409   1.185   6.260  1.1540  0.5670 -0.9373
  163MOL    H1313297   5.485   1.084   6.150  0.5354  2.3113  0.0603
  163MOL    C1413298   5.296   0.892   6.146  0.0653  0.4879  0.5768
  163MOL    O1513299   5.409   0.803   6.140 -0.1316  0.2882  0.2006
  163MOL    H1613300   5.287   0.919   6.041  0.2448 -0.5693  0.2886
  163MOL    H1713301   5.210   0.832   6.177  0.0343 -0.6361 -1.5969
  163MOL    C1813302   5.441   0.758   6.267  0.1551 -0.8515  1.2124
  163MOL    O1913303   5.343   0.676   6.324  0.0233 -0.0613 -0.4793
  163MOL    H2013304   5.485   0.846   6.314  1.1766  0.4199 -2.0062
  163MOL    H2113305   5.532   0.698   6.259 -0.3991 -1.6222  0.5486
  163MOL    C2213306   5.381   0.634   6.450 -0.3904  0.0354 -0.8100
  163MOL    O2313307   5.494   0.558   6.449  0.0589  0.1945  0.2559
  163MOL    H2413308   5.301   0.570   6.488  0.4900 -1.5672 -1.6062
  163MOL    H2513309   5.386   0.720   6.517 -1.6110  0.6230 -1.4473
  163MOL    C2613310   5.484   0.449   6.363  0.3510 -0.3062  0.0274
  163MOL    O2713311   5.610   0.384   6.361 -0.0143  0.0871 -0.4071
  163MOL    H2813312   5.463   0.475   6.259  1.2807 -0.0682 -0.1098
  163MOL    H2913313   5.401   0.384   6.391 -1.5158  2.6475  1.5527
  163MOL    C3013314   5.694   0.444   6.270  0.2171 -0.2462 -0.8196
  163MOL    O3113315   5.657   0.410   6.141 -0.2542  0.1919 -0.1087
  163MOL    H3213316   5.791   0.400   6.295  0.4498 -0.2315 -1.6938
  163MOL    H3313317   5.699   0.548   6.302  1.9565 -0.5935  0.1176
  163MOL    C3413318   5.769   0.435   6.054  0.3052  0.9710 -0.0343
  163MOL    O3513319   5.795   0.573   6.041  0.0036  0.0918  0.0693
  163MOL    H3613320   5.743   0.394   5.956 -2.6435 -0.8785  1.4671
  163MOL    H3713321   5.856   0.375   6.078 -1.2446 -0.5611  1.9003
  163MOL    C3813322   5.693   0.634   5.977  0.1892  0.1952 -0.0401
  163MOL    O3913323   5.730   0.758   5.919 -0.0919  0.0704  0.1463
  163MOL    H4013324   5.607   0.634   6.044 -0.4319  0.9609 -0.8271
  163MOL    H4113325   5.657   0.575   5.894  0.9857 -1.1169  0.5367
  163MOL    C4213326   5.794   0.737   5.799  0.3814  0.5125 -0.1932
  163MOL    O4313327   5.702   0.688   5.700 -0.4708  0.2115 -0.7575
  163MOL    H4413328   5.883   0.674   5.803  1.0610  1.0816 -3.9865
  163MOL    H4513329   5.828   0.834   5.764 -0.1524  1.2124  1.2220
  163MOL    C4613330   5.766   0.633   5.592 -0.9402  0.5537 -0.2507
  163MOL    O4713331   5.847   0.521   5.629 -0.2628 -0.5252  0.1054
  163MOL    H4813332   5.821   0.708   5.536  0.1013 -1.9549 -2.6876
  163MOL    H4913333   5.688   0.592   5.528 -2.4042  0.0124  1.8276
  163MOL    C5013334   5.771   0.402   5.655 -0.7745  0.4415 -0.1249
  163MOL    O5113335   5.841   0.306   5.741  0.2606 -0.0729 -0.4284
  163MOL    H5213336   5.735   0.356   5.562 -0.3375 -0.0157 -0.0694
  163MOL    H5313337   5.684   0.427   5.715 -0.7266 -0.3256  0.2687
  163MOL    C5413338   5.943   0.239   5.671 -0.2010  1.2999  0.2742
  163MOL    O5513339   5.888   0.134   5.598  0.2135 -0.1667  0.8132
  163MOL    H5613340   6.010   0.194   5.744 -1.4169 -1.0480  0.0034
  163MOL    H5713341   6.005   0.290   5.598  1.4494 -0.8266  0.1354
  163MOL    C5813342   5.826   0.035   5.675 -0.0799 -0.1027 -0.8807
  163MOL    O5913343   5.921   7.735   5.734  0.7881 -0.0960  0.3818
  163MOL    H6013344   5.745   7.770   5.619  0.7258 -1.7890 -0.6071
  163MOL    H6113345   5.776   0.083   5.760  0.9448 -0.6945  0.0625
  163MOL    C6213346   5.976   7.645   5.644 -0.3004 -0.5222  0.0206
  163MOL    O6313347   6.051   7.549   5.705 -0.2116 -0.3820  0.0049
  163MOL    H6413348   6.042   7.705   5.581 -1.8640  0.0998 -1.0406
  163MOL    H6513349   5.895   7.603   5.586 -0.9569  1.5994 -0.6184
  163MOL    C6613350   5.968   7.448   5.760  0.5175  0.7118  0.8051
  163MOL    O6713351   6.035   7.328   5.780  0.1483  0.8017  0.3355
  163MOL    H6813352   5.897   7.423   5.680  2.7713 -1.5926 -0.5692
  163MOL    H6913353   5.920   7.500   5.843  1.6620  1.2811  1.1250
  163MOL    C7013354   6.086   7.319   5.909 -0.1134 -0.9706 -1.0259
  163MOL    O7113355   6.001   7.256   6.003 -0.2272 -0.0117 -0.8526
  163MOL    H7213356   6.113   7.415   5.951  0.7282 -1.0158 -1.4450
  163MOL    H7313357   6.184   7.271   5.897  0.0294 -0.3304 -2.5293
  163MOL    C7413358   6.026   7.116   6.017  0.2397  0.1001 -0.2583
  163MOL    O7513359   6.144   7.099   6.092 -0.1082  0.2317  0.3814
  163MOL    H7613360   6.043   7.070   5.920  0.7093 -1.3947  0.5271
  163MOL    H7713361   5.941   7.059   6.056  0.6938 -0.2527  0.2237
  163MOL    C7813362   6.111   7.082   6.228  0.3565  0.2461 -0.3172
  163MOL    O7913363   6.061   6.951   6.248  0.1560 -0.3571  0.3851
  163MOL    H8013364   6.036   7.158   6.250 -1.0676 -0.3491 -2.9009
  163MOL    H8113365   6.199   7.098   6.292 -0.5882  0.1204  1.0326
  163MOL    H8213366   6.000   6.948   6.320 -0.6593 -1.9433 -0.3253
  164MOL     C113367   1.638   6.995   4.570  0.1052  0.5515  0.0585
  164MOL     O213368   1.655   7.003   4.433  0.3889 -0.1513  1.1481
  164MOL     H313369   1.641   7.092   4.620 -2.1178  1.9041 -2.2958
  164MOL     H413370   1.540   6.956   4.596 -0.2482  1.2512 -0.2168
  164MOL     H513371   1.715   6.927   4.607  0.7312  1.6673  0.8472
  164MOL     C613372   1.786   7.032   4.387 -1.2388  0.1416 -0.2907
  164MOL     O713373   1.833   7.149   4.441 -0.5006  0.5899 -0.0782
  164MOL     H813374   1.795   7.032   4.278 -2.0444 -4.7302 -0.4896
  164MOL     H913375   1.857   6.952   4.410 -0.1012  0.5543 -2.2273
  164MOL    C1013376   1.776   7.260   4.379  0.4046 -0.3843  0.6525
  164MOL    O1113377   1.813   7.282   4.249 -0.3800  0.0851 -0.4731
  164MOL    H1213378   1.790   7.351   4.438  0.7044  0.0550 -0.0813
  164MOL    H1313379   1.669   7.248   4.367  0.4739 -1.1067  0.7605
  164MOL    C1413380   1.942   7.343   4.233  0.4901 -0.6268  0.3041
  164MOL    O1513381   1.961   7.457   4.318  0.0082 -0.0790  0.6024
  164MOL    H1613382   1.948   7.367   4.127  1.8000  0.4993  0.6193
  164MOL    H1713383   2.024   7.281   4.269 -0.6390 -0.7611  2.7219
  164MOL    C1813384   1.893   7.570   4.270  0.5516 -0.5261 -0.3989
  164MOL    O1913385   1.917   7.669   4.367  0.3363 -0.0571 -0.2426
  164MOL    H2013386   1.786   7.551   4.265  0.2300  1.2488 -0.4730
  164MOL    H2113387   1.941   7.589   4.175  1.4201  0.2632  0.1867
  164MOL    C2213388   2.039   7.736   4.336 -0.8816  0.6999 -0.1754
  164MOL    O2313389   2.019   0.033   4.223 -0.3709  0.0436  0.0958
  164MOL    H2413390   2.114   7.669   4.296 -0.0501  1.0129  0.8350
  164MOL    H2513391   2.082   0.009   4.419  0.7468  1.0290 -1.2112
  164MOL    C2613392   1.951   0.147   4.264  0.5463  0.0044  0.3262
  164MOL    O2713393   2.034   0.242   4.313 -0.4990 -0.2644  0.6954
  164MOL    H2813394   1.861   0.132   4.322 -0.3973 -3.6514 -1.9232
  164MOL    H2913395   1.908   0.193   4.175 -0.4545  0.0876  0.8511
  164MOL    C3013396   1.979   0.357   4.364  0.0549  0.1453 -0.6597
  164MOL    O3113397   1.934   0.442   4.262 -0.3703 -0.0843  0.2926
  164MOL    H3213398   2.053   0.416   4.418  0.9076 -2.0274  0.6148
  164MOL    H3313399   1.912   0.321   4.442 -0.8103  0.9578 -1.0231
  164MOL    C3413400   1.847   0.538   4.317  0.6523  0.0960 -0.4252
  164MOL    O3513401   1.737   0.480   4.369 -0.4853 -0.3906  0.5298
  164MOL    H3613402   1.828   0.615   4.241 -1.8544 -0.1631 -0.0697
  164MOL    H3713403   1.889   0.598   4.398  1.0568 -1.7427  0.7597
  164MOL    C3813404   1.653   0.427   4.269  0.1700  0.2141 -0.2981
  164MOL    O3913405   1.602   0.529   4.191 -0.6677  0.5684  0.4512
  164MOL    H4013406   1.567   0.380   4.317 -0.0650  0.8880 -0.0491
  164MOL    H4113407   1.697   0.343   4.216  0.8344 -1.4664  2.8063
  164MOL    C4213408   1.538   0.481   4.073 -0.0634  0.7439 -0.3729
  164MOL    O4313409   1.635   0.428   3.986  0.5096 -0.9019 -0.2639
  164MOL    H4413410   1.486   0.564   4.025 -0.5335  1.5917  1.5791
  164MOL    H4513411   1.459   0.413   4.105 -0.9978  1.9402 -0.1025
  164MOL    C4613412   1.703   0.526   3.919 -0.6015  0.6645  0.9401
  164MOL    O4713413   1.642   0.558   3.803  0.2309  0.0882 -0.4945
  164MOL    H4813414   1.805   0.493   3.899 -1.5034  0.2652 -3.5647
  164MOL    H4913415   1.712   0.617   3.980  2.1794  0.5656  0.7414
  164MOL    C5013416   1.704   0.512   3.682  1.2526 -0.2707 -0.4208
  164MOL    O5113417   1.830   0.567   3.658 -0.2089 -0.3577 -0.0238
  164MOL    H5213418   1.640   0.535   3.597  1.7631  1.3008 -0.3876
  164MOL    H5313419   1.700   0.403   3.675  0.1547 -0.1913 -1.1433
  164MOL    C5413420   1.833   0.703   3.622 -0.0069  0.3511  0.0225
  164MOL    O5513421   1.801   0.728   3.492 -0.1241 -0.0123  0.8289
  164MOL    H5613422   1.929   0.746   3.648 -0.1497  0.4838  0.3223
  164MOL    H5713423   1.755   0.747   3.684 -0.3764 -1.7807  1.1426
  164MOL    C5813424   1.778   0.865   3.466 -0.2989  0.1405 -0.3230
  164MOL    O5913425   1.749   0.888   3.335 -0.1789 -0.0091 -0.4089
  164MOL    H6013426   1.861   0.929   3.496  1.4858 -2.4121  0.3035
  164MOL    H6113427   1.696   0.890   3.534  0.7948 -0.8181  1.3806
  164MOL    C6213428   1.850   0.845   3.256  0.0185 -0.2389 -0.2293
  164MOL    O6313429   1.844   0.907   3.125 -0.6430  0.1572 -0.1332
  164MOL    H6413430   1.842   0.743   3.220  2.5209 -0.0215 -1.4935
  164MOL    H6513431   1.948   0.868   3.298 -0.6488  1.4446  0.4436
  164MOL    C6613432   1.868   1.042   3.119 -0.1178 -0.1668 -0.4037
  164MOL    O6713433   1.994   1.090   3.157 -0.4389  0.3106 -0.4145
  164MOL    H6813434   1.800   1.077   3.197  0.0917  0.3858 -0.4680
  164MOL    H6913435   1.838   1.086   3.023 -2.5294 -0.0921  0.3614
  164MOL    C7013436   2.098   1.068   3.073  1.0795 -0.6340 -0.4045
  164MOL    O7113437   2.215   1.082   3.140  0.2917 -0.0851 -0.4220
  164MOL    H7213438   2.096   1.149   3.000 -0.5567 -1.3855 -1.2357
  164MOL    H7313439   2.099   0.968   3.030  0.0374 -0.5267 -0.7099
  164MOL    C7413440   2.326   1.037   3.060 -0.0537  0.6929  0.3722
  164MOL    O7513441   2.330   0.899   3.044 -0.5483  0.0424 -0.0843
  164MOL    H7613442   2.421   1.062   3.109  0.9171 -2.1126  0.0055
  164MOL    H7713443   2.325   1.082   2.961 -1.1243 -0.3910 -0.1140
  164MOL    C7813444   2.356   0.829   3.169  0.5847 -0.9004  0.2600
  164MOL    O7913445   2.409   0.703   3.136 -0.3081  0.2679  0.3151
  164MOL    H8013446   2.266   0.811   3.228 -0.6977  1.2052 -0.9926
  164MOL    H8113447   2.427   0.880   3.233  1.4738 -0.4116 -1.0906
  164MOL    H8213448   2.496   0.719   3.103 -0.2538 -0.3432  0.1454
  165MOL     C113449   5.697   6.051   7.509  0.4650 -0.4280 -0.1816
  165MOL     O213450   5.664   5.976   7.395  0.4293 -0.3178  0.0779
  165MOL     H313451   5.610   6.067   7.574  2.0694  2.3046  1.3643
  165MOL     H413452   5.766   5.998   7.574  1.3568  0.3684 -0.4708
  165MOL     H513453   5.760   6.138   7.493 -1.5920  1.1049 -0.1397
  165MOL     C613454   5.769   5.960   7.307  0.2389 -0.6110  0.3784
  165MOL     O713455   5.787   6.068   7.219 -0.1955  0.3557 -0.0291
  165MOL     H813456   5.763   5.872   7.242  2.1448  0.2527 -1.0202
  165MOL     H913457   5.858   5.954   7.370 -1.2250  1.6558  2.7467
  165MOL    C1013458   5.685   6.072   7.126  0.1379 -0.2876  0.1841
  165MOL    O1113459   5.714   5.967   7.029  0.4007  0.4593  0.0625
  165MOL    H1213460   5.700   6.163   7.067  1.5987  0.4105  1.6046
  165MOL    H1313461   5.587   6.070   7.174 -0.1281 -2.1639 -0.3619
  165MOL    C1413462   5.824   5.987   6.951  0.5649 -0.1948 -0.4004
  165MOL    O1513463   5.807   6.087   6.859  0.0703 -0.1941 -0.0468
  165MOL    H1613464   5.852   5.902   6.889 -0.5397  0.1348 -1.3484
  165MOL    H1713465   5.914   6.005   7.010  0.2718  2.1135 -0.6134
  165MOL    C1813466   5.715   6.054   6.759 -0.3719  0.1179 -0.4810
  165MOL    O1913467   5.787   6.005   6.654  0.0105 -0.5464 -0.5761
  165MOL    H2013468   5.655   6.132   6.712 -1.2857 -0.8178 -0.8745
  165MOL    H2113469   5.665   5.961   6.784  0.2000  0.0501  0.4515
  165MOL    C2213470   5.843   6.100   6.571  0.0992 -0.2127 -0.1705
  165MOL    O2313471   5.744   6.156   6.484  0.1623  0.0248  0.1908
  165MOL    H2413472   5.921   6.047   6.516  1.7903  0.7452  1.2523
  165MOL    H2513473   5.898   6.174   6.628  0.6825 -1.1478  0.5059
  165MOL    C2613474   5.710   6.070   6.373 -0.8352 -0.2321  0.4045
  165MOL    O2713475   5.801   6.088   6.271  0.4549  0.1764 -0.5271
  165MOL    H2813476   5.607   6.096   6.347 -0.2426  0.9973 -0.7758
  165MOL    H2913477   5.708   5.964   6.399 -0.2545  0.0680  1.7025
  165MOL    C3013478   5.774   6.210   6.207  0.2983  0.2763 -0.0155
  165MOL    O3113479   5.659   6.215   6.127 -0.1010 -0.1129 -0.1849
  165MOL    H3213480   5.855   6.246   6.144  1.2829  1.0260  1.6319
  165MOL    H3313481   5.758   6.291   6.279  1.3166  0.3798  0.0972
  165MOL    C3413482   5.672   6.148   6.013 -0.0002  0.2724  0.6432
  165MOL    O3513483   5.754   6.212   5.923 -0.0127 -0.2027  0.3738
  165MOL    H3613484   5.572   6.144   5.969  0.2246  4.1130 -0.3874
  165MOL    H3713485   5.714   6.048   6.020 -2.1534 -0.6638  0.5597
  165MOL    C3813486   5.692   6.316   5.859 -0.0319 -0.2615  0.1306
  165MOL    O3913487   5.790   6.410   5.807 -0.4112  0.0393 -0.2649
  165MOL    H4013488   5.632   6.374   5.929 -1.8194 -2.0782  0.1507
  165MOL    H4113489   5.618   6.292   5.782 -0.9031  2.3682  0.0914
  165MOL    C4213490   5.857   6.351   5.698  0.3385  0.2192 -0.0835
  165MOL    O4313491   5.778   6.387   5.588  0.0747 -0.3830 -0.4254
  165MOL    H4413492   5.875   6.245   5.717 -0.0119  0.2348  0.3641
  165MOL    H4513493   5.956   6.398   5.701  0.4910 -0.1860  2.9183
  165MOL    C4613494   5.839   6.346   5.467  0.0658 -0.3100  0.6602
  165MOL    O4713495   5.856   6.207   5.462  0.0393 -0.0522  0.1328
  165MOL    H4813496   5.942   6.383   5.470 -0.6397  1.9189 -1.2967
  165MOL    H4913497   5.790   6.389   5.380 -0.2409  0.3115  1.1413
  165MOL    C5013498   5.749   6.138   5.408 -0.8955 -0.4457 -0.4187
  165MOL    O5113499   5.792   6.015   5.368  0.6720  0.2241 -0.2200
  165MOL    H5213500   5.697   6.180   5.321  1.4515 -0.1556 -1.7338
  165MOL    H5313501   5.690   6.133   5.499 -1.8250  1.2355 -0.9125
  165MOL    C5413502   5.843   5.938   5.472 -0.0772 -0.5710  0.2697
  165MOL    O5513503   5.741   5.893   5.550 -0.3569 -0.0882  0.1462
  165MOL    H5613504   5.900   5.999   5.542 -1.5578  0.8895  0.2403
  165MOL    H5713505   5.906   5.859   5.432  0.9012 -0.6546  1.9235
  165MOL    C5813506   5.652   5.809   5.480 -0.1300  0.4730 -0.1231
  165MOL    O5913507   5.718   5.695   5.432 -0.3032 -0.2980 -0.1945
  165MOL    H6013508   5.603   5.863   5.399  0.0637  3.4012  1.6236
  165MOL    H6113509   5.572   5.772   5.545  0.6305 -1.1567 -0.0914
  165MOL    C6213510   5.638   5.620   5.344  0.1687  0.4013 -0.2389
  165MOL    O6313511   5.521   5.572   5.410 -0.4085 -0.8809  0.2767
  165MOL    H6413512   5.682   5.531   5.300 -2.3885 -1.5989  1.0544
  165MOL    H6513513   5.617   5.688   5.261 -1.6557 -0.8654 -0.8579
  165MOL    C6613514   5.556   5.473   5.499  0.6813  0.6249 -0.9510
  165MOL    O6713515   5.461   5.369   5.497 -0.3056 -0.4017  0.4589
  165MOL    H6813516   5.568   5.508   5.602 -2.3052  0.0158 -0.3288
  165MOL    H6913517   5.648   5.420   5.476 -0.3876 -2.0730  0.6922
  165MOL    C7013518   5.334   5.400   5.552  0.4753  0.0355 -0.1923
  165MOL    O7113519   5.343   5.401   5.693  0.0536 -0.1657  0.5891
  165MOL    H7213520   5.266   5.319   5.528  0.7199  0.0345 -0.8802
  165MOL    H7313521   5.287   5.485   5.503  0.8959  0.9349  0.9228
  165MOL    C7413522   5.223   5.392   5.759 -0.0948  0.7483  0.5891
  165MOL    O7513523   5.171   5.269   5.753 -0.2060  0.3887 -0.2698
  165MOL    H7613524   5.152   5.456   5.707 -0.9224  0.8791  1.8623
  165MOL    H7713525   5.240   5.424   5.862  3.5397  1.1339 -0.0846
  165MOL    C7813526   5.254   5.173   5.806 -1.0017 -0.4990  0.2148
  165MOL    O7913527   5.194   5.048   5.810  0.8230  0.0683 -0.1620
  165MOL    H8013528   5.296   5.189   5.905  0.9995 -2.1072 -0.3375
  165MOL    H8113529   5.343   5.161   5.744 -0.9309 -1.7015  0.5328
  165MOL    H8213530   5.237   4.995   5.744  1.2347  1.0375 -0.6844
  166MOL     C113531   6.066   0.487   4.844 -0.0105 -0.7889  0.1781
  166MOL     O213532   6.059   0.408   4.726 -0.3259 -0.2344 -0.1028
  166MOL     H313533   6.163   0.488   4.892  1.6514 -1.9855 -3.0176
  166MOL     H413534   6.026   0.587   4.827  0.3347 -0.8278 -0.8644
  166MOL     H513535   6.000   0.444   4.920  0.0713 -0.8751  0.1993
  166MOL     C613536   6.108   0.275   4.756  0.4620 -0.2453  0.1715
  166MOL     O713537   6.236   0.270   4.812 -0.1792  0.5036 -0.1478
  166MOL     H813538   6.098   0.209   4.670 -0.1233 -1.2305  0.9796
  166MOL     H913539   6.029   0.234   4.818  0.4545 -0.5784 -0.0545
  166MOL    C1013540   6.335   0.292   4.711 -0.0344  0.1629 -0.3573
  166MOL    O1113541   6.330   0.208   4.601 -0.0987 -0.0688  0.6158
  166MOL    H1213542   6.430   0.286   4.764  0.4202  3.3887 -0.7333
  166MOL    H1313543   6.324   0.393   4.673  2.6505  0.2472 -1.0198
  166MOL    C1413544   6.344   0.077   4.638  0.4532  0.2707  0.1057
  166MOL    O1513545   6.390   7.782   4.534  0.5420 -0.0087  0.0318
  166MOL    H1613546   6.247   0.036   4.665  1.5115 -1.3758  1.4600
  166MOL    H1713547   6.416   0.073   4.719 -0.0507  0.6293  0.5708
  166MOL    C1813548   6.310   7.773   4.418 -0.1718  0.5230  0.6180
  166MOL    O1913549   6.338   7.673   4.330  0.2448 -0.6299 -0.1021
  166MOL    H2013550   6.307   0.085   4.365  3.9298 -0.2931 -1.2715
  166MOL    H2113551   6.204   7.753   4.438 -0.5392  3.7434  2.3223
  166MOL    C2213552   6.313   7.549   4.390 -0.0940 -0.8724  0.2522
  166MOL    O2313553   6.181   7.514   4.423  0.1517  0.3021  0.2452
  166MOL    H2413554   6.365   7.560   4.485  1.1553  1.2186 -0.6564
  166MOL    H2513555   6.364   7.475   4.328  1.5553 -0.5635  1.2113
  166MOL    C2613556   6.118   7.466   4.310  0.3201 -0.4656 -0.1783
  166MOL    O2713557   5.981   7.457   4.337 -0.3292  0.7419 -0.0575
  166MOL    H2813558   6.153   7.369   4.277  0.8364 -0.3995  0.1684
  166MOL    H2913559   6.122   7.540   4.230 -0.7111 -1.4315 -1.1276
  166MOL    C3013560   5.922   7.583   4.351 -0.2277  0.0769 -0.1999
  166MOL    O3113561   5.899   7.641   4.228 -0.5479 -0.9657 -0.0458
  166MOL    H3213562   5.989   7.643   4.413 -0.1514 -2.0947  1.8981
  166MOL    H3313563   5.822   7.582   4.395 -0.5770 -2.3479 -0.9781
  166MOL    C3413564   5.911   7.781   4.228 -0.0057 -0.3441 -0.4150
  166MOL    O3513565   6.046   0.034   4.243 -0.2773 -0.5734  0.5159
  166MOL    H3613566   5.849   0.037   4.308  0.6113 -3.9070  1.9808
  166MOL    H3713567   5.865   0.023   4.133 -1.3824 -0.5008  0.2022
  166MOL    C3813568   6.120   0.021   4.118 -0.5027  0.1710 -0.1846
  166MOL    O3913569   6.082   0.109   4.016 -0.6892  0.0676 -0.2925
  166MOL    H4013570   6.103   7.699   4.094 -2.0729  0.3161  0.2240
  166MOL    H4113571   6.228   0.021   4.130 -0.5274  0.3109  0.0409
  166MOL    C4213572   6.150   0.229   4.021  0.1306 -0.5606  0.4462
  166MOL    O4313573   6.272   0.213   3.973 -0.0314 -0.3145 -0.1384
  166MOL    H4413574   6.154   0.246   4.129 -1.6394 -3.5429  1.0635
  166MOL    H4513575   6.097   0.307   3.967 -0.0025 -2.3693 -2.1345
  166MOL    C4613576   6.277   0.214   3.833 -0.3270 -0.3139  0.5686
  166MOL    O4713577   6.255   0.342   3.780 -0.0808  0.0325 -0.8030
  166MOL    H4813578   6.203   0.140   3.803 -0.0248 -0.7139  0.8110
  166MOL    H4913579   6.370   0.177   3.788 -0.5638 -2.3161  1.6754
  166MOL    C5013580   6.361   0.425   3.787  0.6632 -0.2543  0.2496
  166MOL    O5113581   6.457   0.384   3.692  0.0974  0.3369 -1.1013
  166MOL    H5213582   6.410   0.427   3.885  2.1259  2.2709 -0.4962
  166MOL    H5313583   6.335   0.528   3.761  0.4743 -0.6703 -1.2444
  166MOL    C5413584   6.407   0.400   3.566  0.0618 -0.5055 -0.2522
  166MOL    O5513585   6.515   0.408   3.467 -0.4170  0.0047  1.1161
  166MOL    H5613586   6.335   0.482   3.566  0.0071 -0.5407  1.6197
  166MOL    H5713587   6.341   0.319   3.537 -1.6499  0.8629 -0.2755
  166MOL    C5813588   6.581   0.284   3.454 -0.4339  0.3015 -0.1336
  166MOL    O5913589   6.497   0.190   3.383 -0.6591  0.5264  0.7770
  166MOL    H6013590   6.611   0.253   3.553 -3.7790 -0.5298  0.6928
  166MOL    H6113591   6.673   0.303   3.399 -0.3819 -0.0287 -0.1626
  166MOL    C6213592   6.480   0.218   3.244 -0.2007 -0.2735 -0.5175
  166MOL    O6313593   6.588   0.164   3.170  0.0949 -0.3507 -0.3033
  166MOL    H6413594   6.460   0.323   3.225 -2.5049 -1.0120 -2.4154
  166MOL    H6513595   6.396   0.162   3.203 -0.4069  0.5212 -1.1737
  166MOL    C6613596   6.561   0.170   3.032  0.9357 -0.0471  0.4009
  166MOL    O6713597   6.458   0.081   3.002  0.0745  0.1974 -0.1982
  166MOL    H6813598   6.651   0.145   2.976  0.2205 -3.4733  0.6789
  166MOL    H6913599   6.520   0.264   2.995  2.4595 -0.1232 -1.5550
  166MOL    C7013600   6.490   7.729   3.012  0.2313  0.1341  0.2657
  166MOL    O7113601   6.565   7.686   2.903  0.1853 -0.2507 -0.3275
  166MOL    H7213602   6.399   7.670   3.015  0.5404 -0.3419  0.3828
  166MOL    H7313603   6.543   7.711   3.105 -1.1713  0.4441  1.1304
  166MOL    C7413604   6.591   7.545   2.902 -0.2563 -0.0848  0.1765
  166MOL    O7513605   6.681   7.508   3.000 -0.1630  0.1909 -0.1713
  166MOL    H7613606   6.624   7.522   2.801 -2.1526 -0.1209 -0.4650
  166MOL    H7713607   6.500   7.491   2.930  0.3818 -1.5960 -0.6176
  166MOL    C7813608   6.806   7.584   2.995  0.8741 -0.3658  0.5203
  166MOL    O7913609   6.877   7.561   2.876 -0.1674  0.1830 -0.3342
  166MOL    H8013610   6.867   7.550   3.078 -0.9845 -2.3010  1.1283
  166MOL    H8113611   6.784   7.690   3.000  0.5534 -0.4472  0.8667
  166MOL    H8213612   6.915   7.475   2.885 -3.7126 -1.3877  0.4919
  167MOL     C113613   4.406   4.606   4.610  0.2719  0.2271 -0.3621
  167MOL     O213614   4.534   4.542   4.640  0.0328 -0.0065  0.1184
  167MOL     H313615   4.328   4.531   4.615 -0.9155  1.5291  1.3844
  167MOL     H413616   4.374   4.683   4.680 -0.6984  0.2985 -0.8753
  167MOL     H513617   4.407   4.660   4.515  1.0423 -0.7809 -0.9346
  167MOL     C613618   4.567   4.448   4.545 -0.2591 -0.1575  0.1500
  167MOL     O713619   4.481   4.339   4.531  0.4698 -0.0133 -0.1153
  167MOL     H813620   4.671   4.423   4.564  0.1612  1.8426  0.5123
  167MOL     H913621   4.561   4.495   4.447  0.3437 -0.2646  0.0605
  167MOL    C1013622   4.499   4.238   4.626  0.1770  0.2111 -0.2012
  167MOL    O1113623   4.454   4.268   4.758  0.6288  0.4522 -0.1380
  167MOL    H1213624   4.606   4.220   4.629  0.1121  0.0441  1.3953
  167MOL    H1313625   4.452   4.147   4.589 -0.8963  1.1801 -1.2742
  167MOL    C1413626   4.320   4.270   4.756 -0.1393  0.0016 -0.4267
  167MOL    O1513627   4.268   4.139   4.768  0.1761  0.1485 -0.2022
  167MOL    H1613628   4.270   4.306   4.666  0.9203  1.2474 -0.5291
  167MOL    H1713629   4.287   4.333   4.838 -0.0437  3.9163 -3.2769
  167MOL    C1813630   4.292   4.086   4.898 -0.3155 -0.1449  0.6352
  167MOL    O1913631   4.221   4.149   5.003  0.0257  0.0068  0.4396
  167MOL    H2013632   4.400   4.096   4.910 -0.1106  1.2552 -1.9439
  167MOL    H2113633   4.270   3.980   4.893  1.7381 -0.6645  2.0558
  167MOL    C2213634   4.086   4.127   5.008  0.5292 -0.3478  0.1612
  167MOL    O2313635   4.059   3.994   5.031  0.0539 -0.7447  0.7605
  167MOL    H2413636   4.047   4.149   4.908  0.1307 -0.9040  0.1948
  167MOL    H2513637   4.044   4.201   5.076  1.8164  2.0057 -1.5266
  167MOL    C2613638   4.056   3.966   5.168  0.0194  0.2723 -0.2097
  167MOL    O2713639   4.060   3.824   5.177 -0.3534  0.0067  0.3299
  167MOL    H2813640   3.963   3.998   5.213 -0.6240 -2.5787  0.6103
  167MOL    H2913641   4.144   4.006   5.219 -1.1657 -0.1522  2.2470
  167MOL    C3013642   4.176   3.765   5.132  0.1849  0.1200 -0.0570
  167MOL    O3113643   4.286   3.814   5.203 -0.2699  0.1505  0.1645
  167MOL    H3213644   4.192   3.789   5.026  0.2676  1.7561  0.3114
  167MOL    H3313645   4.171   3.656   5.141  0.9257  0.1590  0.7847
  167MOL    C3413646   4.306   3.739   5.321 -0.4978 -0.0555 -0.0424
  167MOL    O3513647   4.375   3.621   5.280 -0.5948 -0.2868  0.3013
  167MOL    H3613648   4.215   3.715   5.375 -1.5055 -0.0920 -1.7450
  167MOL    H3713649   4.360   3.796   5.397 -1.0585 -0.7113  0.8631
  167MOL    C3813650   4.511   3.656   5.261  0.2737  0.1145 -0.0922
  167MOL    O3913651   4.562   3.692   5.382 -0.2243  0.2099 -0.1895
  167MOL    H4013652   4.520   3.743   5.197  1.4813 -1.1655 -1.6981
  167MOL    H4113653   4.578   3.582   5.218  0.6641  1.2257 -1.4056
  167MOL    C4213654   4.571   3.592   5.472 -0.6217  0.0697  0.1610
  167MOL    O4313655   4.657   3.489   5.427  0.0328 -0.5274 -0.3949
  167MOL    H4413656   4.476   3.541   5.487  0.1661 -1.6104 -0.4306
  167MOL    H4513657   4.605   3.630   5.568 -0.1059  1.4261 -0.5536
  167MOL    C4613658   4.793   3.530   5.425  0.4332 -0.9931 -0.3058
  167MOL    O4713659   4.872   3.443   5.351 -0.0835  0.4486  0.3894
  167MOL    H4813660   4.825   3.516   5.529 -0.4782  2.2863  0.4573
  167MOL    H4913661   4.806   3.633   5.393 -2.3343 -1.4496 -3.1011
  167MOL    C5013662   4.884   3.485   5.221 -0.7197  0.1059 -0.0107
  167MOL    O5113663   4.990   3.577   5.214  0.2006 -0.3738  0.3208
  167MOL    H5213664   4.796   3.533   5.179 -0.1116  1.0434 -0.2420
  167MOL    H5313665   4.913   3.409   5.148  1.4282  0.9743 -0.0915
  167MOL    C5413666   5.117   3.524   5.245 -0.1670  0.0251  0.4349
  167MOL    O5513667   5.216   3.620   5.239 -0.1694  0.6210 -0.4456
  167MOL    H5613668   5.136   3.437   5.183 -1.5439 -1.0589  1.4902
  167MOL    H5713669   5.107   3.471   5.340  1.0673 -1.2252 -0.1241
  167MOL    C5813670   5.337   3.570   5.289 -0.1307  0.1641  0.2588
  167MOL    O5913671   5.387   3.459   5.220 -0.0110 -0.3460  0.2869
  167MOL    H6013672   5.309   3.537   5.389 -0.9760 -0.8904 -0.3183
  167MOL    H6113673   5.414   3.647   5.298  1.1543 -1.0798  0.1000
  167MOL    C6213674   5.498   3.401   5.267  0.3885  0.1656 -0.5551
  167MOL    O6313675   5.612   3.462   5.234  0.0330  0.1769 -0.5198
  167MOL    H6413676   5.486   3.299   5.231 -1.7779  0.7654 -1.5778
  167MOL    H6513677   5.496   3.399   5.376 -3.3418 -0.1426 -0.5745
  167MOL    C6613678   5.637   3.458   5.098  0.2635 -0.1491  0.7602
  167MOL    O6713679   5.706   3.343   5.062 -0.4592  0.1538  0.1250
  167MOL    H6813680   5.692   3.548   5.070 -1.9973  0.5364 -1.6156
  167MOL    H6913681   5.544   3.476   5.045  0.5036 -1.5241 -0.1415
  167MOL    C7013682   5.773   3.358   4.939 -0.3861 -0.0350  0.2670
  167MOL    O7113683   5.696   3.410   4.836  0.3080  0.4206  0.8350
  167MOL    H7213684   5.806   3.257   4.915  1.2379  0.4431  0.3865
  167MOL    H7313685   5.863   3.420   4.940  0.7239 -1.4630 -2.9901
  167MOL    C7413686   5.605   3.320   4.782 -0.2598  0.0793 -0.4308
  167MOL    O7513687   5.668   3.205   4.717  0.3677 -0.2504 -0.0698
  167MOL    H7613688   5.548   3.381   4.711  2.1406  1.4846 -1.2381
  167MOL    H7713689   5.532   3.286   4.855 -1.0437 -0.5069 -1.4682
  167MOL    C7813690   5.734   3.259   4.602 -0.1610 -0.2919 -0.8491
  167MOL    O7913691   5.644   3.266   4.492  0.0712 -0.2296  0.4641
  167MOL    H8013692   5.818   3.194   4.577  1.9329  2.1914 -0.4655
  167MOL    H8113693   5.786   3.355   4.605  1.8732 -1.4023  0.3598
  167MOL    H8213694   5.585   3.338   4.508  0.2713  0.0244  0.0765
  168MOL     C113695   0.991   1.666   0.856 -0.0600  0.0853  0.1612
  168MOL     O213696   0.935   1.748   0.756  0.1009 -0.3701 -0.1531
  168MOL     H313697   0.958   1.563   0.865  1.8553 -0.4658  1.2281
  168MOL     H413698   1.099   1.656   0.842 -0.2497  0.2180 -1.4385
  168MOL     H513699   0.964   1.722   0.945 -0.9291 -0.4484  0.2433
  168MOL     C613700   0.963   1.707   0.623  0.3590 -0.2775 -0.0210
  168MOL     O713701   0.871   1.608   0.582 -0.3105 -0.2466 -0.1468
  168MOL     H813702   1.063   1.667   0.611  0.1950  0.1975 -3.2380
  168MOL     H913703   0.956   1.792   0.556 -0.3531  1.3587  2.0597
  168MOL    C1013704   0.757   1.673   0.529  0.2941 -0.3504  0.2573
  168MOL    O1113705   0.766   1.712   0.396  0.0109 -0.1520 -0.0402
  168MOL    H1213706   0.741   1.766   0.584  0.5662  0.3906 -0.9049
  168MOL    H1313707   0.663   1.617   0.535 -0.6717  0.9088 -2.4668
  168MOL    C1413708   0.745   1.612   0.300  0.1712 -0.3604 -0.0212
  168MOL    O1513709   0.618   1.552   0.300  0.3194  0.0244  0.0839
  168MOL    H1613710   0.824   1.538   0.313  1.1369  0.2945 -1.9125
  168MOL    H1713711   0.765   1.664   0.206  0.1244  2.4648  1.4792
  168MOL    C1813712   0.512   1.628   0.247 -0.7012  0.0641  0.4223
  168MOL    O1913713   0.514   1.652   0.113 -0.4764  0.2655 -0.3649
  168MOL    H2013714   0.498   1.713   0.314 -0.5337  0.8677 -0.5486
  168MOL    H2113715   0.422   1.567   0.259 -1.2998  1.2047  1.7707
  168MOL    C2213716   0.495   1.535   0.039 -0.0485  0.3986  0.9900
  168MOL    O2313717   0.363   1.490   0.039 -0.2078  0.7073  0.0607
  168MOL    H2413718   0.554   1.452   0.077 -2.6527 -0.7848  2.6062
  168MOL    H2513719   0.527   1.554   7.720 -0.0662 -4.4116 -0.0000
  168MOL    C2613720   0.278   1.572   7.742 -0.3750  0.3539 -0.2749
  168MOL    O2713721   0.259   1.699   0.007 -0.2888  0.2748 -0.8470
  168MOL    H2813722   0.184   1.517   7.735 -0.4354  0.5465 -1.0233
  168MOL    H2913723   0.315   1.578   7.640  0.0021  0.6101 -0.1234
  168MOL    C3013724   0.180   1.780   7.704  0.0261  0.0303 -0.7649
  168MOL    O3113725   0.244   1.817   7.588  0.4437 -0.0725 -0.3149
  168MOL    H3213726   0.138   1.867   7.755 -1.8406  0.7344 -3.3900
  168MOL    H3313727   0.091   1.724   7.674 -1.4755  1.7472  0.3669
  168MOL    C3413728   0.320   1.932   7.595 -0.0935 -0.4533 -0.7566
  168MOL    O3513729   0.448   1.897   7.639  0.2200 -0.3284 -0.4722
  168MOL    H3613730   0.275   2.012   7.654  1.9216  1.0188 -1.1728
  168MOL    H3713731   0.332   1.973   7.494  1.5030 -1.1180 -0.8521
  168MOL    C3813732   0.523   1.843   7.532  0.3519  0.8892  0.3758
  168MOL    O3913733   0.545   1.937   7.425  0.3615  0.5119 -0.0565
  168MOL    H4013734   0.469   1.766   7.478  3.3887  0.0733 -1.5653
  168MOL    H4113735   0.616   1.804   7.572 -0.3307 -1.7626 -0.5544
  168MOL    C4213736   0.641   2.031   7.453  0.2947  0.2546 -0.3925
  168MOL    O4313737   0.766   1.971   7.486  0.7048 -0.2078  0.9004
  168MOL    H4413738   0.601   2.078   7.543 -0.6007 -1.5096  0.1486
  168MOL    H4513739   0.654   2.089   7.362  1.6565  0.6431  0.0329
  168MOL    C4613740   0.878   2.038   7.438  0.4368 -0.2479  0.0363
  168MOL    O4713741   0.879   2.178   7.452  0.4109  0.3750 -0.3172
  168MOL    H4813742   0.890   2.030   7.330  0.7854 -0.0752  0.0610
  168MOL    H4913743   0.969   1.988   7.474  0.3232 -1.0947 -0.8377
  168MOL    C5013744   0.897   2.227   7.576  0.0978 -0.5001  0.5411
  168MOL    O5113745   1.010   2.182   7.632 -0.2862  0.1000 -0.5804
  168MOL    H5213746   0.821   2.189   7.644 -0.2802 -0.4306  0.1588
  168MOL    H5313747   0.888   2.334   7.560  0.9584 -0.6807 -1.3176
  168MOL    C5413748   1.122   2.220   7.569  0.6117  0.0986 -0.5756
  168MOL    O5513749   1.219   2.230   7.665 -0.2096  0.4266  0.0596
  168MOL    H5613750   1.122   2.319   7.524 -1.0406  1.1584  1.6643
  168MOL    H5713751   1.143   2.148   7.490 -1.7722  0.0438 -1.1870
  168MOL    C5813752   1.196   2.329   7.768 -0.2409 -0.2894 -0.6464
  168MOL    O5913753   1.318   2.402   7.783 -0.1042 -0.3394  0.5173
  168MOL    H6013754   1.163   2.274   0.073  3.3347  1.2932  1.7765
  168MOL    H6113755   1.116   2.400   7.752  2.3315  3.2306  1.4789
  168MOL    C6213756   1.337   2.483   0.110  0.6235  0.0022 -1.0471
  168MOL    O6313757   1.259   2.594   0.106  0.5426  0.2773  0.0357
  168MOL    H6413758   1.440   2.519   0.114  1.2777 -1.8406 -0.8875
  168MOL    H6513759   1.300   2.430   0.197  0.5492 -0.1007 -1.1423
  168MOL    C6613760   1.277   2.680   0.209 -0.2466 -0.1502  0.6177
  168MOL    O6713761   1.384   2.768   0.190  0.1862 -0.0112  0.2800
  168MOL    H6813762   1.314   2.624   0.295  2.1162 -2.2404 -1.6556
  168MOL    H6913763   1.188   2.735   0.240  0.2658  1.7029 -1.1212
  168MOL    C7013764   1.364   2.868   0.097  0.0315 -0.5828 -0.1841
  168MOL    O7113765   1.378   2.820   7.752  0.6424 -0.1483 -0.7262
  168MOL    H7213766   1.455   2.927   0.107 -0.0583 -0.0885 -2.0734
  168MOL    H7313767   1.267   2.917   0.108  0.5407  0.6828 -1.2593
  168MOL    C7413768   1.510   2.811   7.710  0.6697  0.1537  0.5749
  168MOL    O7513769   1.563   2.934   7.686 -0.0476 -0.0985 -0.0236
  168MOL    H7613770   1.518   2.736   7.631  0.3759  1.4349 -0.6805
  168MOL    H7713771   1.573   2.764   0.002  1.3765 -0.0992 -0.1757
  168MOL    C7813772   1.535   2.973   7.553 -0.1554  0.5085  0.2567
  168MOL    O7913773   1.608   3.088   7.521 -0.1522  0.2573  0.0797
  168MOL    H8013774   1.431   3.001   7.538  0.4274  1.3699 -2.5713
  168MOL    H8113775   1.553   2.900   7.474 -0.5492  2.4394 -1.6513
  168MOL    H8213776   1.698   3.062   7.520  0.2170  1.4243  0.9990
  169MOL     C113777   1.848   0.611   2.523  0.8744 -0.6775  0.3999
  169MOL     O213778   1.765   0.600   2.404 -0.6328 -0.2690 -0.2074
  169MOL     H313779   1.871   0.715   2.549  0.3072 -0.3930 -0.2212
  169MOL     H413780   1.789   0.577   2.608  0.0623  1.6081  0.8039
  169MOL     H513781   1.935   0.546   2.525  0.4266 -1.2763  0.3272
  169MOL     C613782   1.637   0.655   2.402 -0.2966 -0.5962 -0.1510
  169MOL     O713783   1.634   0.798   2.421 -0.6189  0.5814  0.5889
  169MOL     H813784   1.585   0.608   2.485 -1.4022  1.1353  0.1469
  169MOL     H913785   1.580   0.616   2.318  0.0032  0.9626 -1.0938
  169MOL    C1013786   1.690   0.868   2.308 -0.0019  0.0020  0.7578
  169MOL    O1113787   1.699   1.006   2.349  0.0778  0.3608  0.6014
  169MOL    H1213788   1.626   0.852   2.221  0.6042 -2.2326  0.6867
  169MOL    H1313789   1.783   0.814   2.288  0.9196  1.6143  0.5874
  169MOL    C1413790   1.791   1.045   2.436  0.4635 -0.3263 -0.2424
  169MOL    O1513791   1.915   1.037   2.384 -0.3974 -0.3454  0.4474
  169MOL    H1613792   1.788   0.970   2.516 -0.6155 -2.0807 -1.9002
  169MOL    H1713793   1.769   1.144   2.478 -1.9144 -1.2169  0.6883
  169MOL    C1813794   2.014   1.019   2.479 -0.8311  0.2541  0.0202
  169MOL    O1913795   2.018   1.127   2.561  0.2895 -0.5121 -0.4596
  169MOL    H2013796   2.108   0.996   2.428 -1.4511 -2.1584 -0.1251
  169MOL    H2113797   1.988   0.931   2.539 -0.8635 -1.5501 -2.5206
  169MOL    C2213798   2.149   1.135   2.624  0.0671 -0.1693 -0.0693
  169MOL    O2313799   2.153   1.189   2.746  0.0845 -0.2524  0.1418
  169MOL    H2413800   2.216   1.189   2.557 -0.1305  1.1587  0.7883
  169MOL    H2513801   2.195   1.037   2.625 -0.5729 -0.4556  1.8505
  169MOL    C2613802   2.158   1.332   2.747  0.2904  0.9318  0.3016
  169MOL    O2713803   2.279   1.382   2.703 -0.2281 -0.1368  0.5307
  169MOL    H2813804   2.139   1.365   2.849  1.5233  1.4077  0.3927
  169MOL    H2913805   2.084   1.377   2.681  0.7714  0.1242 -0.7899
  169MOL    C3013806   2.380   1.385   2.806  0.2300  0.0712  0.2155
  169MOL    O3113807   2.449   1.261   2.825 -0.8633  0.0446 -0.4637
  169MOL    H3213808   2.341   1.415   2.903 -0.3456 -0.2422  0.0837
  169MOL    H3313809   2.447   1.465   2.775 -1.9764  0.8821 -2.7305
  169MOL    C3413810   2.514   1.220   2.703 -0.8399  0.2719 -0.1398
  169MOL    O3513811   2.616   1.302   2.657  0.3625  0.2222 -0.1454
  169MOL    H3613812   2.438   1.215   2.625 -0.0117 -2.2882 -0.8465
  169MOL    H3713813   2.549   1.121   2.732  0.2291  0.9768  0.9736
  169MOL    C3813814   2.713   1.314   2.764 -0.1781  0.2804  0.0254
  169MOL    O3913815   2.796   1.203   2.784 -0.0559  0.4288  0.1692
  169MOL    H4013816   2.667   1.350   2.856  0.3053 -0.3944  0.5298
  169MOL    H4113817   2.773   1.400   2.734  0.8541 -0.2483  0.5716
  169MOL    C4213818   2.863   1.216   2.903 -0.7208  0.0302 -0.0062
  169MOL    O4313819   2.929   1.341   2.916  0.8311 -0.0286  0.1436
  169MOL    H4413820   2.938   1.137   2.898 -1.0842 -0.5416  2.9384
  169MOL    H4513821   2.800   1.188   2.987 -2.0952 -2.6803 -1.8628
  169MOL    C4613822   3.036   1.353   2.831  0.0157 -0.4421  0.2284
  169MOL    O4713823   3.161   1.341   2.897  0.4672  0.3644 -0.3854
  169MOL    H4813824   3.020   1.449   2.783  0.8610 -0.5283 -0.2431
  169MOL    H4913825   3.029   1.274   2.756 -0.5674  1.0536 -1.3334
  169MOL    C5013826   3.200   1.441   2.989  0.4352 -0.0568  0.6176
  169MOL    O5113827   3.254   1.540   2.906 -0.0426 -0.2869  0.1017
  169MOL    H5213828   3.258   1.418   3.079  1.2922  0.8097  0.2952
  169MOL    H5313829   3.113   1.483   3.039 -0.1774 -0.1853 -0.3412
  169MOL    C5413830   3.385   1.529   2.886 -0.0102 -0.0015  0.4291
  169MOL    O5513831   3.451   1.551   3.000 -0.5891 -0.2452  0.1395
  169MOL    H5613832   3.414   1.609   2.818  0.4790 -0.8272 -0.3371
  169MOL    H5713833   3.405   1.433   2.840 -0.5880 -0.3486  0.8909
  169MOL    C5813834   3.591   1.575   2.973  0.1864 -0.1524 -0.5762
  169MOL    O5913835   3.639   1.452   2.926  0.3232 -0.3955  0.1325
  169MOL    H6013836   3.651   1.599   3.061  0.4211  1.3815 -1.1451
  169MOL    H6113837   3.608   1.656   2.902  1.2017  0.9360  0.8764
  169MOL    C6213838   3.734   1.465   2.836 -0.0431  0.0841  0.4801
  169MOL    O6313839   3.686   1.523   2.714  0.0112 -0.5362 -0.1808
  169MOL    H6413840   3.783   1.370   2.820 -1.1477 -0.1136 -2.0004
  169MOL    H6513841   3.818   1.521   2.876  0.8240 -0.9371  0.0982
  169MOL    C6613842   3.625   1.435   2.624  0.3238  0.2188 -0.3193
  169MOL    O6713843   3.562   1.511   2.524  0.2401  0.6709  0.0213
  169MOL    H6813844   3.539   1.384   2.668  0.4888 -0.8814 -1.2703
  169MOL    H6913845   3.689   1.363   2.575  1.3261  1.6227 -1.1097
  169MOL    C7013846   3.657   1.567   2.433 -0.1418  0.1820 -0.2303
  169MOL    O7113847   3.602   1.583   2.308 -0.3005 -0.3168  0.0306
  169MOL    H7213848   3.750   1.510   2.437 -0.4469 -0.2266  1.8567
  169MOL    H7313849   3.683   1.665   2.474  0.3596 -0.1991  0.3836
  169MOL    C7413850   3.689   1.624   2.209  0.0548 -0.2414  0.4013
  169MOL    O7513851   3.699   1.766   2.213  0.0336 -0.1156 -0.2815
  169MOL    H7613852   3.654   1.590   2.112  1.1982 -2.3951  0.7137
  169MOL    H7713853   3.784   1.575   2.231  1.7656  2.5114 -0.5272
  169MOL    C7813854   3.579   1.835   2.164 -0.5018 -0.1030  0.0694
  169MOL    O7913855   3.598   1.972   2.135  0.4507  0.0883 -0.5950
  169MOL    H8013856   3.507   1.817   2.243  1.0491 -0.7102  1.3849
  169MOL    H8113857   3.544   1.788   2.072  0.9026  0.0595 -0.5596
  169MOL    H8213858   3.537   2.020   2.188  0.5880 -0.7121  0.3003
  170MOL     C113859   1.224   7.019   1.155  0.4500 -0.7752 -0.5113
  170MOL     O213860   1.299   6.907   1.143  0.6585  0.1557  0.3522
  170MOL     H313861   1.284   7.108   1.135  0.5682 -0.3269  1.7336
  170MOL     H413862   1.137   7.014   1.090  0.3682 -0.3392 -0.4397
  170MOL     H513863   1.186   7.030   1.257 -0.7529 -1.3720 -0.8916
  170MOL     C613864   1.235   6.794   1.198  0.2244  0.3416  0.1977
  170MOL     O713865   1.314   6.682   1.188  0.3656  0.4725 -0.0532
  170MOL     H813866   1.144   6.760   1.147  0.5132 -1.3930  0.7872
  170MOL     H913867   1.210   6.810   1.303 -0.3491  0.6056  0.0208
  170MOL    C1013868   1.412   6.679   1.286  0.3437 -0.4033  0.1893
  170MOL    O1113869   1.352   6.679   1.418  0.2553 -1.0372 -0.1322
  170MOL    H1213870   1.468   6.773   1.286 -0.3616  0.0235  0.5021
  170MOL    H1313871   1.483   6.598   1.269 -2.1175 -2.4515 -0.5671
  170MOL    C1413872   1.317   6.549   1.456  0.1952 -0.8176  0.3518
  170MOL    O1513873   1.427   6.490   1.502 -0.5693 -0.0802  0.1681
  170MOL    H1613874   1.268   6.502   1.371  2.4275  1.1816 -2.0873
  170MOL    H1713875   1.247   6.548   1.540  1.3085  2.3440  1.4104
  170MOL    C1813876   1.398   6.359   1.540 -0.1188  0.0341 -0.7022
  170MOL    O1913877   1.304   6.360   1.640 -0.5819  0.4258 -0.0122
  170MOL    H2013878   1.496   6.318   1.560  0.5191  1.4075 -0.9265
  170MOL    H2113879   1.352   6.310   1.454 -0.6685 -1.2243  0.2986
  170MOL    C2213880   1.358   6.408   1.765 -0.1779 -0.0760 -0.4851
  170MOL    O2313881   1.484   6.360   1.794  0.8675  0.0425 -0.0188
  170MOL    H2413882   1.282   6.383   1.839  0.7310  2.3309  1.3002
  170MOL    H2513883   1.366   6.516   1.779 -2.7165  0.1419 -0.5055
  170MOL    C2613884   1.474   6.229   1.847 -0.6082  0.2617  0.2138
  170MOL    O2713885   1.459   6.233   1.984 -0.0776 -0.4132  0.1385
  170MOL    H2813886   1.567   6.181   1.816  0.2746  2.6149 -0.8616
  170MOL    H2913887   1.399   6.175   1.790 -0.0569  1.3966 -1.6031
  170MOL    C3013888   1.572   6.256   2.065  0.5180  0.2217 -0.7156
  170MOL    O3113889   1.608   6.145   2.144 -0.8101  0.1449  0.3247
  170MOL    H3213890   1.549   6.345   2.125 -1.5802 -0.1828 -0.8788
  170MOL    H3313891   1.656   6.278   1.999  1.6256  0.6908  0.8177
  170MOL    C3413892   1.521   6.108   2.237  0.3962 -0.0992 -0.1481
  170MOL    O3513893   1.502   6.206   2.324 -0.1250 -0.3906 -0.3395
  170MOL    H3613894   1.546   6.017   2.291 -0.6349  0.2373  0.9377
  170MOL    H3713895   1.430   6.093   2.179 -0.0924  0.9661  0.3063
  170MOL    C3813896   1.603   6.229   2.412  0.3055 -0.1372 -0.6377
  170MOL    O3913897   1.677   6.336   2.375 -0.1207  0.8745  0.3889
  170MOL    H4013898   1.666   6.141   2.414  0.0671 -0.2968  2.1870
  170MOL    H4113899   1.561   6.239   2.513  0.7229 -2.4503 -0.2018
  170MOL    C4213900   1.783   6.366   2.463  0.0417 -0.4493 -0.3352
  170MOL    O4313901   1.888   6.271   2.483 -0.1025  0.2325  0.6174
  170MOL    H4413902   1.745   6.393   2.561  0.1487 -1.1798 -0.0927
  170MOL    H4513903   1.839   6.453   2.428  1.4162 -1.1366  0.1296
  170MOL    C4613904   1.962   6.254   2.357 -0.6713 -0.1722 -0.4593
  170MOL    O4713905   2.049   6.357   2.321 -0.1564  0.2576 -0.0831
  170MOL    H4813906   1.888   6.232   2.280 -1.8605 -1.1904  0.9546
  170MOL    H4913907   2.027   6.166   2.356 -1.3240 -0.6446 -1.0037
  170MOL    C5013908   2.157   6.383   2.405 -0.5151 -0.0847  0.0607
  170MOL    O5113909   2.240   6.473   2.334  0.6903  0.2018 -0.2283
  170MOL    H5213910   2.216   6.295   2.429 -0.6076 -0.3922 -0.8221
  170MOL    H5313911   2.117   6.424   2.498 -0.9333 -2.1114  0.8106
  170MOL    C5413912   2.372   6.473   2.376 -1.1726  0.3229 -0.1051
  170MOL    O5513913   2.439   6.353   2.344  0.1727 -0.0356  0.0372
  170MOL    H5613914   2.382   6.477   2.485 -0.2596 -1.4797 -0.1145
  170MOL    H5713915   2.429   6.555   2.333 -0.1706 -1.0133 -1.3573
  170MOL    C5813916   2.574   6.352   2.386 -0.3738  0.4308  0.5339
  170MOL    O5913917   2.584   6.364   2.526 -0.1941  0.1337  0.3151
  170MOL    H6013918   2.632   6.434   2.344 -1.5665  0.5371 -0.9465
  170MOL    H6113919   2.625   6.269   2.338 -0.6716  0.1623  0.6814
  170MOL    C6213920   2.534   6.255   2.592  0.3502 -0.4098  0.0107
  170MOL    O6313921   2.586   6.141   2.556  0.2974 -0.2175  0.1350
  170MOL    H6413922   2.426   6.251   2.576 -0.1008 -0.0673  2.7923
  170MOL    H6513923   2.545   6.273   2.699 -1.1875 -0.4731  0.1982
  170MOL    C6613924   2.715   6.125   2.608 -0.2669 -0.1917  0.5100
  170MOL    O6713925   2.727   6.134   2.748 -0.5785 -0.3162  0.3250
  170MOL    H6813926   2.783   6.198   2.565 -0.2120 -1.3426 -1.4196
  170MOL    H6913927   2.747   6.031   2.563  1.0143 -0.2562  1.5063
  170MOL    C7013928   2.859   6.119   2.784 -0.0706 -0.0658  0.6193
  170MOL    O7113929   2.943   6.218   2.724  0.0120 -0.3901 -0.1424
  170MOL    H7213930   2.895   6.017   2.768  0.3784 -0.1161  1.9102
  170MOL    H7313931   2.849   6.140   2.890  1.7978  0.3605  0.7237
  170MOL    C7413932   2.899   6.350   2.757 -0.0030  1.2647 -0.0373
  170MOL    O7513933   2.965   6.447   2.688  0.0814 -0.0337  0.2934
  170MOL    H7613934   2.915   6.373   2.862  0.1607 -1.0851  0.4772
  170MOL    H7713935   2.793   6.359   2.736  0.4174  0.8567 -2.6181
  170MOL    C7813936   2.943   6.440   2.549 -0.4363 -0.0665  0.3197
  170MOL    O7913937   2.998   6.554   2.484 -0.6443 -0.1642 -0.1572
  170MOL    H8013938   2.836   6.447   2.531  0.0034  0.1328 -2.3548
  170MOL    H8113939   2.980   6.345   2.510  1.1506 -0.1438  1.9254
  170MOL    H8213940   2.944   6.629   2.501 -0.6566  0.0043 -0.9034
  171MOL     C113941   6.096   0.648   0.994  0.1301 -0.4089 -0.5435
  171MOL     O213942   6.096   0.716   0.862 -0.2203 -0.0095  0.0601
  171MOL     H313943   6.185   0.586   1.007  0.8327  0.8861  0.9552
  171MOL     H413944   6.102   0.723   1.072  3.0614 -2.7699  1.5863
  171MOL     H513945   6.007   0.589   1.012  0.6665 -0.9598  0.3093
  171MOL     C613946   6.085   0.621   0.759  0.2378 -0.1564 -0.3358
  171MOL     O713947   6.203   0.553   0.738  0.0215 -0.2980  0.0930
  171MOL     H813948   6.056   0.663   0.663 -0.3373 -0.3185 -0.2346
  171MOL     H913949   6.003   0.557   0.792 -1.2936  2.0710  0.2827
  171MOL    C1013950   6.302   0.626   0.673  0.2083 -0.0249 -0.0415
  171MOL    O1113951   6.268   0.662   0.540  0.7240 -0.0835 -0.1728
  171MOL    H1213952   6.388   0.560   0.681  0.7832  0.7614  0.2547
  171MOL    H1313953   6.334   0.716   0.726  0.7159 -0.6556  0.7277
  171MOL    C1413954   6.280   0.547   0.457  0.1182 -0.0963  0.6076
  171MOL    O1513955   6.413   0.519   0.435 -0.2538 -0.3482  0.3143
  171MOL    H1613956   6.238   0.579   0.362 -1.5539 -1.1146  0.9906
  171MOL    H1713957   6.217   0.463   0.485 -2.0901  0.8506 -1.3557
  171MOL    C1813958   6.468   0.597   0.328  0.2017 -0.3849  0.7447
  171MOL    O1913959   6.422   0.561   0.200 -0.5764 -0.1714 -0.1816
  171MOL    H2013960   6.577   0.588   0.323  0.3324  2.2481 -1.6515
  171MOL    H2113961   6.447   0.702   0.347 -2.1178 -0.8251  0.7561
  171MOL    C2213962   6.463   0.435   0.158  0.0503  0.1653 -0.1861
  171MOL    O2313963   6.387   0.395   0.049  0.2603  0.0385 -0.1776
  171MOL    H2413964   6.456   0.360   0.238 -1.1191 -0.6909 -1.0844
  171MOL    H2513965   6.567   0.442   0.126  0.0949  1.1595  0.1590
  171MOL    C2613966   6.259   0.351   0.094 -0.3667 -0.0580  0.8377
  171MOL    O2713967   6.259   0.224   0.152  0.3019  0.4919 -0.1640
  171MOL    H2813968   6.185   0.357   0.014 -0.0433  2.1849  0.6670
  171MOL    H2913969   6.225   0.420   0.171  0.3797  1.5678 -0.2699
  171MOL    C3013970   6.249   0.131   0.058  0.6089 -0.1068  0.6757
  171MOL    O3113971   6.120   0.114   0.018 -0.2623  0.2433 -0.2886
  171MOL    H3213972   6.286   0.037   0.099 -0.4554 -0.3860  1.0378
  171MOL    H3313973   6.319   0.153   7.762  0.5809  1.5771  1.1079
  171MOL    C3413974   6.102   0.000   7.726 -0.2685 -0.4734  0.5757
  171MOL    O3513975   6.149   7.667   0.008  0.2195 -0.3887  0.1434
  171MOL    H3613976   6.156   0.010   7.632 -1.7541  0.3762 -0.1979
  171MOL    H3713977   5.996   7.781   7.701 -0.6645 -2.7010  2.3278
  171MOL    C3813978   6.142   7.558   7.709  0.4358  0.0476 -0.2031
  171MOL    O3913979   6.014   7.539   7.660  0.1310  0.5335  0.1817
  171MOL    H4013980   6.184   7.469   7.757  0.9572  1.8491  2.8250
  171MOL    H4113981   6.207   7.575   7.624 -0.9800 -2.6538 -1.9291
  171MOL    C4213982   5.925   7.493   7.759  0.4597  0.0082  1.0928
  171MOL    O4313983   5.796   7.494   7.705  0.1333 -0.0429 -0.3135
  171MOL    H4413984   5.927   7.570   0.052  2.2588  1.5384 -0.4498
  171MOL    H4513985   5.958   7.395   0.011  0.1346 -0.3145  0.5084
  171MOL    C4613986   5.704   7.504   0.020 -0.2913  0.8738  0.6191
  171MOL    O4713987   5.580   7.526   7.754  0.0406 -0.2932  0.2867
  171MOL    H4813988   5.728   7.593   0.078  2.7859  0.7021 -0.2619
  171MOL    H4913989   5.705   7.419   0.088 -2.4255 -0.1484 -0.5807
  171MOL    C5013990   5.508   7.418   7.693 -0.2127 -0.0433  0.1337
  171MOL    O5113991   5.481   7.319   0.000  0.2688  0.4523  0.3120
  171MOL    H5213992   5.558   7.375   7.607  0.2227  1.1357 -0.2141
  171MOL    H5313993   5.424   7.469   7.646 -0.4992 -1.2371 -0.6829
  171MOL    C5413994   5.388   7.361   0.099 -0.6211  0.0461  0.2699
  171MOL    O5513995   5.257   7.368   0.056 -0.3598  0.1815 -0.3749
  171MOL    H5613996   5.423   7.450   0.152 -0.0510 -0.2662  0.4093
  171MOL    H5713997   5.387   7.277   0.168 -0.4480 -1.5455 -1.6232
  171MOL    C5813998   5.197   7.239   0.031 -0.7488 -0.7226 -0.0803
  171MOL    O5913999   5.068   7.250   7.756 -0.1074  0.5026 -0.3462
  171MOL    H6014000   5.203   7.171   0.116 -3.4807 -2.7310 -1.4333
  171MOL    H6114001   5.264   7.190   7.745 -1.8270 -1.4677 -0.6057
  171MOL    C6214002   4.973   7.306   0.059 -0.1257 -0.2522 -0.0488
  171MOL    O6314003   4.943   7.225   0.157  0.4128 -0.0192 -0.6383
  171MOL    H6414004   4.888   7.311   7.774 -1.5849 -0.9183  1.6620
  171MOL    H6514005   4.992   7.408   0.092 -2.3984 -0.2677  1.4154
  171MOL    C6614006   4.893   7.101   0.108 -0.5013  0.4619  0.3789
  171MOL    O6714007   4.843   7.016   0.210 -0.0140  0.5818  0.1152
  171MOL    H6814008   4.974   7.041   0.066  0.8604  1.4008  1.6292
  171MOL    H6914009   4.809   7.108   0.039  0.4374 -0.5354 -0.8695
  171MOL    C7014010   4.721   7.056   0.257 -0.2479  0.5725  0.2628
  171MOL    O7114011   4.622   7.022   0.164  0.0282  0.4001  0.4926
  171MOL    H7214012   4.726   7.163   0.276  0.2680  0.7840 -1.0097
  171MOL    H7314013   4.704   6.996   0.346  0.9607  0.8056  0.6441
  171MOL    C7414014   4.493   7.062   0.191  0.2861 -0.1830 -0.6548
  171MOL    O7514015   4.445   6.999   0.313 -0.3815  0.0531  0.4760
  171MOL    H7614016   4.427   7.036   0.108  0.3043  0.8430 -0.9975
  171MOL    H7714017   4.498   7.170   0.205  1.1248 -0.0661 -1.7329
  171MOL    C7814018   4.396   6.869   0.299  0.9165 -0.3240  0.2339
  171MOL    O7914019   4.332   6.819   0.418 -0.0442  0.1333  0.0343
  171MOL    H8014020   4.470   6.798   0.260 -1.0200 -0.7936 -2.7620
  171MOL    H8114021   4.315   6.869   0.226  1.7820  1.2985 -0.7517
  171MOL    H8214022   4.254   6.870   0.432  1.3624  2.1366  0.8435
  172MOL     C114023   4.820   5.656   4.239 -0.3363 -0.5822 -0.2044
  172MOL     O214024   4.782   5.638   4.368 -0.0914 -0.1060 -0.0683
  172MOL     H314025   4.749   5.729   4.199  0.1933  0.9532  1.5668
  172MOL     H414026   4.921   5.697   4.248 -0.7769  0.3874  0.4196
  172MOL     H514027   4.829   5.564   4.181 -0.0681 -0.7700  0.1353
  172MOL     C614028   4.676   5.550   4.381 -0.2810 -0.5218  0.4787
  172MOL     O714029   4.565   5.595   4.310 -0.3674 -0.1939  0.4594
  172MOL     H814030   4.648   5.548   4.486 -0.9708  2.3534  0.3918
  172MOL     H914031   4.719   5.457   4.344  1.2667  1.0686 -1.9402
  172MOL    C1014032   4.493   5.703   4.366  0.5617  0.1068  0.1390
  172MOL    O1114033   4.408   5.659   4.472  0.1117  0.3304  0.0388
  172MOL    H1214034   4.444   5.761   4.288  0.1775 -1.8840 -1.1437
  172MOL    H1314035   4.563   5.771   4.415  1.6184  0.2375 -1.5066
  172MOL    C1414036   4.316   5.563   4.429  0.0236  0.9480 -0.5415
  172MOL    O1514037   4.239   5.523   4.537 -0.2054 -0.2236  0.8587
  172MOL    H1614038   4.374   5.478   4.392 -1.5530 -1.6205  2.6929
  172MOL    H1714039   4.258   5.603   4.346 -0.8151  0.5600 -0.1482
  172MOL    C1814040   4.284   5.428   4.623  0.3148 -0.1645 -0.4376
  172MOL    O1914041   4.279   5.299   4.578  0.1377  0.5577  0.7608
  172MOL    H2014042   4.228   5.444   4.716 -0.5225  1.9713 -1.2841
  172MOL    H2114043   4.387   5.450   4.653  0.4084 -0.5265 -0.4904
  172MOL    C2214044   4.155   5.234   4.586 -0.4133  0.4119 -0.1374
  172MOL    O2314045   4.057   5.274   4.497 -0.4596 -0.9565  0.0853
  172MOL    H2414046   4.110   5.253   4.683 -0.1089  1.9886 -0.2859
  172MOL    H2514047   4.174   5.127   4.593  0.2960  0.6659  2.5337
  172MOL    C2614048   4.083   5.243   4.366  0.7257  0.5519 -0.0309
  172MOL    O2714049   4.039   5.122   4.332 -0.3075 -0.2191  0.4970
  172MOL    H2814050   4.189   5.250   4.344  0.9095  0.5640  0.8283
  172MOL    H2914051   4.042   5.323   4.304  0.6163  0.0123 -0.6547
  172MOL    C3014052   3.904   5.119   4.311  0.2723 -1.1751 -0.0066
  172MOL    O3114053   3.868   5.122   4.179  0.5535 -0.3393  0.6889
  172MOL    H3214054   3.847   5.189   4.372  1.4902 -0.3268  0.1547
  172MOL    H3314055   3.881   5.027   4.365  1.0300 -0.5337  1.4186
  172MOL    C3414056   3.923   5.017   4.098  0.7197  0.4174 -0.0115
  172MOL    O3514057   3.894   4.884   4.127 -0.1546 -0.1489  0.7834
  172MOL    H3614058   4.032   5.013   4.092  0.7371  1.1038 -0.1952
  172MOL    H3714059   3.885   5.046   4.000  0.5168 -0.9999 -0.3517
  172MOL    C3814060   3.756   4.848   4.113 -0.2178  0.1272 -0.5213
  172MOL    O3914061   3.677   4.895   4.222  0.1753  0.1807 -0.6810
  172MOL    H4014062   3.740   4.740   4.116 -1.3776  0.3232  0.8901
  172MOL    H4114063   3.709   4.877   4.019  0.5246 -0.2520 -1.0132
  172MOL    C4214064   3.707   4.816   4.339 -0.0130 -0.4605  0.1843
  172MOL    O4314065   3.659   4.689   4.320 -0.5713  0.3237  0.4733
  172MOL    H4414066   3.663   4.871   4.422 -0.8628  2.1684 -1.9394
  172MOL    H4514067   3.814   4.800   4.352  0.1976 -0.1329 -1.0494
  172MOL    C4614068   3.521   4.683   4.348 -0.2570 -0.3592 -0.2859
  172MOL    O4714069   3.505   4.676   4.491  0.1797  0.0267  0.4193
  172MOL    H4814070   3.497   4.586   4.305  0.4069  0.1492 -1.8471
  172MOL    H4914071   3.457   4.758   4.304 -0.6251  0.3457  1.3953
  172MOL    C5014072   3.543   4.556   4.551  1.1680 -0.1601 -0.0533
  172MOL    O5114073   3.460   4.448   4.539  0.2475  1.1375 -0.4598
  172MOL    H5214074   3.561   4.590   4.653  1.3330  2.7094 -1.0127
  172MOL    H5314075   3.641   4.521   4.519  1.6260  0.7838  0.3052
  172MOL    C5414076   3.336   4.480   4.597 -0.3758  0.1853  0.9655
  172MOL    O5514077   3.345   4.474   4.737 -0.9960  0.5956 -0.3351
  172MOL    H5614078   3.278   4.395   4.561  1.0275 -0.2733 -0.2605
  172MOL    H5714079   3.291   4.576   4.569  0.5265 -0.0801 -1.4000
  172MOL    C5814080   3.234   4.521   4.808 -0.4684 -0.2419  0.0539
  172MOL    O5914081   3.242   4.651   4.855  0.0448 -0.1151 -0.1353
  172MOL    H6014082   3.229   4.451   4.892  0.5774  0.3477  0.6274
  172MOL    H6114083   3.141   4.506   4.755  0.3399 -0.5927 -1.2831
  172MOL    C6214084   3.332   4.674   4.958 -0.1215  0.8282 -0.4275
  172MOL    O6314085   3.329   4.586   5.068 -0.2109 -0.7287  0.0622
  172MOL    H6414086   3.334   4.777   4.994  0.7794  0.2555  1.2231
  172MOL    H6514087   3.436   4.652   4.931 -0.6981  0.1972 -2.1456
  172MOL    C6614088   3.214   4.612   5.146 -0.5377 -0.0704 -0.4540
  172MOL    O6714089   3.241   4.612   5.279  0.0971  0.2555 -0.8863
  172MOL    H6814090   3.138   4.537   5.125 -2.5625  1.3911  1.3004
  172MOL    H6914091   3.163   4.708   5.133  0.7157  0.8254  1.0377
  172MOL    C7014092   3.242   4.482   5.330  0.7096 -0.0987  0.3481
  172MOL    O7114093   3.264   4.484   5.466  0.5282 -0.1130  0.1915
  172MOL    H7214094   3.310   4.422   5.269  0.8793  1.6062 -1.1669
  172MOL    H7314095   3.143   4.439   5.318  0.3930  0.5860  0.5148
  172MOL    C7414096   3.400   4.506   5.488 -0.0857  0.4103  0.3030
  172MOL    O7514097   3.472   4.386   5.466  0.2523 -0.6941 -0.6870
  172MOL    H7614098   3.411   4.556   5.584 -0.0234  3.6231 -1.2967
  172MOL    H7714099   3.436   4.579   5.415  0.3014 -0.9688 -0.9295
  172MOL    C7814100   3.427   4.280   5.547  0.7424 -0.2833  0.3088
  172MOL    O7914101   3.496   4.158   5.515  0.5411  0.1509 -0.4013
  172MOL    H8014102   3.320   4.263   5.538  0.7027 -1.6035  2.7530
  172MOL    H8114103   3.451   4.306   5.650 -0.0797  0.7803  0.2407
  172MOL    H8214104   3.571   4.159   5.572  2.4699 -4.0405 -2.6010
  173MOL     C114105   1.315   0.187   4.690 -1.0189 -0.7117  0.1443
  173MOL     O214106   1.297   0.113   4.808  0.4796 -0.2630  0.0554
  173MOL     H314107   1.222   0.232   4.655 -0.6480 -1.5180 -1.9660
  173MOL     H414108   1.389   0.264   4.709 -0.7162 -0.7848 -0.7062
  173MOL     H514109   1.345   0.124   4.606  1.5372 -1.7416  1.7745
  173MOL     C614110   1.239   0.172   4.919  0.4739  0.5902 -0.0877
  173MOL     O714111   1.328   0.245   4.989 -0.1742 -0.0936  0.4152
  173MOL     H814112   1.196   0.098   4.987  1.6858  0.9148  1.0340
  173MOL     H914113   1.161   0.232   4.872 -1.0923 -0.4638  1.1091
  173MOL    C1014114   1.443   0.174   5.024 -0.5673  0.0529 -0.0749
  173MOL    O1114115   1.418   0.069   5.108  0.3899 -0.2656 -0.1076
  173MOL    H1214116   1.521   0.241   5.062 -0.6610 -0.2083  0.6016
  173MOL    H1314117   1.493   0.133   4.936 -0.4228  0.5477 -0.2211
  173MOL    C1414118   1.428   0.095   5.242 -0.5995 -0.2647 -0.4875
  173MOL    O1514119   1.554   0.083   5.294  0.3184  0.6306 -0.1214
  173MOL    H1614120   1.357   0.034   5.298 -1.1629 -0.0523 -0.9702
  173MOL    H1714121   1.408   0.201   5.257 -0.6594 -0.4910  1.1316
  173MOL    C1814122   1.588   7.730   5.311  0.8725 -0.1378 -0.2425
  173MOL    O1914123   1.705   7.724   5.384  0.0286  0.0886 -0.1640
  173MOL    H2014124   1.607   7.684   5.214 -0.7400 -0.2053 -0.5435
  173MOL    H2114125   1.508   7.664   5.344 -0.7733  1.3659 -1.0995
  173MOL    C2214126   1.687   7.740   5.525 -0.6488  0.1054 -0.0865
  173MOL    O2314127   1.619   7.638   5.590  0.5731 -0.6560  0.1866
  173MOL    H2414128   1.638   0.050   5.550 -0.8782  0.0778 -0.4294
  173MOL    H2514129   1.780   7.763   5.577 -2.0707  1.3785  1.9511
  173MOL    C2614130   1.674   7.514   5.581  1.0420 -0.2161 -0.5438
  173MOL    O2714131   1.781   7.492   5.663  0.3097  0.5144  0.2312
  173MOL    H2814132   1.709   7.490   5.481  2.1177 -1.4589  0.1012
  173MOL    H2914133   1.599   7.438   5.600 -0.9468  2.0258  0.8812
  173MOL    C3014134   1.748   7.498   5.792 -0.4905  0.2725 -0.3481
  173MOL    O3114135   1.859   7.465   5.873 -0.2873 -0.2868  0.0967
  173MOL    H3214136   1.670   7.424   5.812  1.1373 -0.9749  1.5557
  173MOL    H3314137   1.709   7.592   5.831 -1.0803 -0.4543  0.8689
  173MOL    C3414138   1.953   7.560   5.881 -0.8165  0.1182  0.0855
  173MOL    O3514139   2.070   7.534   5.822  0.2185  0.0907  0.0606
  173MOL    H3614140   1.983   7.579   5.984 -0.5322  0.1877 -0.0119
  173MOL    H3714141   1.923   7.656   5.838 -4.2614 -0.2366  1.5320
  173MOL    C3814142   2.161   7.451   5.890  0.1655  0.5300 -0.6491
  173MOL    O3914143   2.219   7.516   5.995  0.0125 -0.1380 -0.4609
  173MOL    H4014144   2.239   7.421   5.820 -1.0054 -2.5649 -0.7013
  173MOL    H4114145   2.110   7.364   5.931  1.3648 -1.1638 -2.6547
  173MOL    C4214146   2.336   7.588   5.963 -0.4888 -0.3446 -0.3438
  173MOL    O4314147   2.450   7.513   5.941 -0.0597  0.4949  0.0654
  173MOL    H4414148   2.359   7.660   6.042 -0.1632 -1.4744  0.6133
  173MOL    H4514149   2.321   7.646   5.872 -0.1212 -0.9934 -0.8204
  173MOL    C4614150   2.493   7.437   6.054  0.9045 -0.2456 -0.4447
  173MOL    O4714151   2.577   7.522   6.136 -0.5368  0.3630 -0.4606
  173MOL    H4814152   2.542   7.348   6.014 -0.4311 -1.0443 -0.3368
  173MOL    H4914153   2.412   7.405   6.119  1.4861  1.3637  1.0949
  173MOL    C5014154   2.616   7.453   6.251 -0.4362  0.6203 -0.3059
  173MOL    O5114155   2.709   7.524   6.329 -0.1507  0.5149  0.1741
  173MOL    H5214156   2.660   7.358   6.222 -1.6639 -0.1701  0.4194
  173MOL    H5314157   2.528   7.428   6.309  1.3508 -1.1396  1.7578
  173MOL    C5414158   2.661   7.643   6.383 -0.3154  0.3497  0.1417
  173MOL    O5514159   2.583   7.627   6.496 -0.9756  0.3869 -0.0550
  173MOL    H5614160   2.613   7.705   6.306  1.0592  1.3330  0.0477
  173MOL    H5714161   2.749   7.691   6.428  1.1945 -2.0302 -0.2107
  173MOL    C5814162   2.552   7.746   6.565  0.6526  0.1720 -0.1200
  173MOL    O5914163   2.657   0.023   6.621  0.3554 -0.2476 -0.0675
  173MOL    H6014164   2.477   7.720   6.639 -0.0745 -0.3159 -1.0074
  173MOL    H6114165   2.506   0.033   6.496  1.7127  0.3368 -0.6622
  173MOL    C6214166   2.637   0.096   6.735  0.0611 -0.5562 -0.3171
  173MOL    O6314167   2.598   0.023   6.849 -0.3301  0.7241  0.3457
  173MOL    H6414168   2.568   0.178   6.717  0.4191 -0.6144 -2.0119
  173MOL    H6514169   2.726   0.153   6.759 -0.7520  0.5428  0.1204
  173MOL    C6614170   2.706   7.736   6.901  0.5427 -0.1354 -0.4825
  173MOL    O6714171   2.768   0.022   7.001 -0.0686  0.1671  0.2468
  173MOL    H6814172   2.778   7.698   6.829  0.1988 -3.8035  1.0218
  173MOL    H6914173   2.664   7.651   6.953 -0.3875  1.9841  2.3914
  173MOL    C7014174   2.692   0.043   7.114  0.5007  0.5669 -0.4084
  173MOL    O7114175   2.676   7.710   7.184  0.9812 -0.1434  0.3957
  173MOL    H7214176   2.595   0.089   7.095  0.7908  1.4582  0.2452
  173MOL    H7314177   2.745   0.115   7.177  1.9823 -2.5406  2.0318
  173MOL    C7414178   2.638   7.737   7.318  0.2577  0.6973 -0.0289
  173MOL    O7514179   2.746   7.775   7.405  0.3947  0.5993  0.2313
  173MOL    H7614180   2.599   7.644   7.359  0.2176  1.4093  1.5961
  173MOL    H7714181   2.553   0.021   7.328  0.1634  0.6257 -0.3371
  173MOL    C7814182   2.851   7.686   7.410  0.2508 -0.1030 -0.1502
  173MOL    O7914183   2.927   7.696   7.531 -0.0924  0.1214  0.8748
  173MOL    H8014184   2.912   7.692   7.320  1.1176 -1.8987  0.2917
  173MOL    H8114185   2.814   7.585   7.426 -0.2495  0.2938  1.2494
  173MOL    H8214186   3.018   7.705   7.511  0.0185 -0.3094  1.1673
  174MOL     C114187   2.196   2.213   4.966  0.2589  0.0793  0.2036
  174MOL     O214188   2.136   2.340   4.943 -0.0550  0.3980  0.4233
  174MOL     H314189   2.110   2.150   4.990 -0.1142  1.0091  1.3109
  174MOL     H414190   2.240   2.178   4.872 -2.3839 -1.2764 -0.6077
  174MOL     H514191   2.278   2.221   5.037 -0.1246 -0.4719  0.7168
  174MOL     C614192   2.063   2.390   5.048 -0.0923  0.2837 -0.1389
  174MOL     O714193   2.020   2.519   5.024  0.2551  0.0122 -0.0666
  174MOL     H814194   2.130   2.395   5.134 -1.0675  3.1932  0.5082
  174MOL     H914195   1.977   2.326   5.068  0.5489 -0.0815  1.5299
  174MOL    C1014196   2.123   2.613   5.005 -0.3235  0.3694  0.2796
  174MOL    O1114197   2.093   2.700   4.897 -0.2850 -0.0568 -0.0724
  174MOL    H1214198   2.221   2.571   4.984 -0.5516  0.7350 -1.6587
  174MOL    H1314199   2.127   2.681   5.089 -2.9193  0.4370  0.3934
  174MOL    C1414200   2.127   2.643   4.774 -0.2812 -0.8895 -0.0776
  174MOL    O1514201   2.084   2.720   4.670 -0.0636  0.1595 -0.3123
  174MOL    H1614202   2.082   2.544   4.761  1.7588 -1.7465 -0.8903
  174MOL    H1714203   2.235   2.632   4.774 -0.3559 -1.7214  1.0847
  174MOL    C1814204   2.148   2.846   4.664  0.7667  0.2288 -0.7599
  174MOL    O1914205   2.281   2.831   4.623  0.0891 -0.1576  0.4629
  174MOL    H2014206   2.160   2.888   4.764  0.2791 -0.2507 -0.4939
  174MOL    H2114207   2.087   2.925   4.621  0.9300  0.6809 -0.1734
  174MOL    C2214208   2.298   2.806   4.487  0.5575  0.3170 -0.0728
  174MOL    O2314209   2.266   2.904   4.403 -0.0976  0.0037 -0.2082
  174MOL    H2414210   2.234   2.725   4.451 -0.8600  0.1937  2.6227
  174MOL    H2514211   2.402   2.775   4.473  1.3724  3.5725 -1.6869
  174MOL    C2614212   2.345   3.019   4.424 -0.2250  0.4521 -0.2298
  174MOL    O2714213   2.481   3.004   4.400  0.7094  0.1062  0.0549
  174MOL    H2814214   2.330   3.047   4.528  0.6456 -0.8004  0.2520
  174MOL    H2914215   2.307   3.107   4.372  1.0894  0.3160 -1.4581
  174MOL    C3014216   2.516   3.000   4.265  0.1270  0.0135  0.0625
  174MOL    O3114217   2.543   3.128   4.212 -0.0634 -0.3568  0.1864
  174MOL    H3214218   2.428   2.956   4.217  1.4228 -2.6907  0.0768
  174MOL    H3314219   2.607   2.941   4.258 -0.4263 -0.6987 -1.4700
  174MOL    C3414220   2.524   3.143   4.071  0.4643 -0.7344  0.0342
  174MOL    O3514221   2.630   3.074   4.015  0.6791 -0.2502  0.0593
  174MOL    H3614222   2.522   3.250   4.049  0.7716 -0.2747  2.0507
  174MOL    H3714223   2.429   3.100   4.040  0.1633  0.0069 -0.0920
  174MOL    C3814224   2.623   3.082   3.876  0.0668  0.0848 -0.3077
  174MOL    O3914225   2.655   3.198   3.822 -0.0383 -0.1067  0.1433
  174MOL    H4014226   2.525   3.053   3.838 -0.5625  0.1962  1.2030
  174MOL    H4114227   2.698   3.006   3.849  0.6311  0.4288  0.2621
  174MOL    C4214228   2.784   3.241   3.855  0.8475  0.6926 -0.3268
  174MOL    O4314229   2.782   3.330   3.964 -0.6156  0.1569  0.2546
  174MOL    H4414230   2.835   3.291   3.772 -0.2411  3.6921  0.7551
  174MOL    H4514231   2.838   3.152   3.886 -1.0990  0.4558  2.5471
  174MOL    C4614232   2.717   3.452   3.947  0.1013  0.0901 -0.4922
  174MOL    O4714233   2.779   3.529   3.848  0.2784  0.1447  0.0372
  174MOL    H4814234   2.728   3.493   4.047  0.4262 -1.0452 -0.0580
  174MOL    H4914235   2.609   3.444   3.930  0.0724  1.9923 -1.3570
  174MOL    C5014236   2.718   3.653   3.809  0.0862 -0.3391 -0.0671
  174MOL    O5114237   2.607   3.632   3.729 -0.1304  0.4196 -0.4661
  174MOL    H5214238   2.799   3.706   3.760  0.4742 -2.6509 -2.0435
  174MOL    H5314239   2.682   3.707   3.897  0.2618 -1.4573  0.7076
  174MOL    C5414240   2.633   3.574   3.607  0.0797 -0.1763 -0.0817
  174MOL    O5514241   2.514   3.581   3.531  0.0006  0.1668  0.1341
  174MOL    H5614242   2.648   3.469   3.632 -2.5371 -0.0469  2.3458
  174MOL    H5714243   2.726   3.617   3.570 -1.7939  1.5468 -3.0027
  174MOL    C5814244   2.533   3.582   3.390  0.2378 -0.3701  0.3641
  174MOL    O5914245   2.597   3.697   3.353 -0.0868 -0.0819 -0.4431
  174MOL    H6014246   2.436   3.583   3.339  0.5904  1.5152 -0.3541
  174MOL    H6114247   2.570   3.480   3.380 -1.0114 -0.8864  0.9327
  174MOL    C6214248   2.511   3.802   3.333  0.6249  0.0490  0.1702
  174MOL    O6314249   2.472   3.815   3.195  0.2785  1.0009 -0.7624
  174MOL    H6414250   2.569   3.892   3.353  0.8957 -0.1864  0.4424
  174MOL    H6514251   2.430   3.822   3.403  1.2994  0.2375  0.9064
  174MOL    C6614252   2.369   3.905   3.188  0.3424 -1.3788 -0.2041
  174MOL    O6714253   2.250   3.842   3.219  1.0033 -0.5015 -0.0226
  174MOL    H6814254   2.366   3.954   3.091 -1.1539 -0.1912  0.4233
  174MOL    H6914255   2.364   3.984   3.263  0.0482 -2.5172  1.0036
  174MOL    C7014256   2.198   3.766   3.114 -0.6248  0.3793  0.6971
  174MOL    O7114257   2.090   3.689   3.149 -0.1740  0.3376 -0.7945
  174MOL    H7214258   2.282   3.702   3.089 -0.2961  1.2323 -0.4224
  174MOL    H7314259   2.174   3.829   3.028 -0.9382  0.2084  0.6577
  174MOL    C7414260   1.980   3.759   3.184  0.3906 -0.3349  1.0106
  174MOL    O7514261   1.932   3.831   3.079 -0.1344 -0.2541 -0.0313
  174MOL    H7614262   1.998   3.822   3.271 -0.4695 -0.2121  1.1030
  174MOL    H7714263   1.899   3.695   3.220  1.2071 -2.2955 -0.5253
  174MOL    C7814264   1.803   3.881   3.097 -0.3204  0.8584 -0.3936
  174MOL    O7914265   1.756   3.964   2.998 -0.5935 -0.3839 -0.0219
  174MOL    H8014266   1.796   3.932   3.193  0.3598 -1.5426  0.9677
  174MOL    H8114267   1.738   3.798   3.123 -0.1029  0.7709 -0.1224
  174MOL    H8214268   1.734   3.908   2.925  2.7946  0.3389 -1.7061
  175MOL     C114269   5.628   1.433   6.991 -0.0676  0.1889 -1.0784
  175MOL     O214270   5.547   1.464   7.106 -0.3451 -0.1823 -0.2228
  175MOL     H314271   5.615   1.498   6.904  0.2340 -0.4080 -1.5689
  175MOL     H414272   5.731   1.451   7.022 -0.1368 -0.2299 -0.5964
  175MOL     H514273   5.617   1.331   6.956  0.6215 -0.1539 -0.2967
  175MOL     C614274   5.581   1.390   7.222 -0.5779  0.1359 -0.0889
  175MOL     O714275   5.655   1.463   7.318 -0.2190 -0.6283  0.7047
  175MOL     H814276   5.640   1.299   7.209 -0.8352  0.0845 -0.8956
  175MOL     H914277   5.482   1.360   7.257 -0.1273 -0.9914  0.2296
  175MOL    C1014278   5.581   1.533   7.409 -0.2044 -0.2767 -0.6481
  175MOL    O1114279   5.530   1.443   7.509 -0.0488 -0.1206  0.8024
  175MOL    H1214280   5.499   1.594   7.370  0.2583  0.0491 -1.1173
  175MOL    H1314281   5.649   1.604   7.456 -0.4831 -0.6270  0.3072
  175MOL    C1414282   5.449   1.512   7.599 -0.0888  0.1616  0.2054
  175MOL    O1514283   5.525   1.601   7.679  0.3814 -0.1172  0.1744
  175MOL    H1614284   5.396   1.443   7.664 -1.6241 -0.2399 -1.4275
  175MOL    H1714285   5.372   1.568   7.544 -0.4074 -0.4746  0.0038
  175MOL    C1814286   5.591   1.547   0.015  0.0335 -0.1955  0.3527
  175MOL    O1914287   5.507   1.505   0.113 -0.1077 -0.5385 -0.3480
  175MOL    H2014288   5.661   1.619   0.056  1.5121 -0.9906 -0.7312
  175MOL    H2114289   5.647   1.459   7.766 -0.3827 -0.4542  0.3361
  175MOL    C2214290   5.439   1.606   0.171 -0.4036 -0.0610 -0.0348
  175MOL    O2314291   5.513   1.668   0.276  0.0994  0.1359  0.1440
  175MOL    H2414292   5.349   1.563   0.214  0.0189  1.4721  2.4808
  175MOL    H2514293   5.410   1.684   0.101 -0.3368  1.7277  1.8835
  175MOL    C2614294   5.523   1.575   0.385  0.4043 -0.9257  0.7954
  175MOL    O2714295   5.592   1.636   0.487 -0.2237  0.0505  0.2461
  175MOL    H2814296   5.576   1.483   0.360  2.1785  0.2706 -0.0103
  175MOL    H2914297   5.424   1.556   0.426 -1.3014  0.0458 -2.7199
  175MOL    C3014298   5.733   1.636   0.458  0.2119 -0.2923  0.4158
  175MOL    O3114299   5.787   1.512   0.476 -0.1582 -0.0857  0.0347
  175MOL    H3214300   5.783   1.705   0.525 -1.6697 -0.8176  2.4071
  175MOL    H3314301   5.747   1.662   0.353 -1.2717 -1.0109  0.0243
  175MOL    C3414302   5.800   1.480   0.613  0.2536 -0.1062 -0.5433
  175MOL    O3514303   5.904   1.544   0.661  0.0542 -0.4012 -0.3910
  175MOL    H3614304   5.819   1.373   0.625 -0.8773 -0.1432  1.1263
  175MOL    H3714305   5.712   1.503   0.673  0.2205  2.1299 -1.3939
  175MOL    C3814306   5.943   1.507   0.790  1.4480 -0.0448  0.4598
  175MOL    O3914307   5.858   1.561   0.883 -0.2262  0.3246  0.3268
  175MOL    H4014308   6.049   1.530   0.800  1.4427 -0.2104  0.9011
  175MOL    H4114309   5.948   1.400   0.807  0.6954 -0.2679 -0.6938
  175MOL    C4214310   5.918   1.574   1.012  0.2991 -0.3776  0.0193
  175MOL    O4314311   5.947   1.451   1.059 -0.5562  0.1070  0.2863
  175MOL    H4414312   5.855   1.633   1.079  1.2112 -1.5927  2.0038
  175MOL    H4514313   6.015   1.624   1.010  0.1985 -0.2468 -1.8923
  175MOL    C4614314   5.838   1.372   1.092 -0.1152  0.8835 -0.0881
  175MOL    O4714315   5.779   1.408   1.214 -0.1495  0.2034 -0.2384
  175MOL    H4814316   5.863   1.266   1.089  0.3484  1.0072 -0.8021
  175MOL    H4914317   5.765   1.373   1.011  0.6807 -0.2049 -0.8374
  175MOL    C5014318   5.677   1.318   1.249 -0.7648 -0.2892 -0.4406
  175MOL    O5114319   5.574   1.301   1.153  0.1483 -0.5624 -0.3242
  175MOL    H5214320   5.634   1.352   1.344 -0.9390  0.5937 -0.8311
  175MOL    H5314321   5.712   1.216   1.268 -0.5369 -0.6407 -2.6222
  175MOL    C5414322   5.494   1.415   1.133  0.0050 -0.3479  0.3406
  175MOL    O5514323   5.393   1.424   1.222 -0.0536  0.4403 -0.2222
  175MOL    H5614324   5.461   1.415   1.030 -0.4422  0.7057  0.4772
  175MOL    H5714325   5.557   1.504   1.142 -0.7306  0.2475 -0.3300
  175MOL    C5814326   5.308   1.317   1.208  0.2322 -0.3923 -0.4516
  175MOL    O5914327   5.258   1.301   1.080 -0.6069  0.4086  0.3232
  175MOL    H6014328   5.222   1.339   1.271 -1.3959 -3.4725 -1.5136
  175MOL    H6114329   5.353   1.228   1.252  0.3249  0.5231  1.3586
  175MOL    C6214330   5.149   1.211   1.069 -0.6100 -0.3290 -0.4096
  175MOL    O6314331   5.179   1.076   1.089 -0.6031  0.0673  0.1770
  175MOL    H6414332   5.102   1.225   0.972  0.0858  0.9577 -0.5818
  175MOL    H6514333   5.074   1.245   1.141 -2.3858  1.0778 -2.8490
  175MOL    C6614334   5.256   1.019   0.987  0.6066  0.1125  0.1511
  175MOL    O6714335   5.276   0.881   1.010  0.0813  0.0081  0.1211
  175MOL    H6814336   5.356   1.063   0.987 -0.1296  2.0629  3.5234
  175MOL    H6914337   5.200   1.032   0.895  0.5014  0.4806  0.2653
  175MOL    C7014338   5.158   0.805   1.010  0.2500  0.1795  0.6698
  175MOL    O7114339   5.117   0.774   0.879  0.5904 -0.1237 -0.4611
  175MOL    H7214340   5.068   0.858   1.040 -1.0574 -0.4560 -1.9515
  175MOL    H7314341   5.171   0.716   1.072 -0.7201 -1.4663 -1.4204
  175MOL    C7414342   5.202   0.676   0.829  0.3546 -0.0045  0.2028
  175MOL    O7514343   5.208   0.668   0.692  0.5131  0.0525  0.2845
  175MOL    H7614344   5.187   0.578   0.874  2.1444  0.1862  1.2443
  175MOL    H7714345   5.306   0.706   0.841  0.5457 -0.8163  0.6547
  175MOL    C7814346   5.086   0.635   0.635  0.9847  0.3408  0.0457
  175MOL    O7914347   5.098   0.590   0.503  0.7950 -0.2479 -0.3278
  175MOL    H8014348   5.030   0.728   0.633  0.9904  0.3787  1.2871
  175MOL    H8114349   5.040   0.560   0.700 -1.1388 -0.0061 -1.7926
  175MOL    H8214350   5.108   0.496   0.497 -1.5971 -0.5790  0.4014
  176MOL     C114351   5.580   2.448   6.841 -0.3969 -0.4248  0.7678
  176MOL     O214352   5.514   2.579   6.849 -0.3794  0.2683  0.3020
  176MOL     H314353   5.583   2.413   6.738  1.8923  2.2630 -0.1376
  176MOL     H414354   5.684   2.461   6.872  0.6245 -0.9229 -2.2743
  176MOL     H514355   5.534   2.382   6.915 -0.9829  0.4724  1.1981
  176MOL     C614356   5.579   2.673   6.781  0.1740  0.3026  0.5974
  176MOL     O714357   5.671   2.728   6.861  0.0015 -0.2752 -0.0555
  176MOL     H814358   5.504   2.747   6.752  1.3357  0.7810 -1.3430
  176MOL     H914359   5.620   2.631   6.689  1.7864 -0.0740  1.4664
  176MOL    C1014360   5.755   2.824   6.797  0.5663 -0.4247  0.1966
  176MOL    O1114361   5.686   2.942   6.745  0.0414  0.3853  0.8292
  176MOL    H1214362   5.816   2.779   6.719  0.6977 -0.2659  0.2061
  176MOL    H1314363   5.833   2.854   6.867 -0.3372 -0.7418  1.3448
  176MOL    C1414364   5.653   3.041   6.841  0.0529  0.7688  0.0832
  176MOL    O1514365   5.759   3.096   6.910  0.3297 -0.1952 -0.2826
  176MOL    H1614366   5.582   3.000   6.914 -1.2248  0.9962 -1.0063
  176MOL    H1714367   5.600   3.123   6.792  1.5598  2.0447  0.5578
  176MOL    C1814368   5.857   3.147   6.830  0.5134 -0.6119 -0.5083
  176MOL    O1914369   5.957   3.205   6.908  1.0443 -0.0064  0.3311
  176MOL    H2014370   5.809   3.208   6.754  0.4505 -0.4479 -0.3390
  176MOL    H2114371   5.907   3.063   6.783  3.1639  1.6578 -1.8722
  176MOL    C2214372   5.918   3.319   6.972 -0.3472  0.3957 -0.5396
  176MOL    O2314373   6.028   3.405   6.977 -0.4113  0.3547 -0.0688
  176MOL    H2414374   5.881   3.305   7.073 -0.0515 -0.8233 -0.5994
  176MOL    H2514375   5.836   3.375   6.926 -0.7543  0.7861  0.6447
  176MOL    C2614376   6.064   3.452   6.848 -0.1109 -0.1512  0.0030
  176MOL    O2714377   5.961   3.538   6.806  0.1139 -0.1689  0.0198
  176MOL    H2814378   6.076   3.366   6.783 -0.9217  1.6211 -2.5706
  176MOL    H2914379   6.153   3.512   6.864 -0.3544 -0.3181  2.2345
  176MOL    C3014380   5.993   3.601   6.680  0.1196  0.6371 -0.3752
  176MOL    O3114381   6.077   3.711   6.701 -0.7491  0.2486 -0.4790
  176MOL    H3214382   5.900   3.645   6.644 -2.4228 -3.0085  1.4809
  176MOL    H3314383   6.032   3.538   6.599  0.4261  1.5408 -0.9374
  176MOL    C3414384   6.018   3.827   6.757  0.2175  0.0547 -0.2669
  176MOL    O3514385   6.110   3.895   6.842  0.2962 -0.7202 -0.1026
  176MOL    H3614386   5.928   3.799   6.811  1.4687 -0.2561  1.6790
  176MOL    H3714387   5.985   3.890   6.674 -0.1892  2.8048  1.9078
  176MOL    C3814388   6.193   3.982   6.760 -0.2593 -0.4968 -0.5684
  176MOL    O3914389   6.124   4.095   6.722 -0.3500 -0.1862  0.1831
  176MOL    H4014390   6.236   3.933   6.672  4.2088 -0.1208  1.2442
  176MOL    H4114391   6.279   4.004   6.823 -0.3390  1.2028 -1.0070
  176MOL    C4214392   6.216   4.187   6.666 -0.1260 -0.3843  0.4471
  176MOL    O4314393   6.274   4.131   6.547 -0.0619 -0.6040 -1.2709
  176MOL    H4414394   6.295   4.233   6.725  0.7187 -2.3688  0.9239
  176MOL    H4514395   6.155   4.275   6.643 -1.1506 -0.9763  0.8462
  176MOL    C4614396   6.210   4.175   6.435  1.0167 -0.2763 -1.1326
  176MOL    O4714397   6.237   4.305   6.407  0.1160  0.6460 -0.2872
  176MOL    H4814398   6.102   4.167   6.436  0.8541  1.4264  2.4072
  176MOL    H4914399   6.251   4.118   6.352  2.5729  0.8326 -1.1541
  176MOL    C5014400   6.366   4.326   6.356 -0.8168  0.3946  0.1014
  176MOL    O5114401   6.376   4.455   6.311 -0.6769 -0.1586 -0.1203
  176MOL    H5214402   6.400   4.258   6.278  1.4637 -0.6411  1.9519
  176MOL    H5314403   6.435   4.315   6.439 -0.0435 -0.8137 -0.6900
  176MOL    C5414404   6.273   4.474   6.211 -0.2189  0.0961 -0.6458
  176MOL    O5514405   6.278   4.375   6.107  0.0804 -0.0957  0.2205
  176MOL    H5614406   6.287   4.574   6.170 -0.3876  0.1586 -0.5503
  176MOL    H5714407   6.167   4.470   6.235 -0.1435  0.3655 -0.2693
  176MOL    C5814408   6.180   4.399   6.004 -0.3736 -0.2109  0.3758
  176MOL    O5914409   6.048   4.372   6.058  0.1891  0.2988  0.1192
  176MOL    H6014410   6.209   4.328   5.927 -0.3333 -0.1753  0.3594
  176MOL    H6114411   6.197   4.497   5.960  1.0194 -0.8964 -0.6470
  176MOL    C6214412   6.028   4.229   6.070  0.2533 -0.5255 -0.2786
  176MOL    O6314413   6.038   4.159   5.944 -0.5563  0.2987  0.0290
  176MOL    H6414414   5.939   4.218   6.131  0.3373 -0.5263 -0.1559
  176MOL    H6514415   6.107   4.196   6.137  2.1284  0.6943 -1.8077
  176MOL    C6614416   6.029   4.021   5.958 -0.1619 -0.3640  0.4554
  176MOL    O6714417   6.139   3.953   6.013 -0.0404  0.1618 -0.0071
  176MOL    H6814418   6.013   3.972   5.862  1.1313  1.0993 -0.5171
  176MOL    H6914419   5.946   3.998   6.025  0.5312 -2.3206  0.6713
  176MOL    C7014420   6.253   3.948   5.928 -0.5076  0.3992  0.2981
  176MOL    O7114421   6.236   3.875   5.809  0.6740  0.2181  0.0628
  176MOL    H7214422   6.347   3.923   5.977  0.9314  1.6696 -1.7407
  176MOL    H7314423   6.266   4.050   5.891  0.6744 -0.1115 -0.7619
  176MOL    C7414424   6.232   3.738   5.841  0.9324  0.0686 -0.4159
  176MOL    O7514425   6.349   3.691   5.900 -0.2546 -0.0108  0.4638
  176MOL    H7614426   6.224   3.670   5.756 -2.6029  0.6001 -0.5877
  176MOL    H7714427   6.136   3.727   5.891  1.4541  1.5107  0.9321
  176MOL    C7814428   6.335   3.565   5.958 -0.1540 -0.2236 -0.4780
  176MOL    O7914429   6.454   3.533   6.031 -0.2142  0.2412  0.5428
  176MOL    H8014430   6.324   3.495   5.875 -0.0200 -2.0280  0.9989
  176MOL    H8114431   6.248   3.560   6.023  2.0507  2.9288  2.9111
  176MOL    H8214432   6.517   3.524   5.961  0.2019 -1.7655  1.1329
  177MOL     C114433   3.489   6.765   4.495  0.0265 -0.0170  0.3439
  177MOL     O214434   3.506   6.872   4.581  0.3941  0.7703  0.2074
  177MOL     H314435   3.431   6.682   4.536 -0.4009 -0.1782 -0.5672
  177MOL     H414436   3.436   6.783   4.402 -0.3066 -1.8208  0.1557
  177MOL     H514437   3.593   6.736   4.477  0.5154  0.7292  1.9190
  177MOL     C614438   3.548   6.988   4.520  0.1388 -0.0205 -0.5299
  177MOL     O714439   3.676   6.962   4.468  0.3227  0.0796 -0.3889
  177MOL     H814440   3.556   7.069   4.593  0.8167 -0.0255 -0.6029
  177MOL     H914441   3.486   7.015   4.435  0.6375  0.2076 -0.8205
  177MOL    C1014442   3.752   7.081   4.458  0.2655 -0.0486  0.4372
  177MOL    O1114443   3.732   7.151   4.337 -0.1741 -0.5123  0.4453
  177MOL    H1214444   3.856   7.047   4.458  0.5091  0.6639 -0.6739
  177MOL    H1314445   3.742   7.143   4.547 -0.7469  2.8924 -1.6586
  177MOL    C1414446   3.764   7.088   4.223 -0.1361  0.2384  0.7721
  177MOL    O1514447   3.895   7.109   4.189  0.0693 -0.0740  0.1168
  177MOL    H1614448   3.693   7.138   4.156 -0.4051 -3.3145 -1.7249
  177MOL    H1714449   3.739   6.982   4.226  1.3182 -0.0715  3.7080
  177MOL    C1814450   3.944   7.244   4.191  0.3998 -0.1423  0.4044
  177MOL    O1914451   3.904   7.314   4.075  0.6734  0.4202  0.1740
  177MOL    H2014452   4.050   7.235   4.215  0.7655  1.3617 -0.5691
  177MOL    H2114453   3.889   7.301   4.267  0.7845 -0.9081  1.2623
  177MOL    C2214454   3.993   7.287   3.970  0.2818 -0.4504 -0.2981
  177MOL    O2314455   4.106   7.363   3.989  0.7242  0.0730 -0.8184
  177MOL    H2414456   3.946   7.323   3.879 -1.2689  1.0512  1.0797
  177MOL    H2514457   4.017   7.181   3.964 -1.7619 -0.8677 -1.4401
  177MOL    C2614458   4.210   7.342   3.891 -0.0684  0.7050 -0.6612
  177MOL    O2714459   4.161   7.378   3.770  0.1758 -0.1424 -0.2032
  177MOL    H2814460   4.241   7.237   3.892  0.3738  0.8384  0.5921
  177MOL    H2914461   4.298   7.400   3.916  0.9411  0.0118 -2.4975
  177MOL    C3014462   4.138   7.517   3.751  0.1384  0.0671  0.1119
  177MOL    O3114463   4.078   7.532   3.624  0.4743  0.0456  0.0800
  177MOL    H3214464   4.237   7.561   3.765  0.7787 -1.1559 -0.4527
  177MOL    H3314465   4.079   7.560   3.832  1.3900  1.4084  0.3228
  177MOL    C3414466   4.160   7.497   3.519  0.3535  0.0359 -0.0814
  177MOL    O3514467   4.098   7.505   3.396 -0.0200 -0.6036  0.4847
  177MOL    H3614468   4.182   7.392   3.537  1.0829  0.1855 -0.1156
  177MOL    H3714469   4.255   7.549   3.534 -0.5806  1.5738  0.6515
  177MOL    C3814470   4.095   7.636   3.350 -0.4826  0.1748 -0.0739
  177MOL    O3914471   4.213   7.690   3.330 -0.1007  0.0030 -0.5383
  177MOL    H4014472   4.035   7.701   3.414 -1.0004  0.1363 -0.5141
  177MOL    H4114473   4.036   7.639   3.259  0.7106  2.1305 -0.8032
  177MOL    C4214474   4.281   7.647   3.213 -0.1525  0.5321 -0.4803
  177MOL    O4314475   4.409   7.699   3.205 -0.2863 -0.0354 -0.5533
  177MOL    H4414476   4.224   7.690   3.130 -2.3419 -3.2968 -1.1072
  177MOL    H4514477   4.272   7.538   3.217  0.3662  0.4902 -0.4808
  177MOL    C4614478   4.495   7.641   3.296  0.9299  0.1298 -0.1741
  177MOL    O4714479   4.546   7.528   3.238  0.0147  0.1236 -0.5322
  177MOL    H4814480   4.446   7.615   3.390 -1.9101 -2.0172 -2.1516
  177MOL    H4914481   4.572   7.718   3.297  1.6570 -0.5406 -2.1922
  177MOL    C5014482   4.663   7.494   3.299  0.1547 -0.9882 -0.3425
  177MOL    O5114483   4.775   7.569   3.251  0.3184 -0.0090 -0.2190
  177MOL    H5214484   4.684   7.391   3.273 -0.0862 -1.1265  0.0092
  177MOL    H5314485   4.661   7.493   3.408 -0.7838  0.2522 -0.3367
  177MOL    C5414486   4.808   7.532   3.121 -0.5974 -0.2328  0.2939
  177MOL    O5514487   4.909   7.441   3.119 -0.1182 -0.5976  0.1098
  177MOL    H5614488   4.840   7.622   3.068 -1.8138 -0.0903 -0.2282
  177MOL    H5714489   4.732   7.501   3.049 -0.7758  0.3140  0.2391
  177MOL    C5814490   4.928   7.370   3.002  0.2806  0.2387  0.1263
  177MOL    O5914491   4.823   7.277   2.987 -0.8400  0.8811  0.4840
  177MOL    H6014492   5.019   7.310   3.008 -0.8867 -1.5769  0.2286
  177MOL    H6114493   4.939   7.439   2.919 -0.8160 -0.6906 -0.7892
  177MOL    C6214494   4.816   7.190   3.095 -0.0380  0.0201 -0.2384
  177MOL    O6314495   4.907   7.089   3.085  0.5248 -0.0834  0.1206
  177MOL    H6414496   4.717   7.144   3.095  0.5011 -1.1867  1.0479
  177MOL    H6514497   4.830   7.241   3.190  0.5971 -0.0868 -0.2706
  177MOL    C6614498   4.894   7.007   3.192  0.0217  0.0987  0.1260
  177MOL    O6714499   4.790   6.919   3.180 -0.2384  0.0273 -0.6209
  177MOL    H6814500   4.886   7.051   3.292 -0.2012 -0.3601  0.3122
  177MOL    H6914501   4.984   6.946   3.193 -0.5027 -0.7407  3.0943
  177MOL    C7014502   4.829   6.791   3.216 -0.4516 -0.7409 -0.5336
  177MOL    O7114503   4.878   6.780   3.350 -0.2270  0.1021 -0.3868
  177MOL    H7214504   4.908   6.753   3.151  0.1528  0.3737 -0.4656
  177MOL    H7314505   4.736   6.735   3.204  0.4816 -2.2680 -0.8314
  177MOL    C7414506   4.788   6.814   3.454 -0.1699 -0.5064  0.3655
  177MOL    O7514507   4.662   6.754   3.436  0.0833 -0.3470 -0.3076
  177MOL    H7614508   4.770   6.921   3.449 -1.9757 -0.7449  1.5035
  177MOL    H7714509   4.826   6.806   3.556  2.4187  3.0626 -0.2220
  177MOL    C7814510   4.660   6.624   3.499 -0.0008 -1.0702  0.2060
  177MOL    O7914511   4.523   6.572   3.498 -0.0237  0.4924  0.1440
  177MOL    H8014512   4.686   6.641   3.603  1.9176  0.6688 -0.5302
  177MOL    H8114513   4.726   6.556   3.446  0.8112  0.4789 -0.8014
  177MOL    H8214514   4.511   6.514   3.424  0.1263  0.7137 -0.0519
  178MOL     C114515   3.118   3.883   7.653 -0.1026 -0.1709  0.0741
  178MOL     O214516   3.058   3.913   7.783  0.2219 -0.4573  0.5219
  178MOL     H314517   3.045   3.901   7.574  2.3654 -0.9454 -2.4431
  178MOL     H414518   3.194   3.957   7.631 -1.2982  1.2469  0.6114
  178MOL     H514519   3.155   3.780   7.651  1.4257  0.3928 -1.4132
  178MOL     C614520   2.983   4.023   0.009 -0.9165  0.9521 -0.0651
  178MOL     O714521   2.847   3.994   0.010 -0.8316  0.3636 -0.4327
  178MOL     H814522   3.004   4.094   7.713 -0.1272 -0.8651 -1.5014
  178MOL     H914523   3.018   4.060   0.106 -1.6945 -1.9233  1.3736
  178MOL    C1014524   2.815   3.915   0.123  0.3980  0.3022  0.3751
  178MOL    O1114525   2.857   3.964   0.253  0.1249 -0.0669 -0.0191
  178MOL    H1214526   2.864   3.819   0.109 -0.9560 -0.6688  2.1088
  178MOL    H1314527   2.714   3.874   0.113 -0.4825  2.5635 -0.2818
  178MOL    C1414528   2.779   4.069   0.302  0.2722 -0.4415  0.7594
  178MOL    O1514529   2.646   4.035   0.328 -0.0043  0.4841  0.4540
  178MOL    H1614530   2.792   4.157   0.239 -3.2308  0.3999  1.1583
  178MOL    H1714531   2.819   4.097   0.399 -0.2911  2.5180  0.1769
  178MOL    C1814532   2.559   4.096   0.238 -0.0753 -0.3176 -0.1387
  178MOL    O1914533   2.558   4.232   0.265  0.1311  0.0908  0.0698
  178MOL    H2014534   2.460   4.052   0.249  0.5402 -1.2870  1.8907
  178MOL    H2114535   2.589   4.081   0.134  0.8652  0.3698  0.0233
  178MOL    C2214536   2.484   4.270   0.373 -0.4450  0.0757  0.0052
  178MOL    O2314537   2.459   4.403   0.373 -0.0981 -0.7813  0.1110
  178MOL    H2414538   2.542   4.240   0.461  1.5116  1.5914 -0.7247
  178MOL    H2514539   2.386   4.222   0.379 -0.5669  0.1659 -1.1618
  178MOL    C2614540   2.398   4.449   0.259 -0.0970  0.5816 -0.5361
  178MOL    O2714541   2.356   4.579   0.285  0.4984 -0.5488  0.4513
  178MOL    H2814542   2.305   4.394   0.246  0.4246 -0.1284 -1.2795
  178MOL    H2914543   2.467   4.420   0.180 -0.9161  0.3081 -1.1566
  178MOL    C3014544   2.399   4.664   0.185 -0.4319 -0.1869 -0.4575
  178MOL    O3114545   2.323   4.664   0.070 -0.5411  0.2584  0.7782
  178MOL    H3214546   2.501   4.638   0.160 -0.9176 -1.3806 -1.2138
  178MOL    H3314547   2.392   4.760   0.237 -2.3406  0.7147 -2.3452
  178MOL    C3414548   2.206   4.734   0.089  0.7094  0.1159 -0.1486
  178MOL    O3514549   2.124   4.723   7.757 -0.0647  0.0395  0.2833
  178MOL    H3614550   2.219   4.840   0.110 -4.4005  0.4553  1.9516
  178MOL    H3714551   2.141   4.691   0.165  1.6618 -0.1246  0.5353
  178MOL    C3814552   2.168   4.791   7.651  0.2037 -0.8268  0.4502
  178MOL    O3914553   2.147   4.928   7.666  0.5857 -0.1853 -0.0408
  178MOL    H4014554   2.114   4.753   7.564  1.4704  1.6096 -1.4485
  178MOL    H4114555   2.276   4.783   7.644  0.3029  0.5369  0.1776
  178MOL    C4214556   2.167   5.008   7.556 -0.6461 -0.4697  0.3202
  178MOL    O4314557   2.262   5.109   7.578 -0.4007  0.2331  0.0633
  178MOL    H4414558   2.071   5.045   7.518 -0.1174  0.7392  0.1547
  178MOL    H4514559   2.196   4.948   7.469 -1.6762  0.7580 -0.8921
  178MOL    C4614560   2.219   5.203   7.672  0.5479  0.0548 -0.5248
  178MOL    O4714561   2.328   5.250   7.745 -0.2318 -0.2835  0.1752
  178MOL    H4814562   2.150   5.166   7.748  0.3067  2.2826  0.3586
  178MOL    H4914563   2.167   5.287   7.625 -0.3375  1.1790  2.3741
  178MOL    C5014564   2.395   5.150   0.028  0.1836  0.5316  1.1244
  178MOL    O5114565   2.504   5.205   0.090  0.3249 -0.5983  1.0538
  178MOL    H5214566   2.425   5.066   7.749 -0.6009 -0.8293  2.5329
  178MOL    H5314567   2.336   5.104   0.108  2.0111 -1.3791  1.3985
  178MOL    C5414568   2.588   5.265   7.782 -0.5067  0.6747 -0.0448
  178MOL    O5514569   2.646   5.169   7.691 -0.5167  0.1571  0.1328
  178MOL    H5614570   2.663   5.316   0.058  0.1288  1.2709 -1.3315
  178MOL    H5714571   2.534   5.347   7.736  0.6294  0.6685 -1.4411
  178MOL    C5814572   2.732   5.226   7.600  0.1159 -0.1506  0.3978
  178MOL    O5914573   2.660   5.315   7.525 -0.7768 -0.2916 -0.2139
  178MOL    H6014574   2.778   5.150   7.538 -0.4950  0.7747 -1.2265
  178MOL    H6114575   2.810   5.286   7.648 -0.1795 -0.8594  1.7848
  178MOL    C6214576   2.571   5.256   7.440  0.0266 -0.0618  0.2588
  178MOL    O6314577   2.634   5.167   7.354  0.5427 -0.4773  0.4755
  178MOL    H6414578   2.508   5.335   7.398 -0.0075 -0.8554 -1.2314
  178MOL    H6514579   2.503   5.197   7.502  0.9358 -0.1613  1.1714
  178MOL    C6614580   2.657   5.220   7.232 -0.4195  0.8198  0.2461
  178MOL    O6714581   2.791   5.208   7.193 -0.0673 -0.9733 -0.3805
  178MOL    H6814582   2.618   5.319   7.209  0.9010  0.7650 -2.3525
  178MOL    H6914583   2.595   5.158   7.167 -2.2755  1.1507  1.6889
  178MOL    C7014584   2.866   5.311   7.246  0.4418 -1.3058 -0.6226
  178MOL    O7114585   2.844   5.431   7.170 -0.9247  0.2012 -0.9867
  178MOL    H7214586   2.971   5.287   7.229  0.6357 -0.7249 -0.2464
  178MOL    H7314587   2.844   5.317   7.352  1.6743 -1.6328 -0.3413
  178MOL    C7414588   2.926   5.533   7.215 -0.1818  0.0394  0.7819
  178MOL    O7514589   2.883   5.595   7.333 -0.4297 -0.2996  0.4830
  178MOL    H7614590   2.938   5.614   7.143  2.3835 -1.2567 -0.2994
  178MOL    H7714591   3.030   5.507   7.234  0.4941  0.4194 -2.2897
  178MOL    C7814592   2.762   5.668   7.323  0.2149 -1.0021 -0.2343
  178MOL    O7914593   2.732   5.723   7.449  0.2377  0.3236 -0.1390
  178MOL    H8014594   2.677   5.609   7.287 -0.5297  0.1957 -0.4775
  178MOL    H8114595   2.775   5.754   7.258  0.5486 -0.3682  0.6712
  178MOL    H8214596   2.772   5.808   7.451  1.2221 -0.1436  0.4490
  179MOL     C114597   3.207   2.103   0.129 -0.6955 -0.5842 -0.6550
  179MOL     O214598   3.127   2.220   0.127 -0.0298 -0.3370 -0.0751
  179MOL     H314599   3.161   2.021   0.185  0.7748 -0.5536  0.6174
  179MOL     H414600   3.223   2.080   0.024 -0.0331  0.4412 -0.7902
  179MOL     H514601   3.303   2.123   0.175 -0.9633 -0.0836 -0.3058
  179MOL     C614602   3.128   2.307   0.234 -0.2803  0.7118 -0.3780
  179MOL     O714603   3.045   2.259   0.327  0.0914  0.3073 -0.1167
  179MOL     H814604   3.096   2.406   0.201  1.6761  1.2662 -0.6434
  179MOL     H914605   3.229   2.321   0.273 -0.7021 -1.8510  1.8048
  179MOL    C1014606   3.015   2.350   0.428 -0.6086 -0.2863  0.1448
  179MOL    O1114607   2.913   2.432   0.383  0.1964  0.2599  0.1917
  179MOL    H1214608   3.104   2.409   0.449 -1.5991  1.7393 -1.2023
  179MOL    H1314609   2.987   2.287   0.513 -0.0840 -1.1257 -0.2903
  179MOL    C1414610   2.794   2.371   0.350  0.3874 -0.5824 -0.0470
  179MOL    O1514611   2.704   2.356   0.447  0.0941  0.1737  1.0202
  179MOL    H1614612   2.809   2.268   0.316  1.2023  0.0050 -1.5065
  179MOL    H1714613   2.766   2.422   0.258  0.7214 -0.3605 -0.0277
  179MOL    C1814614   2.639   2.481   0.474  0.1276 -0.1817  0.6756
  179MOL    O1914615   2.546   2.469   0.579  0.4335 -0.1009 -0.4828
  179MOL    H2014616   2.586   2.510   0.383  0.2913 -0.1210  0.5992
  179MOL    H2114617   2.719   2.554   0.486 -1.2080  1.2280  1.2865
  179MOL    C2214618   2.452   2.371   0.558  0.5733  0.1809  0.2560
  179MOL    O2314619   2.323   2.416   0.590 -0.1360 -0.1312  0.1254
  179MOL    H2414620   2.488   2.280   0.605 -0.7024 -0.3670  0.2008
  179MOL    H2514621   2.449   2.340   0.453  1.2570  0.0684  0.2680
  179MOL    C2614622   2.304   2.425   0.726 -0.2807  0.2640  0.4474
  179MOL    O2714623   2.175   2.476   0.759 -0.0948  0.2368 -0.0043
  179MOL    H2814624   2.385   2.480   0.774  0.5807 -0.6205  0.0301
  179MOL    H2914625   2.300   2.325   0.768 -2.1071  0.2155  0.2159
  179MOL    C3014626   2.172   2.615   0.769 -0.1564  0.1600  0.1173
  179MOL    O3114627   2.206   2.669   0.898  0.3671  0.7967 -0.0612
  179MOL    H3214628   2.066   2.631   0.749 -0.4152 -1.4943  0.0779
  179MOL    H3314629   2.225   2.659   0.684  1.4861 -0.8057  0.6074
  179MOL    C3414630   2.201   2.806   0.894  0.5350  0.5423  0.0535
  179MOL    O3514631   2.312   2.851   0.829  0.3070 -0.2950  1.0904
  179MOL    H3614632   2.200   2.845   0.996  1.4023 -0.0930  0.3186
  179MOL    H3714633   2.118   2.843   0.835 -1.1975 -1.1989  1.3465
  179MOL    C3814634   2.433   2.811   0.901 -0.5972 -0.0320 -0.2871
  179MOL    O3914635   2.464   2.892   1.014 -0.4248 -0.3827  0.7918
  179MOL    H4014636   2.509   2.817   0.823 -2.2611  0.3917 -1.9160
  179MOL    H4114637   2.433   2.706   0.929  0.4285 -0.1552 -0.7211
  179MOL    C4214638   2.482   3.025   0.978  0.2016  0.2617  0.0141
  179MOL    O4314639   2.594   3.041   0.895  0.1295  0.0114  0.4123
  179MOL    H4414640   2.495   3.083   1.070 -1.0382 -0.3419  0.5842
  179MOL    H4514641   2.388   3.064   0.940  1.1086  0.7567 -1.7558
  179MOL    C4614642   2.717   3.043   0.964  0.8156 -0.4724 -0.5233
  179MOL    O4714643   2.732   3.160   1.031 -0.3708  0.6705  0.1123
  179MOL    H4814644   2.800   3.030   0.896  3.3705  0.1304  2.3751
  179MOL    H4914645   2.718   2.966   1.041  2.3281 -0.0408 -0.0877
  179MOL    C5014646   2.758   3.265   0.946  0.1331  0.2594  0.1587
  179MOL    O5114647   2.807   3.366   1.023  0.0334 -0.1574 -0.2599
  179MOL    H5214648   2.665   3.295   0.898  0.0262 -0.6897 -0.2391
  179MOL    H5314649   2.826   3.243   0.864 -0.0758  1.7406 -0.4383
  179MOL    C5414650   2.923   3.325   1.094 -0.1180  0.9443  0.2352
  179MOL    O5514651   3.027   3.296   1.007  0.2688 -0.2855 -0.1198
  179MOL    H5614652   2.894   3.249   1.166  0.6886 -1.2427 -1.7053
  179MOL    H5714653   2.962   3.414   1.143 -0.3386  1.6007 -0.7595
  179MOL    C5814654   3.073   3.165   1.026  0.1797  0.4222 -0.7979
  179MOL    O5914655   3.164   3.123   0.932 -0.0718 -0.2453  0.2184
  179MOL    H6014656   2.985   3.101   1.015  1.3332 -1.7387  1.9743
  179MOL    H6114657   3.123   3.136   1.118  1.0928  3.0672 -0.4329
  179MOL    C6214658   3.115   3.118   0.804 -0.1790  0.1519 -0.3637
  179MOL    O6314659   3.030   3.007   0.770  0.1200 -0.1298 -0.2995
  179MOL    H6414660   3.206   3.131   0.744  0.7331 -0.3876  0.9016
  179MOL    H6514661   3.054   3.207   0.786  2.1384  2.3879  2.3973
  179MOL    C6614662   2.969   3.022   0.638 -0.3264 -0.3200 -0.0825
  179MOL    O6714663   2.873   2.926   0.609 -0.1475  0.4850 -0.5974
  179MOL    H6814664   3.039   3.042   0.556 -0.6985  4.1380  0.5369
  179MOL    H6914665   2.912   3.115   0.632 -1.0267 -0.7776 -0.7061
  179MOL    C7014666   2.933   2.802   0.589  0.0334 -0.3488 -0.4802
  179MOL    O7114667   2.989   2.802   0.461 -0.2796  0.0977  0.4365
  179MOL    H7214668   2.866   2.716   0.590 -0.3302 -0.0644  0.0915
  179MOL    H7314669   3.013   2.782   0.661 -1.0362  2.8703  1.7506
  179MOL    C7414670   2.904   2.787   0.350 -0.1605  0.1269 -0.2519
  179MOL    O7514671   2.977   2.813   0.236 -0.4590 -0.0880 -0.1286
  179MOL    H7614672   2.832   2.869   0.351 -0.7708 -0.4012 -0.9392
  179MOL    H7714673   2.852   2.692   0.359 -1.9091  0.7254 -3.3352
  179MOL    C7814674   3.036   2.704   0.182  0.0636 -0.0016 -0.4995
  179MOL    O7914675   3.128   2.738   0.080  0.1063 -0.0827 -0.5418
  179MOL    H8014676   2.966   2.640   0.128 -0.3049  0.0706 -0.1114
  179MOL    H8114677   3.100   2.645   0.247  0.5295  0.1841 -0.7876
  179MOL    H8214678   3.206   2.769   0.124 -1.3717  0.3174  1.8927
  180MOL     C114679   6.880   7.199   7.179 -0.0513 -0.4562 -0.0110
  180MOL     O214680   6.907   7.059   7.192  0.1340 -0.1350  0.0321
  180MOL     H314681   6.802   7.223   7.251  1.4757 -0.5564  1.7057
  180MOL     H414682   6.968   7.256   7.206 -1.7732  1.7614  1.1519
  180MOL     H514683   6.832   7.224   7.084 -1.7360 -1.9345  0.4109
  180MOL     C614684   6.958   7.026   7.315 -0.4729  0.0741 -0.9967
  180MOL     O714685   6.853   7.001   7.401  0.3257  0.0744  0.4643
  180MOL     H814686   7.021   7.106   7.353 -0.9919  0.0030  0.0167
  180MOL     H914687   7.016   6.936   7.293 -0.5536  0.1613 -1.5784
  180MOL    C1014688   6.898   6.922   7.508 -0.8047  0.5901 -0.9123
  180MOL    O1114689   6.995   6.990   7.579 -0.4524  0.1023 -0.2689
  180MOL    H1214690   6.939   6.826   7.477  0.9212  1.1042 -0.2855
  180MOL    H1314691   6.810   6.909   7.570  1.0873  1.7260  2.1279
  180MOL    C1414692   6.952   7.105   7.646  0.1926 -0.4940  0.1546
  180MOL    O1514693   7.001   7.111   7.779 -0.8092  0.8624 -0.6919
  180MOL    H1614694   6.844   7.115   7.649  0.2857  0.5776  0.0706
  180MOL    H1714695   6.993   7.182   7.580 -0.8327  0.5476  0.7152
  180MOL    C1814696   6.942   7.012   0.082  0.5149  0.0037  0.0852
  180MOL    O1914697   7.023   6.999   0.190  0.0431 -0.2016  0.4140
  180MOL    H2014698   6.914   6.915   0.041  1.9208 -1.2993  2.1120
  180MOL    H2114699   6.850   7.056   0.119  1.4849  0.3446  2.1380
  180MOL    C2214700   7.133   6.913   0.171 -0.0656  0.3273  0.1005
  180MOL    O2314701   7.087   6.782   0.170 -0.2561  0.0700  0.0142
  180MOL    H2414702   7.207   6.931   0.249 -0.3478 -0.3333  0.5201
  180MOL    H2514703   7.182   6.934   0.076  1.5759  0.2902  0.9214
  180MOL    C2614704   7.039   6.748   0.299  0.0644 -0.0309  0.6401
  180MOL    O2714705   7.041   6.608   0.326  0.1317 -0.1419 -0.1837
  180MOL    H2814706   6.941   6.794   0.317 -0.0182 -0.2575  0.7722
  180MOL    H2914707   7.097   6.789   0.382  1.3257 -0.5861  0.0389
  180MOL    C3014708   6.968   6.537   0.230 -0.6121  0.3820  0.0018
  180MOL    O3114709   6.837   6.579   0.223 -0.3636 -0.4739  0.1322
  180MOL    H3214710   6.970   6.434   0.264  0.5563  0.5905  0.5629
  180MOL    H3314711   7.020   6.528   0.135 -0.8051  1.2459 -0.1934
  180MOL    C3414712   6.753   6.497   0.143  0.9876  0.2922 -0.8063
  180MOL    O3514713   6.796   6.488   0.010 -0.2469 -0.6575 -0.4565
  180MOL    H3614714   6.659   6.551   0.156  1.6558  1.1968  0.4033
  180MOL    H3714715   6.738   6.398   0.186 -3.7517  1.1399 -0.3083
  180MOL    C3814716   6.826   6.611   7.730  0.3830  0.1961  0.1909
  180MOL    O3914717   6.855   6.566   7.606 -0.2501 -0.6499 -0.2278
  180MOL    H4014718   6.902   6.671   7.780 -1.7972  2.5682  0.7254
  180MOL    H4114719   6.733   6.666   7.745  0.6751  0.2043  2.1027
  180MOL    C4214720   6.980   6.510   7.592  0.1891  0.1467  0.0942
  180MOL    O4314721   6.994   6.442   7.471 -0.1970 -0.0489 -0.1070
  180MOL    H4414722   7.014   6.447   7.674 -2.2325 -1.5751 -0.1548
  180MOL    H4514723   7.053   6.590   7.581 -2.4340  2.4460 -1.1912
  180MOL    C4614724   6.948   6.314   7.476 -0.6890  0.9496 -0.6252
  180MOL    O4714725   7.040   6.223   7.527  0.1683  0.1940 -0.2018
  180MOL    H4814726   6.914   6.278   7.379  0.0938  0.5681 -0.7658
  180MOL    H4914727   6.862   6.326   7.541 -0.0299  0.6007  0.3297
  180MOL    C5014728   7.153   6.203   7.457 -0.1216  0.2357 -0.0804
  180MOL    O5114729   7.223   6.091   7.508  0.2466 -0.1654  0.1632
  180MOL    H5214730   7.216   6.292   7.458 -1.6201  1.3322 -0.4068
  180MOL    H5314731   7.129   6.181   7.353  0.3573 -0.8970  0.0402
  180MOL    C5414732   7.304   6.114   7.616 -0.1967  0.2323 -0.1213
  180MOL    O5514733   7.404   6.195   7.581 -0.1691  0.0249  0.3125
  180MOL    H5614734   7.332   6.013   7.645 -0.2097 -0.1215 -1.3226
  180MOL    H5714735   7.249   6.160   7.699  0.3236 -1.2629  1.0903
  180MOL    C5814736   7.503   6.147   7.492 -0.7692  0.1462  0.2005
  180MOL    O5914737   7.569   6.034   7.541  0.6406 -0.0387 -0.0311
  180MOL    H6014738   7.581   6.222   7.480 -2.2893  1.5715 -1.1028
  180MOL    H6114739   7.456   6.117   7.398 -1.7931  1.3328  0.3171
  180MOL    C6214740   7.651   5.971   7.442  0.3033  0.6022  0.0139
  180MOL    O6314741   7.683   5.842   7.479 -0.1883  0.1618  0.0632
  180MOL    H6414742   7.742   6.028   7.423  1.4166 -0.9290  0.6263
  180MOL    H6514743   7.610   5.964   7.341  0.0705  0.1734  0.1365
  180MOL    C6614744   7.566   5.755   7.467 -0.2280 -0.2958 -0.5426
  180MOL    O6714745   7.505   5.746   7.344 -0.7549  0.3284  0.9184
  180MOL    H6814746   7.493   5.780   7.543  1.8332  0.1853  1.3228
  180MOL    H6914747   7.604   5.660   7.504  0.9688  0.6098  0.5767
  180MOL    C7014748   7.453   5.618   7.334  0.5671 -0.5290 -0.3571
  180MOL    O7114749   7.359   5.585   7.437  0.3267 -0.2366 -0.0144
  180MOL    H7214750   7.528   5.539   7.341 -0.0521 -1.1787 -0.9865
  180MOL    H7314751   7.410   5.599   7.235  1.6372 -1.8149 -0.6023
  180MOL    C7414752   7.231   5.638   7.410 -0.2416 -0.6275 -0.3286
  180MOL    O7514753   7.162   5.576   7.308  0.1718 -0.0509  0.3139
  180MOL    H7614754   7.237   5.744   7.385 -1.5535  0.6353  4.2611
  180MOL    H7714755   7.172   5.642   7.501 -1.4148 -1.3348 -1.0477
  180MOL    C7814756   7.120   5.449   7.348 -0.1694  0.3545 -0.5021
  180MOL    O7914757   7.069   5.387   7.231  0.1838 -0.2994  0.2938
  180MOL    H8014758   7.036   5.455   7.418  0.0266  0.8792 -0.3098
  180MOL    H8114759   7.199   5.394   7.397  0.6302  2.5780  0.7704
  180MOL    H8214760   6.975   5.402   7.228  0.1241 -0.4316  1.2307
  181MOL     C114761   0.342   3.296   5.860  0.0755 -0.7228  0.2019
  181MOL     O214762   0.468   3.353   5.837  0.8256 -0.4852  1.0957
  181MOL     H314763   0.330   3.266   5.964 -1.6760  0.8029  0.4736
  181MOL     H414764   0.265   3.363   5.819 -0.9840 -2.4012 -0.6167
  181MOL     H514765   0.342   3.203   5.803 -2.6182 -0.7379  0.1406
  181MOL     C614766   0.485   3.467   5.916 -0.3082 -0.1146 -0.0084
  181MOL     O714767   0.517   3.426   6.047 -0.1048 -0.0358  0.3110
  181MOL     H814768   0.395   3.527   5.906  0.5176  0.9864 -0.9764
  181MOL     H914769   0.573   3.515   5.873  1.0686 -1.7934  0.8544
  181MOL    C1014770   0.644   3.371   6.060  0.4876 -0.0975 -0.0751
  181MOL    O1114771   0.651   3.283   6.168  0.2563 -0.3594  0.7048
  181MOL    H1214772   0.727   3.441   6.065  0.5401 -0.2173  0.7415
  181MOL    H1314773   0.668   3.320   5.966  1.9813  2.6124 -1.2242
  181MOL    C1414774   0.649   3.355   6.285 -0.0608 -0.4344 -0.6220
  181MOL    O1514775   0.764   3.438   6.309  0.3916  0.1693 -0.0430
  181MOL    H1614776   0.635   3.289   6.370  3.5584 -2.4884 -1.4826
  181MOL    H1714777   0.569   3.428   6.281  1.1685  0.9392 -0.6576
  181MOL    C1814778   0.886   3.363   6.333 -0.1814 -0.1225  0.0107
  181MOL    O1914779   0.997   3.443   6.365 -0.7112  0.9320 -0.0584
  181MOL    H2014780   0.914   3.308   6.242 -0.2801 -2.1457  1.1623
  181MOL    H2114781   0.879   3.277   6.400  2.3942 -1.5588 -1.4800
  181MOL    C2214782   0.968   3.531   6.462  0.4776  0.0883  0.3743
  181MOL    O2314783   1.086   3.601   6.492 -0.3365  0.3200 -0.3048
  181MOL    H2414784   0.940   3.473   6.550  1.2016 -2.2468 -0.8835
  181MOL    H2514785   0.891   3.599   6.426  0.9597  0.2173 -0.4342
  181MOL    C2614786   1.120   3.694   6.397  0.4509  0.2551  0.5237
  181MOL    O2714787   1.246   3.754   6.417 -0.0187 -0.7000  0.3264
  181MOL    H2814788   1.038   3.766   6.392  0.2912  0.0401 -0.0684
  181MOL    H2914789   1.116   3.643   6.300 -1.2177 -1.2353  1.3564
  181MOL    C3014790   1.356   3.681   6.367 -0.7483 -0.0302 -0.6985
  181MOL    O3114791   1.370   3.690   6.227 -0.2611  0.1457 -0.2012
  181MOL    H3214792   1.347   3.576   6.397 -0.2307  0.5778  1.6488
  181MOL    H3314793   1.451   3.708   6.411 -1.0117 -0.2506  0.0200
  181MOL    C3414794   1.414   3.821   6.192  0.2122  0.3855  0.2917
  181MOL    O3514795   1.548   3.838   6.223  0.4995 -0.0673 -0.7041
  181MOL    H3614796   1.363   3.897   6.250 -1.2770  0.5613 -1.1963
  181MOL    H3714797   1.390   3.848   6.089  1.4046  1.9476  0.4103
  181MOL    C3814798   1.633   3.787   6.124  0.2485  0.3538 -0.5427
  181MOL    O3914799   1.741   3.711   6.167  1.0885  0.1093 -0.1773
  181MOL    H4014800   1.679   3.869   6.068 -0.5931  0.4137 -1.1594
  181MOL    H4114801   1.574   3.733   6.050  0.1208 -1.1458  0.6520
  181MOL    C4214802   1.715   3.575   6.163  0.3029 -0.2057 -0.0450
  181MOL    O4314803   1.718   3.519   6.038 -0.6614  0.4973  0.0851
  181MOL    H4414804   1.624   3.555   6.221  0.5655  0.7754  0.7306
  181MOL    H4514805   1.787   3.524   6.227  1.1593  0.8824 -0.1198
  181MOL    C4614806   1.853   3.503   5.985 -0.0104 -0.2545  0.4981
  181MOL    O4714807   1.904   3.393   6.056  0.1452  0.5225  0.5741
  181MOL    H4814808   1.911   3.592   6.009 -0.6520 -0.1595  1.6958
  181MOL    H4914809   1.850   3.488   5.877  1.3111  0.5093  0.3494
  181MOL    C5014810   1.876   3.267   6.005  0.0098  0.0350 -0.8194
  181MOL    O5114811   1.955   3.236   5.901 -0.3582  0.4907  0.5143
  181MOL    H5214812   1.769   3.252   5.988 -0.2893 -0.6577  1.5320
  181MOL    H5314813   1.892   3.195   6.085 -3.3123  2.0306  1.8069
  181MOL    C5414814   2.088   3.241   5.917  0.5591  0.5025 -0.3851
  181MOL    O5514815   2.138   3.370   5.901 -0.1544 -0.1856 -0.4505
  181MOL    H5614816   2.131   3.184   5.835 -0.4593  1.3073 -1.4873
  181MOL    H5714817   2.125   3.199   6.011  0.7602  3.4196  0.9297
  181MOL    C5814818   2.141   3.417   5.771 -0.6789  0.2796  0.8679
  181MOL    O5914819   2.242   3.354   5.699 -0.1182 -0.7073 -0.0051
  181MOL    H6014820   2.155   3.525   5.771 -1.1062  0.3788 -2.4151
  181MOL    H6114821   2.039   3.405   5.733  0.9061 -0.2502 -3.5107
  181MOL    C6214822   2.229   3.376   5.559  0.4264 -0.1766  0.4912
  181MOL    O6314823   2.231   3.513   5.522  0.5972 -0.6774  0.2649
  181MOL    H6414824   2.136   3.334   5.520  1.2534  0.2914 -2.0788
  181MOL    H6514825   2.308   3.334   5.498 -0.9890 -1.0752 -0.7578
  181MOL    C6614826   2.349   3.582   5.559 -0.5864 -0.5771  0.3422
  181MOL    O6714827   2.349   3.715   5.532 -0.5880 -0.2696 -0.0842
  181MOL    H6814828   2.442   3.534   5.528 -1.1182 -2.0454  0.9948
  181MOL    H6914829   2.355   3.575   5.668 -1.3569  0.6732  0.4829
  181MOL    C7014830   2.373   3.748   5.400 -1.1212 -0.0797  0.3892
  181MOL    O7114831   2.500   3.717   5.349 -0.1159 -0.3223 -0.2136
  181MOL    H7214832   2.350   3.853   5.388 -4.0178 -0.6460  0.4988
  181MOL    H7314833   2.297   3.707   5.333  0.8371 -1.5861 -0.9739
  181MOL    C7414834   2.596   3.797   5.404  0.1360 -0.9754 -0.0535
  181MOL    O7514835   2.614   3.917   5.340 -0.1807  0.4838  0.2008
  181MOL    H7614836   2.689   3.740   5.398  1.2666  0.7107  0.9869
  181MOL    H7714837   2.575   3.821   5.509 -0.6104  2.2782 -0.8803
  181MOL    C7814838   2.691   3.906   5.217  0.2045  0.0792 -1.1282
  181MOL    O7914839   2.686   4.026   5.151 -0.9039  0.1625  0.3335
  181MOL    H8014840   2.647   3.832   5.151 -0.7289 -0.7422  0.3961
  181MOL    H8114841   2.794   3.882   5.245 -0.6016  0.4355  2.4829
  181MOL    H8214842   2.595   4.054   5.151 -1.9574 -3.0408  2.0162
  182MOL     C114843   5.084   3.121   5.754  0.6208  0.4004 -0.1750
  182MOL     O214844   4.982   3.109   5.862 -0.1086  0.5433  0.4127
  182MOL     H314845   5.059   3.194   5.677 -0.8302 -0.0460 -0.1569
  182MOL     H414846   5.184   3.146   5.789  0.9221  0.7777 -1.3010
  182MOL     H514847   5.082   3.032   5.691  0.0961  0.8705 -0.8386
  182MOL     C614848   4.862   3.073   5.807  0.2336 -0.5302 -0.6286
  182MOL     O714849   4.823   3.164   5.712  0.0723 -0.2919  0.7341
  182MOL     H814850   4.783   3.035   5.871  1.4751 -0.0648  1.2343
  182MOL     H914851   4.885   2.989   5.741  0.1216 -0.0389 -1.3089
  182MOL    C1014852   4.773   3.279   5.768 -0.0179  0.7022  0.4556
  182MOL    O1114853   4.648   3.255   5.822  0.4756 -0.1385 -0.1991
  182MOL    H1214854   4.768   3.349   5.685 -1.4464  1.7067  1.3838
  182MOL    H1314855   4.843   3.323   5.839  0.6666  0.1148  0.1539
  182MOL    C1414856   4.553   3.234   5.722 -0.1699  0.2601 -0.6352
  182MOL    O1514857   4.438   3.168   5.776 -0.2938 -0.0033 -0.0075
  182MOL    H1614858   4.589   3.166   5.644  0.0995 -1.1037  0.6634
  182MOL    H1714859   4.529   3.330   5.676  1.0330  0.4836 -0.8072
  182MOL    C1814860   4.459   3.033   5.792 -0.2465 -0.4483 -0.4502
  182MOL    O1914861   4.419   2.968   5.677 -0.2155 -0.0678  0.0021
  182MOL    H2014862   4.399   2.992   5.873  0.7627  1.7333  1.4495
  182MOL    H2114863   4.562   3.006   5.812 -0.5371 -1.2599 -0.0138
  182MOL    C2214864   4.278   2.965   5.660  0.2068 -0.0044 -0.1787
  182MOL    O2314865   4.233   2.844   5.727 -0.1241 -0.0820 -0.1327
  182MOL    H2414866   4.259   2.972   5.553 -0.3153 -0.5916 -0.1237
  182MOL    H2514867   4.240   3.058   5.702  0.9316 -0.4772  1.5914
  182MOL    C2614868   4.254   2.735   5.648  0.4910 -0.6979  0.1991
  182MOL    O2714869   4.153   2.736   5.552 -0.0479  0.4462  0.3793
  182MOL    H2814870   4.232   2.648   5.709 -2.8702 -0.6288 -0.8401
  182MOL    H2914871   4.360   2.732   5.624  0.3656  0.4583 -0.5504
  182MOL    C3014872   4.189   2.666   5.443 -0.2002  0.7377 -0.1051
  182MOL    O3114873   4.299   2.716   5.371 -0.5519  0.3418 -0.0212
  182MOL    H3214874   4.105   2.640   5.379 -0.6610 -0.5702  1.0117
  182MOL    H3314875   4.218   2.564   5.469 -1.4368  0.7202  1.2415
  182MOL    C3414876   4.270   2.827   5.286  0.4330  0.3076 -0.4477
  182MOL    O3514877   4.219   2.794   5.161 -0.2206  0.5525  0.1808
  182MOL    H3614878   4.368   2.875   5.284  1.6989 -1.9222  2.9741
  182MOL    H3714879   4.196   2.889   5.337  0.3207  1.6538 -2.2100
  182MOL    C3814880   4.322   2.739   5.082  0.0863  0.5625 -0.2638
  182MOL    O3914881   4.396   2.842   5.032  0.3732 -0.2843  0.3239
  182MOL    H4014882   4.278   2.688   4.996 -1.4403  1.9724 -0.3482
  182MOL    H4114883   4.387   2.670   5.136 -0.6832  0.5738  0.6841
  182MOL    C4214884   4.484   2.798   4.938 -0.0283 -0.4560  0.3891
  182MOL    O4314885   4.585   2.708   4.982  0.0287  0.0533 -0.2463
  182MOL    H4414886   4.545   2.876   4.891 -1.4432  0.7115  0.4788
  182MOL    H4514887   4.426   2.761   4.853  1.4945 -1.5755 -0.1953
  182MOL    C4614888   4.674   2.763   5.071  0.8291 -0.1698  0.3810
  182MOL    O4714889   4.779   2.672   5.101  0.7159 -0.4089  0.6870
  182MOL    H4814890   4.609   2.774   5.157  0.2503  1.8973 -0.2947
  182MOL    H4914891   4.717   2.862   5.051 -1.0029  0.9791  2.0146
  182MOL    C5014892   4.814   2.674   5.240 -0.0741 -0.3588 -0.1917
  182MOL    O5114893   4.723   2.600   5.309  0.3082 -0.0304  0.2551
  182MOL    H5214894   4.851   2.769   5.277  2.1165 -1.2116 -0.1530
  182MOL    H5314895   4.899   2.606   5.238 -0.8205 -1.3852  1.3570
  182MOL    C5414896   4.771   2.572   5.436  0.1130 -0.6382  0.3897
  182MOL    O5514897   4.776   2.683   5.517 -0.7226  0.9204 -0.4206
  182MOL    H5614898   4.869   2.524   5.431 -0.4056 -1.5701 -1.1074
  182MOL    H5714899   4.719   2.490   5.487 -1.7204  3.1690  5.0670
  182MOL    C5814900   4.657   2.710   5.581  0.0245 -0.8205  0.1091
  182MOL    O5914901   4.621   2.615   5.670 -0.2880  0.0816 -0.0352
  182MOL    H6014902   4.581   2.720   5.503  0.7013 -0.3259 -0.4981
  182MOL    H6114903   4.657   2.811   5.622 -0.3792 -0.7086 -0.1617
  182MOL    C6214904   4.699   2.599   5.785  0.0344 -1.0922 -0.4221
  182MOL    O6314905   4.683   2.706   5.873 -0.1546 -0.0568  0.4336
  182MOL    H6414906   4.804   2.594   5.756 -0.4925 -0.3263 -2.5476
  182MOL    H6514907   4.681   2.497   5.821  0.7417 -0.3746  2.0623
  182MOL    C6614908   4.555   2.708   5.941  0.1133 -0.0075 -0.6258
  182MOL    O6714909   4.539   2.619   6.052  0.1866 -0.7266  0.1749
  182MOL    H6814910   4.470   2.691   5.875  0.1008 -0.5972 -0.4604
  182MOL    H6914911   4.543   2.809   5.979  0.6927 -1.2326  3.0021
  182MOL    C7014912   4.456   2.512   6.030 -0.2332 -0.0019 -0.1169
  182MOL    O7114913   4.326   2.551   6.012  0.5267 -0.0628  0.4289
  182MOL    H7214914   4.464   2.451   6.120  1.4098  0.2702 -0.0732
  182MOL    H7314915   4.492   2.442   5.955  3.4121  1.0936  0.5239
  182MOL    C7414916   4.254   2.459   5.937  0.0003 -0.2869 -0.3533
  182MOL    O7514917   4.225   2.349   6.016 -0.2331  0.0749  0.0903
  182MOL    H7614918   4.296   2.426   5.842 -0.1605 -0.8431 -0.2335
  182MOL    H7714919   4.162   2.514   5.920  0.2277  0.6214  1.2768
  182MOL    C7814920   4.101   2.359   6.097 -0.3588  0.0165 -0.3893
  182MOL    O7914921   4.097   2.272   6.206 -0.6096  0.0509 -0.1102
  182MOL    H8014922   4.010   2.355   6.037 -0.9007 -1.9060  0.5211
  182MOL    H8114923   4.105   2.458   6.142 -1.1464  0.2137 -0.7332
  182MOL    H8214924   4.097   2.183   6.176  0.9140  0.9438 -2.9155
  183MOL     C114925   6.596   7.155   4.564  0.1953 -0.1621 -0.2090
  183MOL     O214926   6.697   7.252   4.537  0.1208  0.2579  0.0626
  183MOL     H314927   6.496   7.196   4.547  1.4927  3.4233  0.3847
  183MOL     H414928   6.605   7.063   4.506  0.7942 -2.2099  3.0152
  183MOL     H514929   6.597   7.136   4.671  0.0009 -0.2744 -0.2278
  183MOL     C614930   6.638   7.356   4.465 -0.2691  0.0493 -0.2698
  183MOL     O714931   6.550   7.425   4.541  0.2149  0.4236  0.1109
  183MOL     H814932   6.576   7.322   4.382  0.1685 -2.0455  0.2117
  183MOL     H914933   6.717   7.416   4.420  0.8663 -2.1879 -1.3816
  183MOL    C1014934   6.614   7.502   4.643  0.6126  0.4983 -0.1210
  183MOL    O1114935   6.512   7.551   4.737 -0.1747  0.2043 -0.0702
  183MOL    H1214936   6.652   7.592   4.595 -1.6330  1.4341 -0.1996
  183MOL    H1314937   6.695   7.445   4.687  0.4261  0.4743  0.1914
  183MOL    C1414938   6.465   7.454   4.824  0.4486 -0.0015  0.3090
  183MOL    O1514939   6.535   7.456   4.945 -0.0238  0.4083 -0.4753
  183MOL    H1614940   6.467   7.356   4.776  2.7153  0.3268 -0.3261
  183MOL    H1714941   6.358   7.468   4.839  0.3640 -0.6495  0.3282
  183MOL    C1814942   6.497   7.561   5.025  0.6167 -0.1907 -0.1466
  183MOL    O1914943   6.380   7.540   5.084  0.6968  0.3555  0.3928
  183MOL    H2014944   6.492   7.655   4.970 -0.5725 -0.3186 -0.2636
  183MOL    H2114945   6.568   7.583   5.105 -1.0579  0.4920  1.1878
  183MOL    C2214946   6.383   7.450   5.191  0.0514 -0.3974  0.8224
  183MOL    O2314947   6.419   7.510   5.310 -0.1692  0.2261 -0.2468
  183MOL    H2414948   6.452   7.366   5.183  0.4040  0.2229 -3.9691
  183MOL    H2514949   6.282   7.408   5.190 -1.1514  2.4021 -0.0538
  183MOL    C2614950   6.379   7.446   5.428 -0.2465  0.4709 -0.1690
  183MOL    O2714951   6.240   7.414   5.418 -0.1881  0.0051 -0.4345
  183MOL    H2814952   6.397   7.502   5.520 -1.5761  0.8292 -0.1122
  183MOL    H2914953   6.431   7.351   5.434 -0.6851  0.2585  0.3096
  183MOL    C3014954   6.197   7.330   5.514 -0.6980 -0.6298  0.6261
  183MOL    O3114955   6.238   7.200   5.482 -0.0691  0.3226  0.0457
  183MOL    H3214956   6.089   7.341   5.501 -0.5508 -1.7152 -1.8322
  183MOL    H3314957   6.227   7.358   5.615  0.0875 -2.6798  0.9762
  183MOL    C3414958   6.187   7.105   5.569 -0.1626 -0.0393 -0.4053
  183MOL    O3514959   6.282   7.005   5.595 -0.5541  0.5660 -0.4668
  183MOL    H3614960   6.105   7.063   5.510  0.8814 -1.0220 -1.1907
  183MOL    H3714961   6.143   7.148   5.659  2.7203 -0.9677  1.5482
  183MOL    C3814962   6.374   7.041   5.693  0.1248  0.3425 -0.0692
  183MOL    O3914963   6.323   7.030   5.825  0.1876  0.4833  0.2045
  183MOL    H4014964   6.421   7.137   5.670 -1.4207  0.8885 -1.0642
  183MOL    H4114965   6.466   6.985   5.680 -1.1632 -1.9404  0.4054
  183MOL    C4214966   6.332   6.900   5.877  0.5322  0.3448 -1.0157
  183MOL    O4314967   6.457   6.835   5.888 -0.2766  0.7063 -0.0234
  183MOL    H4414968   6.283   6.823   5.818 -1.5909  0.2955  0.7538
  183MOL    H4514969   6.281   6.903   5.973 -1.0936  0.3153 -1.8575
  183MOL    C4614970   6.531   6.894   5.998  0.0164 -0.1380  0.1821
  183MOL    O4714971   6.585   7.022   5.964 -0.0779 -0.3962  0.2846
  183MOL    H4814972   6.620   6.831   6.005  1.0176  1.3293  0.9891
  183MOL    H4914973   6.475   6.893   6.091  0.1463  0.7160  0.2727
  183MOL    C5014974   6.603   7.107   6.074  0.2596  0.2313  0.1524
  183MOL    O5114975   6.489   7.175   6.113  0.0389 -0.0407 -0.4617
  183MOL    H5214976   6.683   7.175   6.044  0.8802 -1.4737 -2.2027
  183MOL    H5314977   6.648   7.058   6.160  0.4162  0.8774  0.4452
  183MOL    C5414978   6.431   7.253   6.016  0.4362 -0.2969  0.3353
  183MOL    O5514979   6.502   7.374   5.995  0.1282 -0.2017  0.4974
  183MOL    H5614980   6.333   7.276   6.057  0.9943 -0.0297  1.5603
  183MOL    H5714981   6.430   7.199   5.921 -0.8064 -1.2352  0.8757
  183MOL    C5814982   6.469   7.431   5.874  0.4231 -0.2800 -0.8928
  183MOL    O5914983   6.522   7.353   5.774 -0.2953 -0.7018  0.4697
  183MOL    H6014984   6.505   7.533   5.860  1.5600 -0.2572  1.8222
  183MOL    H6114985   6.361   7.443   5.863  0.5931  0.9436 -1.2551
  183MOL    C6214986   6.656   7.342   5.783 -0.5062  0.3933 -0.7024
  183MOL    O6314987   6.708   7.348   5.654  0.4775 -0.0145  0.0280
  183MOL    H6414988   6.680   7.242   5.821 -1.8194 -0.2229 -1.4357
  183MOL    H6514989   6.711   7.401   5.856  0.7022  0.8939 -2.0016
  183MOL    C6614990   6.756   7.482   5.632 -0.5621  0.0550 -0.5315
  183MOL    O6714991   6.821   7.481   5.512 -0.2164 -0.1954  0.6479
  183MOL    H6814992   6.831   7.514   5.704 -0.6639 -1.3937  0.2301
  183MOL    H6914993   6.673   7.553   5.635  0.3118  1.0463  1.5501
  183MOL    C7014994   6.740   7.476   5.397  0.3661 -0.2366 -0.5103
  183MOL    O7114995   6.676   7.593   5.380 -0.3896  0.0286 -0.1080
  183MOL    H7214996   6.667   7.395   5.400  1.2094 -0.9706  1.0796
  183MOL    H7314997   6.800   7.442   5.313 -0.4164  0.3294 -1.2949
  183MOL    C7414998   6.762   7.693   5.331 -0.0109 -0.9934  0.3069
  183MOL    O7514999   6.707   0.036   5.347 -0.3355 -0.4746  0.2916
  183MOL    H7615000   6.774   7.666   5.227  0.8173 -0.0312  0.1424
  183MOL    H7715001   6.859   7.704   5.379  0.6476 -1.3909 -0.9371
  183MOL    C7815002   6.585   0.056   5.295 -0.1064  0.1785  0.4523
  183MOL    O7915003   6.552   0.189   5.327  0.0862 -0.1602  0.5573
  183MOL    H8015004   6.510   7.768   5.328 -0.7460 -0.7108 -2.7395
  183MOL    H8115005   6.580   0.053   5.186 -0.0760  1.0458  0.4269
  183MOL    H8215006   6.468   0.197   5.285 -0.4429  0.8488  1.7637
  184MOL     C115007   5.008   0.312   6.265  1.1425 -0.1911  0.1467
  184MOL     O215008   5.049   0.425   6.188  0.3383 -0.0405  0.2292
  184MOL     H315009   4.995   0.215   6.218 -0.8318  0.1113  0.0200
  184MOL     H415010   5.086   0.301   6.340  0.8191  1.2631  0.7218
  184MOL     H515011   4.916   0.332   6.321  1.1715 -0.8875  0.4453
  184MOL     C615012   5.055   0.545   6.263 -0.5121 -0.2842  0.3190
  184MOL     O715013   4.930   0.595   6.299 -0.1309  0.3021  0.2349
  184MOL     H815014   5.119   0.613   6.206 -2.8245  0.4953 -1.4404
  184MOL     H915015   5.119   0.537   6.351  1.8834 -1.2594 -1.4555
  184MOL    C1015016   4.907   0.726   6.248 -0.2728  0.0603  0.7079
  184MOL    O1115017   5.003   0.817   6.292 -0.4491 -0.1449  0.0607
  184MOL    H1215018   4.804   0.760   6.258 -0.0111  1.8149 -2.1539
  184MOL    H1315019   4.928   0.725   6.141  2.4903  2.4983  1.1827
  184MOL    C1415020   4.954   0.898   6.394 -0.0316  0.6677  0.1923
  184MOL    O1515021   4.848   0.977   6.354  0.0246 -1.1884 -0.4607
  184MOL    H1615022   5.036   0.956   6.435  1.9027 -2.2313  0.5680
  184MOL    H1715023   4.922   0.841   6.482  0.0059 -0.0710 -0.2644
  184MOL    C1815024   4.892   1.084   6.276 -0.2826 -0.4417  0.6204
  184MOL    O1915025   4.963   1.179   6.342  0.5179 -0.6232  0.4435
  184MOL    H2015026   4.804   1.127   6.227  1.4291  2.2335 -0.2397
  184MOL    H2115027   4.962   1.042   6.203 -0.6507 -1.8506  1.0652
  184MOL    C2215028   4.881   1.246   6.437  0.1280  0.1398 -0.4095
  184MOL    O2315029   4.922   1.381   6.460  0.9100  0.2498 -0.0338
  184MOL    H2415030   4.873   1.185   6.528 -2.1669 -1.4757 -1.6681
  184MOL    H2515031   4.780   1.246   6.397 -0.6510 -2.4641  1.3930
  184MOL    C2615032   5.016   1.390   6.562 -0.0312 -0.4200  0.1775
  184MOL    O2715033   4.943   1.376   6.682 -1.0134 -0.2416 -0.0259
  184MOL    H2815034   5.075   1.480   6.551  0.7322 -0.4983  3.1608
  184MOL    H2915035   5.090   1.310   6.570  0.3958  0.1246  2.0381
  184MOL    C3015036   5.022   1.405   6.791  0.8089 -0.4657 -0.5233
  184MOL    O3115037   5.120   1.313   6.811 -0.4295  0.5739  0.0850
  184MOL    H3215038   4.951   1.414   6.873  0.1717  1.0395 -1.2202
  184MOL    H3315039   5.061   1.507   6.789 -0.6573  0.1649  1.5043
  184MOL    C3415040   5.198   1.325   6.924 -0.3014 -0.3469  0.1186
  184MOL    O3515041   5.134   1.292   7.048 -0.2502  0.4977  0.1851
  184MOL    H3615042   5.256   1.417   6.932  0.2620 -0.6782 -0.1598
  184MOL    H3715043   5.272   1.246   6.910 -0.5027 -0.2940 -1.3415
  184MOL    C3815044   5.093   1.159   7.045 -0.4603 -0.2639  0.1507
  184MOL    O3915045   5.202   1.063   7.058 -0.0350  0.3835  0.9289
  184MOL    H4015046   5.048   1.133   6.949 -0.5485  0.9592 -0.1455
  184MOL    H4115047   5.018   1.140   7.122  0.0311 -0.1210  0.6685
  184MOL    C4215048   5.270   1.058   7.186 -0.1724 -0.2314  0.6678
  184MOL    O4315049   5.180   1.029   7.295 -0.5289  0.0144 -0.1863
  184MOL    H4415050   5.328   1.148   7.204  1.6930 -1.4024  0.5944
  184MOL    H4515051   5.337   0.972   7.180  1.0208  0.7944 -0.8104
  184MOL    C4615052   5.243   0.981   7.409 -0.5208 -0.0336  0.4240
  184MOL    O4715053   5.329   1.078   7.467 -0.3666 -0.0105  0.0894
  184MOL    H4815054   5.314   0.900   7.394 -1.9408 -1.2352 -0.0274
  184MOL    H4915055   5.162   0.945   7.473 -0.2874 -1.5462 -0.1069
  184MOL    C5015056   5.253   1.177   7.541 -0.4579  0.1106  0.4038
  184MOL    O5115057   5.189   1.132   7.660 -0.4283  0.4072  0.2885
  184MOL    H5215058   5.165   1.212   7.486  0.8088 -0.4140 -2.0136
  184MOL    H5315059   5.310   1.268   7.561 -1.3743  0.9296 -0.6471
  184MOL    C5415060   5.288   1.097   7.754  0.4623 -0.3411 -0.7647
  184MOL    O5515061   5.320   1.212   0.038 -0.3609  0.1239  0.1917
  184MOL    H5615062   5.380   1.073   7.702  1.3912  2.0705 -0.2941
  184MOL    H5715063   5.247   1.016   0.031 -1.2719  0.9345 -0.1872
  184MOL    C5815064   5.240   1.238   0.149  0.2699  1.0203 -0.2295
  184MOL    O5915065   5.214   1.372   0.171  0.0193  0.4156 -0.1396
  184MOL    H6015066   5.298   1.200   0.233 -0.2243 -4.3871 -2.1223
  184MOL    H6115067   5.152   1.175   0.147 -0.8769  2.6120 -1.3053
  184MOL    C6215068   5.113   1.419   0.094 -0.2746  0.4995 -0.0424
  184MOL    O6315069   4.991   1.420   0.164 -0.1321  0.1733 -0.1073
  184MOL    H6415070   5.089   1.353   0.010 -0.3985  0.5047 -0.0116
  184MOL    H6515071   5.141   1.519   0.064  1.4264  0.5922  1.7810
  184MOL    C6615072   4.996   1.519   0.267 -0.0673  0.4136 -0.1352
  184MOL    O6715073   4.880   1.531   0.334  0.5295 -0.2243 -0.4001
  184MOL    H6815074   5.022   1.620   0.238 -0.3265  0.5424  0.0824
  184MOL    H6915075   5.080   1.503   0.335 -0.1442  0.1273 -0.1060
  184MOL    C7015076   4.776   1.603   0.270 -0.5414  1.4427  0.0676
  184MOL    O7115077   4.798   1.741   0.268  0.3652  0.0933 -0.1101
  184MOL    H7215078   4.679   1.584   0.317 -0.1450  1.0072  0.7119
  184MOL    H7315079   4.773   1.562   0.170  2.5143  0.0271  0.5284
  184MOL    C7415080   4.755   1.804   0.387 -0.1776  0.5489  0.4958
  184MOL    O7515081   4.621   1.785   0.397 -0.2193 -0.3090 -0.1661
  184MOL    H7615082   4.785   1.909   0.391  0.5486  0.3777 -0.2692
  184MOL    H7715083   4.805   1.747   0.465  0.5593 -0.1383 -0.4653
  184MOL    C7815084   4.548   1.847   0.304 -0.3841  0.0582 -0.1220
  184MOL    O7915085   4.449   1.926   0.365 -0.9746  0.5765  0.1056
  184MOL    H8015086   4.495   1.788   0.229 -2.3164  2.6896 -0.9039
  184MOL    H8115087   4.599   1.922   0.242 -1.3979 -1.3549 -2.7642
  184MOL    H8215088   4.381   1.864   0.387  1.8821 -1.3409  4.0202
  185MOL     C115089   0.253   7.457   2.213  0.3516  0.0566 -0.2420
  185MOL     O215090   0.209   7.582   2.159  0.0069 -0.4531 -0.0232
  185MOL     H315091   0.347   7.440   2.159 -0.2762 -1.4415 -0.8833
  185MOL     H415092   0.269   7.462   2.320 -1.6635  0.3192  0.0663
  185MOL     H515093   0.191   7.368   2.208  0.7018 -0.2575  0.9810
  185MOL     C615094   0.172   7.571   2.018  0.4673  0.2456  0.1037
  185MOL     O715095   0.274   7.532   1.936 -0.2648  0.0831  0.0254
  185MOL     H815096   0.127   7.662   1.980  0.4252 -0.0495 -0.5602
  185MOL     H915097   0.099   7.490   2.009 -0.7124  1.0621  2.1612
  185MOL    C1015098   0.364   7.637   1.912 -0.2574  0.5337 -0.5269
  185MOL    O1115099   0.299   7.744   1.843 -0.6079  0.6473 -0.1945
  185MOL    H1215100   0.465   7.605   1.887  0.8943  1.0579  3.1469
  185MOL    H1315101   0.379   7.687   2.008 -0.9315  1.6788 -1.0174
  185MOL    C1415102   0.276   7.698   1.708 -0.5809  0.7229  0.0066
  185MOL    O1515103   0.393   7.684   1.641 -0.9053 -0.0461 -0.3326
  185MOL    H1615104   0.208   7.759   1.649  0.4850  0.6246 -1.3432
  185MOL    H1715105   0.230   7.599   1.704  0.8112  0.1312 -2.0356
  185MOL    C1815106   0.461   0.024   1.630 -0.3601  0.3133 -0.0590
  185MOL    O1915107   0.407   0.100   1.524 -0.7670  0.1532  0.9545
  185MOL    H2015108   0.566   0.003   1.609  0.1722  0.2901  2.5520
  185MOL    H2115109   0.452   0.074   1.726 -0.1297 -3.1951  1.8867
  185MOL    C2215110   0.407   0.031   1.402 -0.2195  0.4396 -0.1018
  185MOL    O2315111   0.354   0.118   1.306 -1.2372 -0.2051 -0.2007
  185MOL    H2415112   0.350   7.723   1.411  0.5637 -0.1202 -0.8062
  185MOL    H2515113   0.508   0.003   1.371 -0.0905  0.2117  0.5155
  185MOL    C2615114   0.449   0.222   1.277 -0.2521  0.0407  0.0298
  185MOL    O2715115   0.393   0.329   1.206  0.2606 -0.0632 -0.6620
  185MOL    H2815116   0.540   0.177   1.239  0.8762  2.9302 -0.7566
  185MOL    H2915117   0.476   0.264   1.374  0.8542 -0.6660  0.0336
  185MOL    C3015118   0.291   0.399   1.271 -0.1493  1.0302 -0.0660
  185MOL    O3115119   0.355   0.481   1.365  0.0835  0.3946 -0.1075
  185MOL    H3215120   0.217   0.334   1.316 -0.0116  0.4433 -0.6785
  185MOL    H3315121   0.237   0.456   1.195  1.8156  1.2728 -1.3270
  185MOL    C3415122   0.273   0.546   1.460  0.1999  0.1395 -0.5774
  185MOL    O3515123   0.197   0.453   1.531 -0.2470 -0.4346 -0.1887
  185MOL    H3615124   0.206   0.611   1.404  2.1036  1.2027 -1.6915
  185MOL    H3715125   0.332   0.610   1.527  1.7914 -2.2412  0.3567
  185MOL    C3815126   0.264   0.388   1.635 -0.9322 -0.0733  0.1920
  185MOL    O3915127   0.260   0.470   1.752  0.0629  0.0909 -0.3284
  185MOL    H4015128   0.367   0.375   1.602 -0.0425  1.9637  2.0586
  185MOL    H4115129   0.206   0.296   1.646 -0.2192 -0.4972  0.4658
  185MOL    C4215130   0.143   0.452   1.823 -0.7611  0.2314 -0.0889
  185MOL    O4315131   0.146   0.348   1.918 -0.0268 -0.3497 -0.3166
  185MOL    H4415132   0.060   0.437   1.753 -0.5749  0.1574 -0.2944
  185MOL    H4515133   0.115   0.538   1.883  4.4969  1.5357  0.7322
  185MOL    C4615134   0.027   0.317   1.979 -0.1816  0.2459 -0.0120
  185MOL    O4715135   7.729   0.246   1.894  0.0426  0.5780 -0.4664
  185MOL    H4815136   7.767   0.401   2.032  1.9391  0.8036  0.9228
  185MOL    H4915137   0.046   0.253   2.066  1.3270  1.8369  0.8516
  185MOL    C5015138   7.771   0.113   1.877 -0.5936  0.3657 -0.0771
  185MOL    O5115139   7.715   0.033   1.974  0.1449 -0.0947  0.4311
  185MOL    H5215140   0.095   0.098   1.885 -0.8028  0.0475  2.9006
  185MOL    H5315141   7.738   0.080   1.778 -0.3402  0.9361 -0.3508
  185MOL    C5415142   7.593   7.761   1.939 -0.1558  0.7092  0.2316
  185MOL    O5515143   7.615   7.656   1.843 -0.0434 -0.1655 -0.8309
  185MOL    H5615144   7.533   0.066   1.922  1.5371  2.2266  1.9302
  185MOL    H5715145   7.553   7.705   2.024 -0.4690  0.5940  0.0082
  185MOL    C5815146   7.494   7.614   1.784  0.3763  0.0910 -0.0092
  185MOL    O5915147   7.414   7.559   1.879 -0.1953 -0.2679  0.5172
  185MOL    H6015148   7.506   7.551   1.696  0.0705  1.8327 -1.3213
  185MOL    H6115149   7.444   7.703   1.747 -3.4134 -1.2088  1.7808
  185MOL    C6215150   7.451   7.433   1.922 -0.1969  0.3364 -0.4823
  185MOL    O6315151   7.471   7.350   1.815 -0.6229 -0.1391 -0.1657
  185MOL    H6415152   7.368   7.393   1.981 -0.0795  0.5897 -0.1461
  185MOL    H6515153   7.543   7.430   1.980 -1.0616 -0.4063  0.8942
  185MOL    C6615154   7.520   7.230   1.837 -0.5376 -0.0400 -0.3231
  185MOL    O6715155   7.643   7.235   1.891 -0.0016 -0.3092  0.0556
  185MOL    H6815156   7.529   7.182   1.740  1.6877 -0.6236  0.1498
  185MOL    H6915157   7.447   7.171   1.893  0.4762  0.9099  2.0775
  185MOL    C7015158   7.739   7.276   1.802 -0.6011 -0.0572  0.0825
  185MOL    O7115159   7.760   7.178   1.705  0.3467 -0.2586  0.4030
  185MOL    H7215160   0.051   7.292   1.851  0.1243 -0.2009 -1.2747
  185MOL    H7315161   7.709   7.366   1.749 -0.9933  0.0707  0.5222
  185MOL    C7415162   0.075   7.080   1.740  0.5013 -0.2037  0.0756
  185MOL    O7515163   0.065   6.961   1.664  0.7876 -0.6073 -0.2559
  185MOL    H7615164   0.061   7.067   1.847 -1.0468  1.4044  0.0931
  185MOL    H7715165   0.172   7.128   1.728  0.6398  0.0129  2.0169
  185MOL    C7815166   7.730   6.882   1.697 -0.0668 -0.3471 -0.4483
  185MOL    O7915167   7.728   6.769   1.616 -0.5292  0.0633 -0.0290
  185MOL    H8015168   7.643   6.943   1.672 -0.7491 -1.2428 -0.2448
  185MOL    H8115169   7.733   6.859   1.804 -1.6813 -0.7785 -0.4914
  185MOL    H8215170   7.718   6.791   1.525 -0.8763  0.3766  0.0845
  186MOL     C115171   3.258   6.758   0.702 -0.5759  0.3679  0.1202
  186MOL     O215172   3.257   6.807   0.568 -0.1196  0.1812 -0.1006
  186MOL     H315173   3.241   6.831   0.781 -0.5847  1.2549 -0.6857
  186MOL     H415174   3.185   6.679   0.722  0.1208 -0.3664 -0.2310
  186MOL     H515175   3.356   6.711   0.712 -0.6809 -0.1744 -1.2082
  186MOL     C615176   3.130   6.859   0.538 -0.4914 -0.1818  0.3068
  186MOL     O715177   3.127   6.988   0.602 -0.0107  0.3924  0.3902
  186MOL     H815178   3.044   6.794   0.557  0.1200 -1.5804 -1.5226
  186MOL     H915179   3.124   6.869   0.429  1.1403 -2.3030 -0.0248
  186MOL    C1015180   3.042   7.074   0.542  0.5767 -0.1103  0.3099
  186MOL    O1115181   3.085   7.107   0.415  0.1641  0.4279  0.0083
  186MOL    H1215182   3.037   7.169   0.596  1.1412 -1.3211  2.5898
  186MOL    H1315183   2.942   7.030   0.544  0.6545 -0.3768 -1.2984
  186MOL    C1415184   3.188   7.203   0.420 -0.7233 -0.4996 -0.6903
  186MOL    O1515185   3.153   7.327   0.460  0.1203 -0.4127  0.0877
  186MOL    H1615186   3.235   7.199   0.321  2.0834 -0.2268  0.5846
  186MOL    H1715187   3.264   7.176   0.494 -0.8877  0.6624 -0.0985
  186MOL    C1815188   3.105   7.405   0.353 -0.4799  0.3586  0.0782
  186MOL    O1915189   3.038   7.513   0.403  0.2406 -0.0392 -0.2798
  186MOL    H2015190   3.028   7.350   0.299 -0.6757 -0.6961  1.4160
  186MOL    H2115191   3.185   7.434   0.285 -2.4556 -0.6018 -2.7610
  186MOL    C2215192   3.011   7.617   0.305 -0.2859  0.3535  0.4449
  186MOL    O2315193   3.104   7.715   0.303  0.5124  0.7441 -0.5895
  186MOL    H2415194   2.916   7.659   0.335  0.4975  2.2984  0.2937
  186MOL    H2515195   2.993   7.577   0.205 -4.7553  2.2651  0.3976
  186MOL    C2615196   3.149   7.760   0.428 -0.1446 -0.0039  0.7392
  186MOL    O2715197   3.181   0.111   0.412  0.2552  0.1421  0.2596
  186MOL    H2815198   3.234   7.702   0.464 -1.0076 -0.9300  1.3221
  186MOL    H2915199   3.073   7.757   0.506  1.5347 -0.3688  2.4191
  186MOL    C3015200   3.290   0.133   0.331 -0.2064  0.4076 -0.0113
  186MOL    O3115201   3.410   0.140   0.401  0.4274  0.1136  0.1864
  186MOL    H3215202   3.279   0.226   0.274  1.5795  0.0931 -0.9283
  186MOL    H3315203   3.295   0.061   0.249  1.4620  0.7713 -0.2452
  186MOL    C3415204   3.415   0.245   0.485 -0.3787 -0.3585  0.6294
  186MOL    O3515205   3.543   0.276   0.508 -0.1955 -0.4663 -0.1266
  186MOL    H3615206   3.365   0.208   0.575 -3.7843 -0.8976 -1.3841
  186MOL    H3715207   3.361   0.330   0.442  0.5154 -1.1438 -2.1541
  186MOL    C3815208   3.563   0.399   0.582  0.3830  0.4851 -0.5923
  186MOL    O3915209   3.555   0.513   0.507 -0.2941 -0.3516 -0.2874
  186MOL    H4015210   3.664   0.385   0.623  1.1246  2.5095 -1.6693
  186MOL    H4115211   3.501   0.383   0.670 -0.6806 -1.3874 -1.6615
  186MOL    C4215212   3.648   0.518   0.405 -0.1541 -0.7749 -0.0816
  186MOL    O4315213   3.776   0.529   0.449  0.3618 -0.0783  0.1281
  186MOL    H4415214   3.626   0.600   0.336 -0.0912 -1.0426 -0.4236
  186MOL    H4515215   3.637   0.430   0.342  2.4894 -0.2457 -1.3846
  186MOL    C4615216   3.812   0.655   0.485 -0.0268 -0.3061 -0.1612
  186MOL    O4715217   3.830   0.732   0.370  0.0540 -0.7546 -0.3540
  186MOL    H4815218   3.891   0.655   0.561 -2.0540  0.0510  2.0197
  186MOL    H4915219   3.729   0.699   0.541  0.1055 -0.0355 -0.1799
  186MOL    C5015220   3.949   0.702   0.309 -0.5319  0.7842 -0.5526
  186MOL    O5115221   3.937   0.668   0.178 -0.4465  0.6828  0.3250
  186MOL    H5215222   4.007   0.621   0.353  0.5055  0.9249 -1.6143
  186MOL    H5315223   4.014   0.790   0.314  0.8617 -0.2816  0.6478
  186MOL    C5415224   3.897   0.773   0.101 -0.0464 -0.5696  0.1173
  186MOL    O5515225   3.996   0.874   0.074 -0.2408 -0.3869 -0.0504
  186MOL    H5615226   3.803   0.809   0.141 -0.2682  0.7014 -1.4898
  186MOL    H5715227   3.872   0.733   0.003 -1.6080 -0.5962  0.5147
  186MOL    C5815228   4.111   0.834   0.007 -0.0379 -0.1704 -0.6054
  186MOL    O5915229   4.176   0.951   7.743  0.4472  0.0606  0.0411
  186MOL    H6015230   4.094   0.762   7.710  0.9450 -0.6466 -0.3910
  186MOL    H6115231   4.176   0.780   0.075  0.3044  1.0960  0.0760
  186MOL    C6215232   4.228   1.018   0.059 -0.4717 -1.0840 -0.3252
  186MOL    O6315233   4.349   0.961   0.108  0.5115  0.0637 -0.3337
  186MOL    H6415234   4.160   1.043   0.140 -0.7900  0.7868 -1.1401
  186MOL    H6515235   4.246   1.120   0.024  2.6344 -0.5549  2.6738
  186MOL    C6615236   4.404   1.028   0.211 -0.2506  0.0025 -0.0657
  186MOL    O6715237   4.319   1.029   0.324 -0.3803 -0.2733  0.0573
  186MOL    H6815238   4.416   1.131   0.176  0.6037  0.6539  2.0331
  186MOL    H6915239   4.503   0.991   0.237 -0.4079 -0.4105 -0.0484
  186MOL    C7015240   4.310   0.907   0.377  0.8573 -0.2408  0.5417
  186MOL    O7115241   4.430   0.863   0.429 -0.1918 -0.5653  0.4140
  186MOL    H7215242   4.273   0.835   0.304  1.3738  1.5367 -1.5028
  186MOL    H7315243   4.230   0.913   0.450 -0.6059 -1.1158 -0.9735
  186MOL    C7415244   4.416   0.747   0.498  0.0909  0.1570  0.0543
  186MOL    O7515245   4.327   0.655   0.432  0.1141 -0.3798  0.0438
  186MOL    H7615246   4.373   0.765   0.596 -0.6766  2.1527 -0.6162
  186MOL    H7715247   4.513   0.699   0.511  0.1225 -0.0026 -0.7515
  186MOL    C7815248   4.385   0.582   0.328 -0.0475 -0.0983 -1.0299
  186MOL    O7915249   4.292   0.504   0.258 -0.0627  0.1511 -0.1090
  186MOL    H8015250   4.459   0.520   0.379 -1.1509  0.6254  1.5502
  186MOL    H8115251   4.437   0.650   0.261 -3.0910  3.5135  0.1273
  186MOL    H8215252   4.280   0.424   0.307  0.2506  0.8635  1.1727
  187MOL     C115253   2.330   5.740   3.446  0.0282  0.1130  0.1785
  187MOL     O215254   2.277   5.606   3.435 -0.1685 -0.0918  0.1200
  187MOL     H315255   2.400   5.756   3.529  0.2775 -0.3798  0.0685
  187MOL     H415256   2.369   5.790   3.358  1.1543 -0.4844  0.3247
  187MOL     H515257   2.240   5.791   3.480 -0.3708 -1.1921  1.1715
  187MOL     C615258   2.373   5.515   3.399  0.0801  0.4530 -0.3066
  187MOL     O715259   2.410   5.516   3.263 -0.0250 -0.2103 -0.1776
  187MOL     H815260   2.351   5.415   3.437 -2.4135  0.7066 -0.9710
  187MOL     H915261   2.457   5.554   3.456  0.9316  0.2391 -1.3978
  187MOL    C1015262   2.308   5.485   3.176 -0.0213 -0.4482 -0.0948
  187MOL    O1115263   2.359   5.464   3.051  0.2433  0.5859 -0.5492
  187MOL    H1215264   2.250   5.577   3.184 -1.6295 -1.2037 -2.6190
  187MOL    H1315265   2.256   5.392   3.197 -0.1181  0.0039  1.7623
  187MOL    C1415266   2.362   5.575   2.966  0.1300 -0.0724 -1.0085
  187MOL    O1515267   2.233   5.598   2.918 -0.8323  0.6725 -0.0095
  187MOL    H1615268   2.434   5.561   2.886 -0.3944  1.9206 -1.8565
  187MOL    H1715269   2.412   5.658   3.016 -2.8411 -0.5754  3.0625
  187MOL    C1815270   2.182   5.498   2.834 -0.3796 -0.0966 -0.8184
  187MOL    O1915271   2.048   5.520   2.796 -0.1078 -0.6547 -0.0832
  187MOL    H2015272   2.174   5.408   2.895  1.1266  1.6557  2.0712
  187MOL    H2115273   2.253   5.485   2.752 -1.1201 -0.1370 -1.4626
  187MOL    C2215274   2.036   5.592   2.676  0.8487  0.1552 -0.5251
  187MOL    O2315275   2.080   5.513   2.572  0.3398 -0.0580  0.0964
  187MOL    H2415276   2.095   5.683   2.687  0.6176  0.0981  1.4645
  187MOL    H2515277   1.932   5.615   2.654  1.4400  0.4966 -3.1152
  187MOL    C2615278   1.993   5.409   2.546  0.1263 -0.9025  0.0641
  187MOL    O2715279   2.042   5.327   2.450 -0.3094 -0.6680 -0.1926
  187MOL    H2815280   1.890   5.437   2.527  0.5103  0.1490 -0.5460
  187MOL    H2915281   1.995   5.341   2.631 -1.9753  0.7586  1.4798
  187MOL    C3015282   2.002   5.369   2.326 -0.6254  0.2888  0.1782
  187MOL    O3115283   1.867   5.366   2.309  0.4007 -0.2543 -0.2000
  187MOL    H3215284   2.046   5.302   2.252 -1.2622 -0.5286  0.5355
  187MOL    H3315285   2.040   5.470   2.308 -0.6243  0.1579 -0.5650
  187MOL    C3415286   1.809   5.238   2.324  0.4516  0.8181  0.3211
  187MOL    O3515287   1.743   5.227   2.441  0.0411  0.5219  0.0685
  187MOL    H3615288   1.883   5.158   2.324 -0.9143 -0.4718  1.0212
  187MOL    H3715289   1.752   5.213   2.235  0.5131  1.7338  0.0280
  187MOL    C3815290   1.673   5.109   2.459 -0.5204 -0.0038 -0.0416
  187MOL    O3915291   1.764   5.009   2.466 -0.1297 -0.5989  0.1941
  187MOL    H4015292   1.614   5.099   2.368 -0.9644  0.1091  0.2314
  187MOL    H4115293   1.613   5.116   2.550  0.8794  1.1450  0.8167
  187MOL    C4215294   1.818   4.990   2.590  0.3559 -0.5250  0.6694
  187MOL    O4315295   1.845   4.853   2.598  0.1062 -0.6573 -0.3176
  187MOL    H4415296   1.751   5.016   2.672  0.5487  0.3879  0.5436
  187MOL    H4515297   1.912   5.044   2.589 -0.6575  1.3044  0.9331
  187MOL    C4615298   1.742   4.772   2.558  0.2308  0.6238  0.2700
  187MOL    O4715299   1.657   4.763   2.670  0.1282  0.3285 -0.0639
  187MOL    H4815300   1.787   4.676   2.531 -2.0962 -0.4112 -0.0402
  187MOL    H4915301   1.677   4.791   2.472 -0.8449  0.4272  1.0355
  187MOL    C5015302   1.565   4.663   2.650  0.0969  0.1556  0.0831
  187MOL    O5115303   1.485   4.682   2.543 -0.1095  0.6249 -0.4516
  187MOL    H5215304   1.512   4.658   2.745  0.3687  0.5384  0.2597
  187MOL    H5315305   1.618   4.571   2.626 -2.4471 -1.2248 -0.4003
  187MOL    C5415306   1.367   4.744   2.578  0.0785 -0.0716  0.4394
  187MOL    O5515307   1.297   4.749   2.455 -0.3606 -0.4126 -0.1061
  187MOL    H5615308   1.390   4.843   2.619 -1.4721  0.9009 -0.9888
  187MOL    H5715309   1.311   4.687   2.652  0.6092  0.8863  1.5878
  187MOL    C5815310   1.332   4.872   2.391  0.1151 -0.6351  1.0655
  187MOL    O5915311   1.284   4.986   2.463  0.7555 -0.5197  0.0385
  187MOL    H6015312   1.287   4.875   2.292  1.3109  1.1140  0.5607
  187MOL    H6115313   1.439   4.877   2.374 -0.4026 -0.2182 -2.4185
  187MOL    C6215314   1.146   4.994   2.474  0.8508 -0.6313  0.0165
  187MOL    O6315315   1.084   5.015   2.346 -1.1365  0.3366 -0.4354
  187MOL    H6415316   1.117   5.078   2.537 -2.4639 -0.1219 -2.0727
  187MOL    H6515317   1.099   4.908   2.520 -0.8023  0.6903  0.8540
  187MOL    C6615318   1.106   5.144   2.283 -0.2339  0.0635  0.0144
  187MOL    O6715319   1.082   5.135   2.144  0.7334 -0.6750  0.2672
  187MOL    H6815320   1.213   5.165   2.292 -0.2877  0.9051 -1.3913
  187MOL    H6915321   1.039   5.216   2.330  0.3102  1.6948 -1.6543
  187MOL    C7015322   0.942   5.138   2.118  0.5242  0.4078 -0.5885
  187MOL    O7115323   0.876   5.260   2.124  0.2541  0.0561  0.1826
  187MOL    H7215324   0.881   5.064   2.171  0.1869  1.8854  1.1556
  187MOL    H7315325   0.925   5.106   2.016  0.3178 -0.6638 -0.2340
  187MOL    C7415326   0.945   5.365   2.057  0.1922  0.6058 -0.0487
  187MOL    O7515327   0.954   5.342   1.920 -1.5471 -0.0295  0.4188
  187MOL    H7615328   1.046   5.375   2.097  0.0714  1.1023  0.1377
  187MOL    H7715329   0.905   5.461   2.090 -0.0398  0.1688  0.9651
  187MOL    C7815330   0.839   5.384   1.851  0.7519 -0.2780 -0.6719
  187MOL    O7915331   0.843   5.520   1.825  0.2411 -0.4516 -0.0508
  187MOL    H8015332   0.743   5.361   1.899 -0.5332 -0.9307 -3.4812
  187MOL    H8115333   0.841   5.331   1.756 -0.5002 -2.5306  0.5090
  187MOL    H8215334   0.886   5.523   1.741 -1.0855  2.2077 -0.6902
  188MOL     C115335   0.184   4.179   7.661  0.6341  0.4126 -0.1746
  188MOL     O215336   0.066   4.244   7.699  0.4065 -0.1158  0.1853
  188MOL     H315337   0.180   4.071   7.676 -0.3639  0.7862  2.6889
  188MOL     H415338   0.208   4.198   7.557  2.5365 -0.2879  0.1253
  188MOL     H515339   0.263   4.208   7.729 -0.0881  0.1980  0.7732
  188MOL     C615340   0.072   4.378   7.713 -0.6567 -0.3378 -0.5952
  188MOL     O715341   0.089   4.435   7.584  0.2648  0.4107  0.1574
  188MOL     H815342   0.150   4.419   7.777  0.3846  0.1686 -2.1601
  188MOL     H915343   7.761   4.408   7.759 -0.9019 -2.1543  0.1578
  188MOL    C1015344   7.761   4.428   7.511  0.2119 -0.2360 -0.3534
  188MOL    O1115345   7.780   4.471   7.383 -0.1811 -0.2521 -0.1316
  188MOL    H1215346   7.683   4.489   7.556  0.1496  0.5642 -1.5346
  188MOL    H1315347   7.731   4.324   7.508  2.4113 -0.9041 -0.1017
  188MOL    C1415348   0.031   4.372   7.288 -0.7363  0.3423  0.4785
  188MOL    O1515349   7.714   4.290   7.253 -0.2905  0.4895  0.0044
  188MOL    H1615350   0.119   4.318   7.323 -0.9608 -0.9671 -0.9188
  188MOL    H1715351   0.054   4.433   7.201 -1.6344 -0.0708 -0.0535
  188MOL    C1815352   7.611   4.338   7.178  0.3599 -0.0094 -0.8066
  188MOL    O1915353   7.651   4.383   7.051 -0.4376 -0.0233  0.3826
  188MOL    H2015354   7.571   4.425   7.231 -0.3364 -0.4038 -0.6795
  188MOL    H2115355   7.528   4.268   7.171 -0.6771  1.2650 -1.6258
  188MOL    C2215356   7.676   4.280   6.958 -0.3624 -0.4560 -0.3805
  188MOL    O2315357   7.560   4.238   6.894  0.4440  0.6561 -0.1651
  188MOL    H2415358   7.725   4.201   7.014  0.2363 -1.6249 -2.5186
  188MOL    H2515359   7.751   4.315   6.888  0.0981 -0.5130  0.0809
  188MOL    C2615360   7.584   4.131   6.807  0.0433  0.3757  0.8956
  188MOL    O2715361   7.633   4.021   6.875 -0.5784  0.5118  0.3903
  188MOL    H2815362   7.652   4.166   6.729  0.6951 -0.0303  1.2795
  188MOL    H2915363   7.492   4.108   6.753  0.5467 -1.8459  0.9406
  188MOL    C3015364   7.533   3.963   6.955 -0.1945 -0.1474 -0.4773
  188MOL    O3115365   7.443   3.879   6.884  0.2333 -0.6818 -0.1181
  188MOL    H3215366   7.479   4.040   7.009  1.1613  1.1395 -0.9344
  188MOL    H3315367   7.582   3.902   7.030 -1.5034 -0.1080  0.4244
  188MOL    C3415368   7.358   3.811   6.969  0.3506  0.3318 -0.1095
  188MOL    O3515369   7.272   3.900   7.039 -0.3112  0.0044 -0.1093
  188MOL    H3615370   7.405   3.747   7.044  1.1383  1.4412  0.3552
  188MOL    H3715371   7.300   3.748   6.902 -2.1606  2.6359 -0.2338
  188MOL    C3815372   7.174   3.957   6.964  0.6544 -0.8902 -0.0433
  188MOL    O3915373   7.077   3.866   6.934  0.2603  0.3949 -0.5996
  188MOL    H4015374   7.208   4.009   6.875 -2.4107  0.6322 -0.4040
  188MOL    H4115375   7.135   4.030   7.035 -1.4358 -1.0062 -1.0234
  188MOL    C4215376   6.977   3.916   6.860  0.1387  0.7021  0.4494
  188MOL    O4315377   7.015   3.954   6.728  0.0784  0.1727 -0.8374
  188MOL    H4415378   6.934   4.006   6.906 -0.3164  0.8493 -0.2590
  188MOL    H4515379   6.894   3.845   6.862  1.2607 -0.6030  1.1672
  188MOL    C4615380   7.051   3.842   6.647 -0.0243 -1.0325  0.1344
  188MOL    O4715381   6.949   3.753   6.619  0.0990  0.5866 -0.2792
  188MOL    H4815382   7.117   3.777   6.704 -2.2067 -0.8871  2.9523
  188MOL    H4915383   7.100   3.882   6.558 -0.1227  1.5372  1.2052
  188MOL    C5015384   6.866   3.813   6.529  0.1385 -0.4040  0.2209
  188MOL    O5115385   6.907   3.804   6.401 -0.3418 -0.3500 -0.3751
  188MOL    H5215386   6.836   3.916   6.546  1.9212  0.4431 -1.4560
  188MOL    H5315387   6.775   3.755   6.542 -0.0479 -0.0328  0.5696
  188MOL    C5415388   6.875   3.685   6.337  0.4154  0.5638  0.5552
  188MOL    O5515389   6.746   3.697   6.306 -0.4557  0.2211  0.3683
  188MOL    H5615390   6.894   3.594   6.395  1.0310 -0.4345 -1.1591
  188MOL    H5715391   6.925   3.668   6.242 -0.5761 -1.5405  0.3789
  188MOL    C5815392   6.687   3.586   6.244  0.0525  0.9402 -0.4126
  188MOL    O5915393   6.645   3.485   6.342 -0.1130  0.6971 -0.0238
  188MOL    H6015394   6.739   3.535   6.162  0.8360 -0.0441  0.6672
  188MOL    H6115395   6.602   3.640   6.204 -2.6878 -1.0952  2.4575
  188MOL    C6215396   6.523   3.510   6.393  0.7083 -0.4271 -0.1820
  188MOL    O6315397   6.516   3.443   6.511  0.0626  0.4204  0.2381
  188MOL    H6415398   6.443   3.485   6.323  0.0301 -0.3077  0.5464
  188MOL    H6515399   6.513   3.613   6.426  2.6629  0.3079 -1.7944
  188MOL    C6615400   6.500   3.304   6.487  0.6450 -0.2551  0.3732
  188MOL    O6715401   6.366   3.276   6.451 -0.0971  0.0207  0.3300
  188MOL    H6815402   6.527   3.240   6.570 -1.3401 -1.8741 -0.1896
  188MOL    H6915403   6.561   3.277   6.401 -2.3059 -0.8349 -1.6325
  188MOL    C7015404   6.280   3.293   6.555  0.1686 -0.6091  0.6000
  188MOL    O7115405   6.170   3.213   6.528 -0.0147 -0.0520 -0.0182
  188MOL    H7215406   6.251   3.398   6.564  0.4273 -0.1710 -2.8659
  188MOL    H7315407   6.316   3.267   6.654 -0.8712  1.0110  1.4186
  188MOL    C7415408   6.202   3.077   6.513  0.1312 -0.0176 -0.4577
  188MOL    O7515409   6.104   2.991   6.558  0.0055  0.7128  0.0838
  188MOL    H7615410   6.289   3.040   6.568 -0.8235 -0.9653  0.4385
  188MOL    H7715411   6.217   3.056   6.408  0.9449 -0.1990 -0.3087
  188MOL    C7815412   5.990   2.991   6.479  0.2365 -0.1061 -0.4931
  188MOL    O7915413   5.895   2.898   6.523 -0.3802 -0.0862 -0.0304
  188MOL    H8015414   6.027   2.955   6.383 -1.5125  1.0640 -1.6363
  188MOL    H8115415   5.943   3.090   6.481 -0.9379 -0.5586 -3.5600
  188MOL    H8215416   5.941   2.817   6.508  1.1891  0.5663  1.1674
  189MOL     C115417   4.201   1.073   5.367 -0.2068 -0.8564 -0.5925
  189MOL     O215418   4.264   0.948   5.377 -0.2110 -0.3042  0.3385
  189MOL     H315419   4.253   1.162   5.402 -3.7552  0.2684  2.1911
  189MOL     H415420   4.170   1.097   5.265 -1.2561  2.1141  0.3836
  189MOL     H515421   4.101   1.079   5.409  0.7361  3.0019  1.3354
  189MOL     C615422   4.398   0.957   5.348 -0.4466 -0.0090  0.7247
  189MOL     O715423   4.482   1.004   5.450  0.1823 -0.3533  0.3852
  189MOL     H815424   4.408   1.003   5.250 -0.0231  1.6576  1.5312
  189MOL     H915425   4.421   0.851   5.332 -1.5933 -0.3603  1.3202
  189MOL    C1015426   4.483   0.914   5.557  0.7858  0.0398 -0.5085
  189MOL    O1115427   4.570   0.803   5.545  0.5704  0.3970  0.0955
  189MOL    H1215428   4.382   0.890   5.592  0.7185  0.5354 -0.3577
  189MOL    H1315429   4.511   0.966   5.649 -2.1743  0.3315  0.2972
  189MOL    C1415430   4.703   0.844   5.524 -0.4152 -0.1983  0.1712
  189MOL    O1515431   4.784   0.737   5.496 -0.0597  0.5793 -0.4175
  189MOL    H1615432   4.722   0.898   5.617  0.3461  0.1719 -0.1972
  189MOL    H1715433   4.722   0.910   5.440  0.6483 -0.6122  0.0701
  189MOL    C1815434   4.860   0.695   5.605  0.1809 -0.2900  0.5901
  189MOL    O1915435   4.949   0.785   5.644  0.3168  0.0457 -0.8941
  189MOL    H2015436   4.916   0.612   5.562 -0.2503  0.1864 -0.9515
  189MOL    H2115437   4.792   0.656   5.680 -1.6736  1.2951 -0.2175
  189MOL    C2215438   5.010   0.739   5.765 -0.5649  0.3204 -0.6003
  189MOL    O2315439   4.913   0.751   5.863  0.6935  0.1030  0.0971
  189MOL    H2415440   5.098   0.800   5.785 -1.1383  0.9480  0.0227
  189MOL    H2515441   5.032   0.634   5.749  0.6541 -0.1080  3.5752
  189MOL    C2615442   4.910   0.879   5.916 -0.8808 -0.3712  0.0133
  189MOL    O2715443   4.812   0.892   6.020 -0.1991  0.5042 -0.2865
  189MOL    H2815444   4.904   0.953   5.836  1.2988  0.3029  0.4361
  189MOL    H2915445   5.000   0.906   5.971 -1.3421  1.4304 -0.0825
  189MOL    C3015446   4.681   0.869   5.981 -0.4669 -0.7162 -0.4581
  189MOL    O3115447   4.630   0.977   5.919  0.1233 -0.7932  0.4549
  189MOL    H3215448   4.613   0.848   6.064 -0.8677  0.3968 -0.4932
  189MOL    H3315449   4.677   0.784   5.913  0.5355 -2.4191  1.5358
  189MOL    C3415450   4.582   1.086   6.002  0.3414  0.5993  0.2438
  189MOL    O3515451   4.471   1.054   6.088 -0.1676  0.3164  0.6721
  189MOL    H3615452   4.560   1.158   5.924  0.2582 -0.1232 -0.4062
  189MOL    H3715453   4.652   1.132   6.072 -0.6052 -0.4857  1.9480
  189MOL    C3815454   4.348   1.084   6.025 -0.3866  0.1131 -0.5929
  189MOL    O3915455   4.339   1.213   5.972 -0.2093 -0.4397  0.0359
  189MOL    H4015456   4.257   1.055   6.077 -0.9327  0.6516 -1.2399
  189MOL    H4115457   4.346   1.015   5.941  2.5184 -0.8266  0.0755
  189MOL    C4215458   4.269   1.220   5.848  0.5652  0.0344  0.3216
  189MOL    O4315459   4.146   1.161   5.858 -0.3415 -0.1126  0.2433
  189MOL    H4415460   4.339   1.173   5.778 -0.4673 -1.9847  0.5948
  189MOL    H4515461   4.258   1.325   5.819 -1.6548 -0.3789 -0.4440
  189MOL    C4615462   4.051   1.244   5.912  0.5465  0.2647  0.2757
  189MOL    O4715463   4.026   1.344   5.829  0.4894 -0.2097  0.1628
  189MOL    H4815464   4.070   1.284   6.012 -1.8405  1.2446  0.3674
  189MOL    H4915465   3.961   1.188   5.935  1.0255 -1.0885 -1.0769
  189MOL    C5015466   3.942   1.441   5.889 -0.6661  0.3462  0.0892
  189MOL    O5115467   3.997   1.509   5.991  0.4435  0.6053  0.1627
  189MOL    H5215468   3.852   1.387   5.920 -1.4577  2.7376  2.0623
  189MOL    H5315469   3.906   1.507   5.810 -0.2735 -0.3012 -0.6404
  189MOL    C5415470   3.910   1.590   6.057  0.5591  0.0845 -0.8178
  189MOL    O5515471   3.849   1.676   5.965 -0.0991  0.2008  0.5312
  189MOL    H5615472   3.971   1.638   6.134 -0.7698  0.5267 -0.0193
  189MOL    H5715473   3.832   1.531   6.105  0.3306  1.0553  0.0282
  189MOL    C5815474   3.780   1.778   6.022  0.5058  0.8842  0.0894
  189MOL    O5915475   3.648   1.741   6.055  0.2859  0.2797 -0.3050
  189MOL    H6015476   3.767   1.872   5.970  0.8121  2.5978  2.9879
  189MOL    H6115477   3.823   1.795   6.121  0.2851 -0.3196  0.4087
  189MOL    C6215478   3.562   1.731   5.941  0.1969  0.6229  0.0447
  189MOL    O6315479   3.549   1.851   5.882  0.1635 -0.3082  0.0483
  189MOL    H6415480   3.460   1.696   5.956 -0.5198  2.4701 -0.3930
  189MOL    H6515481   3.613   1.661   5.874 -0.7353 -1.6005  1.6095
  189MOL    C6615482   3.442   1.922   5.925  0.0983  0.4883 -0.5022
  189MOL    O6715483   3.318   1.874   5.906  0.4789 -0.0381 -0.1077
  189MOL    H6815484   3.450   2.017   5.872 -0.3952 -0.3573 -2.1344
  189MOL    H6915485   3.455   1.950   6.030 -1.9689 -1.0575  0.2141
  189MOL    C7015486   3.287   1.871   5.775  0.0617 -0.3835  0.5553
  189MOL    O7115487   3.154   1.844   5.761 -0.3949  0.3646 -0.2496
  189MOL    H7215488   3.341   1.790   5.724  0.7224  0.9957 -0.9634
  189MOL    H7315489   3.313   1.961   5.719  2.3229 -0.1742  1.8912
  189MOL    C7415490   3.074   1.953   5.795 -0.2374  0.7146 -0.6361
  189MOL    O7515491   3.019   2.011   5.677  0.7028 -0.4305 -0.7406
  189MOL    H7615492   3.122   2.033   5.851 -0.4509  0.7632 -0.5226
  189MOL    H7715493   3.002   1.918   5.869  0.8506 -1.1699 -0.4280
  189MOL    C7815494   2.917   1.939   5.619 -0.4187  0.5403  0.2624
  189MOL    O7915495   2.870   1.995   5.503  0.5699 -0.5580 -0.3995
  189MOL    H8015496   2.830   1.923   5.683  0.8231  0.9030  2.0853
  189MOL    H8115497   2.960   1.843   5.592 -1.2074  0.1326  0.4357
  189MOL    H8215498   2.945   2.032   5.458  1.9449 -2.7760 -0.0104
  190MOL     C115499   7.634   7.633   6.896 -0.0858  0.0800  0.2844
  190MOL     O215500   7.601   7.529   6.809 -0.0528 -0.1431  0.6118
  190MOL     H315501   7.732   7.675   6.875 -0.9086  2.8709  1.7747
  190MOL     H415502   7.568   7.715   6.868 -1.1134 -1.1743 -1.0256
  190MOL     H515503   7.623   7.608   7.001 -2.7498 -1.3452 -0.3013
  190MOL     C615504   7.687   7.423   6.830  0.9475 -0.6901 -0.1922
  190MOL     O715505   0.036   7.454   6.803 -0.3017 -0.2946  0.1894
  190MOL     H815506   7.660   7.359   6.746 -0.7647 -0.8794  0.4650
  190MOL     H915507   7.659   7.378   6.925 -1.2079 -1.0717 -0.9724
  190MOL    C1015508   0.121   7.344   6.814 -0.2951  0.0629 -0.1106
  190MOL    O1115509   0.081   7.237   6.730  0.4382 -0.1603  0.2455
  190MOL    H1215510   0.114   7.317   6.920  2.3607 -0.0244  0.0731
  190MOL    H1315511   0.222   7.382   6.796 -0.7557  1.0038 -0.7229
  190MOL    C1415512   0.152   7.232   6.610 -0.1769  0.0545  0.7568
  190MOL    O1515513   0.120   7.337   6.528  0.1067 -0.2258 -0.3001
  190MOL    H1615514   0.128   7.141   6.554  1.9014  0.8001 -1.4110
  190MOL    H1715515   0.259   7.239   6.630 -0.0662  3.0179 -0.6182
  190MOL    C1815516   0.011   7.302   6.449  0.3474  0.1759 -0.5763
  190MOL    O1915517   0.049   7.229   6.334 -0.5793  0.0906  0.0231
  190MOL    H2015518   7.740   7.392   6.420 -1.1306  0.2122  2.1410
  190MOL    H2115519   7.731   7.237   6.509  1.4611  1.3887  1.9994
  190MOL    C2215520   0.101   7.317   6.241 -0.0573  0.4112  0.1681
  190MOL    O2315521   7.781   7.382   6.173  0.5248  0.4927  0.1889
  190MOL    H2415522   0.158   7.261   6.166 -2.3127 -2.5472  0.5451
  190MOL    H2515523   0.165   7.398   6.276 -0.8755  0.2544  2.0603
  190MOL    C2615524   7.714   7.295   6.085  0.1792  0.0329 -0.0456
  190MOL    O2715525   0.010   7.272   5.969  0.1284 -0.4462  0.0226
  190MOL    H2815526   7.611   7.325   6.063  0.7765  0.2319 -2.7363
  190MOL    H2915527   7.706   7.195   6.128 -3.6087 -0.0057 -0.6495
  190MOL    C3015528   0.019   7.384   5.882  0.8348  0.1599  0.0012
  190MOL    O3115529   7.756   7.354   5.751 -0.4256 -0.3796  0.1284
  190MOL    H3215530   0.125   7.411   5.883  0.6854  0.8388 -1.2157
  190MOL    H3315531   7.755   7.469   5.929 -1.3889 -0.9173 -0.2738
  190MOL    C3415532   0.073   7.342   5.664  0.2203 -0.2931 -0.1242
  190MOL    O3515533   0.154   7.456   5.652  1.0309  0.6330  0.1178
  190MOL    H3615534   0.025   7.318   5.569 -1.0146  0.6252  0.2602
  190MOL    H3715535   0.137   7.257   5.688  3.5221  0.9240 -4.0496
  190MOL    C3815536   0.084   7.565   5.603  0.5346  0.2573  0.4125
  190MOL    O3915537   0.155   7.677   5.567 -0.8501 -0.3621  0.7364
  190MOL    H4015538   0.015   7.605   5.677  0.8815 -0.7414  1.2792
  190MOL    H4115539   0.025   7.547   5.513  1.0840 -2.7830  0.6288
  190MOL    C4215540   0.233   7.654   5.460  0.0173  0.1823 -0.1284
  190MOL    O4315541   0.294   7.773   5.426  0.0644  0.8045 -0.0400
  190MOL    H4415542   0.169   7.632   5.375 -1.3431  0.7994  0.7248
  190MOL    H4515543   0.301   7.570   5.475  1.2613  1.0996 -0.4862
  190MOL    C4615544   0.418   0.010   5.509  0.5573  0.8324  0.1945
  190MOL    O4715545   0.510   7.688   5.480  0.0560  0.0912  0.1029
  190MOL    H4815546   0.383   7.779   5.611  2.1940 -0.9822  0.5231
  190MOL    H4915547   0.474   0.102   5.496 -1.0704  1.7576 -0.5265
  190MOL    C5015548   0.638   7.704   5.539  0.2361 -0.6282  0.4099
  190MOL    O5115549   0.708   0.022   5.464 -0.1002 -0.0083 -0.2550
  190MOL    H5215550   0.689   7.608   5.545  0.7744 -0.3361  0.5003
  190MOL    H5315551   0.630   7.736   5.643  1.2074 -1.3521  0.7130
  190MOL    C5415552   0.736   7.756   5.337  0.2522  0.7454 -0.1239
  190MOL    O5515553   0.835   7.660   5.350 -0.0985  0.7107  0.6890
  190MOL    H5615554   0.765   0.044   5.260  1.9357 -1.1868 -1.3336
  190MOL    H5715555   0.651   7.715   5.284 -0.9410  0.9128  1.6111
  190MOL    C5815556   0.916   7.637   5.234 -1.1909 -0.5133  0.3517
  190MOL    O5915557   0.864   7.543   5.150  0.0216 -0.5896  0.1560
  190MOL    H6015558   1.010   7.590   5.264 -1.4223 -0.7141  0.7608
  190MOL    H6115559   0.937   7.726   5.174  3.4733 -0.5594  1.7030
  190MOL    C6215560   0.851   7.414   5.200 -0.7322 -0.7781 -0.0966
  190MOL    O6315561   0.970   7.340   5.186 -0.4296  0.0845  0.1736
  190MOL    H6415562   0.766   7.365   5.153 -0.1786 -1.5816 -0.2923
  190MOL    H6515563   0.832   7.428   5.306  2.0936 -0.7561  0.4636
  190MOL    C6615564   0.971   7.269   5.067 -0.7679 -0.3522  0.4724
  190MOL    O6715565   0.865   7.178   5.058 -0.7078  0.1765 -0.1064
  190MOL    H6815566   1.071   7.226   5.058 -0.6083 -0.1448  1.2089
  190MOL    H6915567   0.958   7.344   4.989 -1.3855 -1.1545 -0.2016
  190MOL    C7015568   0.888   7.052   5.116  0.0702  0.4653 -0.1989
  190MOL    O7115569   0.777   6.965   5.089 -0.3457 -0.1591 -0.1240
  190MOL    H7215570   0.909   7.055   5.223  0.3638  2.3759 -0.2894
  190MOL    H7315571   0.976   7.008   5.069 -1.5029 -2.9989 -0.0920
  190MOL    C7415572   0.658   6.997   5.148 -0.4503 -0.0344  0.1437
  190MOL    O7515573   0.673   6.992   5.283 -0.1630  0.7116  0.2392
  190MOL    H7615574   0.572   6.939   5.115 -2.5348  2.9219  0.1514
  190MOL    H7715575   0.640   7.103   5.128  0.4097  0.1578  0.3460
  190MOL    C7815576   0.658   6.863   5.338 -0.0301  0.6446 -0.5558
  190MOL    O7915577   0.635   6.873   5.477  0.5942 -0.1274  0.4052
  190MOL    H8015578   0.750   6.805   5.323  0.2969  1.3374 -1.2842
  190MOL    H8115579   0.573   6.810   5.296  0.1276  0.4642 -0.6521
  190MOL    H8215580   0.707   6.924   5.511  0.3078 -0.7844  2.0598
  191MOL     C115581   0.542   6.271   3.018 -0.5592  0.3069 -0.0988
  191MOL     O215582   0.599   6.388   2.968 -0.4026 -0.2056  0.4059
  191MOL     H315583   0.507   6.285   3.120  1.9973 -0.5404  0.9159
  191MOL     H415584   0.454   6.247   2.958 -0.7330  0.5790  0.0432
  191MOL     H515585   0.609   6.186   3.020 -1.4332 -0.3668  1.9475
  191MOL     C615586   0.678   6.463   3.059 -0.1382  0.3716  0.1963
  191MOL     O715587   0.775   6.380   3.123  0.1670 -0.7469 -0.3043
  191MOL     H815588   0.620   6.508   3.139  0.9330  1.5881  0.3029
  191MOL     H915589   0.718   6.539   2.993  0.5341  1.3033  1.6669
  191MOL    C1015590   0.902   6.432   3.120  0.3099  0.2212  0.2714
  191MOL    O1115591   0.964   6.414   2.995 -0.0265 -0.3698 -0.1906
  191MOL    H1215592   0.964   6.396   3.202  0.2471  0.1874  0.3040
  191MOL    H1315593   0.888   6.539   3.139  0.0307  0.2986 -0.3292
  191MOL    C1415594   0.980   6.278   2.958 -0.4759  0.4277 -0.0271
  191MOL    O1515595   1.084   6.217   3.028 -0.4170 -0.4292 -0.9550
  191MOL    H1615596   1.014   6.285   2.854 -1.1771 -0.5311 -0.3293
  191MOL    H1715597   0.881   6.232   2.961  0.5655 -1.8285  0.4375
  191MOL    C1815598   1.211   6.247   2.974  0.3560 -1.1961 -0.8344
  191MOL    O1915599   1.308   6.241   3.076  0.2730  0.0885 -0.4612
  191MOL    H2015600   1.226   6.350   2.941 -0.0133 -0.7518  0.3740
  191MOL    H2115601   1.240   6.184   2.890  0.9621 -1.3758 -0.4987
  191MOL    C2215602   1.306   6.337   3.170 -0.2736  0.2544 -0.0687
  191MOL    O2315603   1.359   6.461   3.124  0.2467  0.0914 -0.3718
  191MOL    H2415604   1.357   6.306   3.261 -0.6180  1.3219  0.5038
  191MOL    H2515605   1.202   6.359   3.199  0.3553 -0.5569  3.0026
  191MOL    C2615606   1.391   6.560   3.222 -0.2056  0.2598 -0.6392
  191MOL    O2715607   1.290   6.586   3.307  0.2364 -0.0557 -0.5035
  191MOL    H2815608   1.422   6.652   3.172  0.3476  0.2373 -0.3393
  191MOL    H2915609   1.473   6.521   3.282 -1.7605 -2.4743 -0.2107
  191MOL    C3015610   1.190   6.657   3.243 -0.1719 -0.7591  0.1527
  191MOL    O3115611   1.215   6.796   3.231 -0.3611 -0.3629  0.7921
  191MOL    H3215612   1.092   6.656   3.291  0.0307  1.7576  0.6939
  191MOL    H3315613   1.176   6.628   3.139  0.9542  1.3414 -0.6005
  191MOL    C3415614   1.248   6.855   3.348  0.1478 -0.6019  0.4402
  191MOL    O3515615   1.136   6.851   3.432  0.0035  0.9796  0.4234
  191MOL    H3615616   1.262   6.961   3.330  0.3709 -0.8380 -0.8684
  191MOL    H3715617   1.338   6.817   3.395  0.9936  0.4873 -0.2939
  191MOL    C3815618   1.029   6.931   3.398  0.5755  0.0219  0.8989
  191MOL    O3915619   0.984   6.907   3.268 -0.6874  0.1302  0.8450
  191MOL    H4015620   1.048   7.036   3.421  1.9161  0.2688 -1.1362
  191MOL    H4115621   0.946   6.893   3.458 -0.0714 -1.5102 -0.9101
  191MOL    C4215622   0.896   7.006   3.230 -0.1796  0.1543  0.1606
  191MOL    O4315623   0.961   7.130   3.218  0.4935 -0.1918 -0.5048
  191MOL    H4415624   0.817   7.012   3.304 -2.3323 -0.6324 -2.0009
  191MOL    H4515625   0.852   6.975   3.135 -1.7033  0.5867  0.7143
  191MOL    C4615626   1.045   7.147   3.109  0.1263 -0.1677  0.1581
  191MOL    O4715627   0.982   7.149   2.980 -0.1191 -0.1497 -0.6316
  191MOL    H4815628   1.123   7.070   3.106  1.9156  1.5791  0.5735
  191MOL    H4915629   1.108   7.235   3.114 -1.7076  1.1210  1.0880
  191MOL    C5015630   0.918   7.265   2.959 -0.2991  0.4453 -0.6599
  191MOL    O5115631   0.875   7.264   2.828  0.3168 -0.0011  0.3572
  191MOL    H5215632   0.987   7.348   2.975  0.8624 -0.5138 -0.5998
  191MOL    H5315633   0.841   7.265   3.036  0.8502 -0.1800  0.5150
  191MOL    C5415634   0.806   7.382   2.795 -0.2269  0.1453  0.0927
  191MOL    O5515635   0.899   7.486   2.794 -0.1430 -0.6933 -0.1473
  191MOL    H5615636   0.711   7.397   2.847 -0.8423  0.1682 -1.0427
  191MOL    H5715637   0.773   7.357   2.695  0.0880 -2.0183  0.4987
  191MOL    C5815638   0.835   7.604   2.763 -0.5731  0.0552  0.0111
  191MOL    O5915639   0.786   7.609   2.634 -0.2429 -0.1117 -0.9771
  191MOL    H6015640   0.900   7.691   2.774 -1.4259  0.5729  1.0285
  191MOL    H6115641   0.755   7.627   2.834  0.4851  0.1341  1.1931
  191MOL    C6215642   0.878   7.585   2.536 -0.2587 -0.2110 -0.3761
  191MOL    O6315643   0.809   7.576   2.415 -0.3323  0.1133 -0.1697
  191MOL    H6415644   0.933   7.491   2.539 -2.8426 -1.7931 -1.4177
  191MOL    H6515645   0.945   7.671   2.536 -3.0589  2.0989  2.1480
  191MOL    C6615646   0.731   7.463   2.399  0.0211 -0.2485 -0.4922
  191MOL    O6715647   0.818   7.354   2.385  0.3530  0.3947 -0.5918
  191MOL    H6815648   0.674   7.492   2.311  1.1104 -0.0528 -1.1392
  191MOL    H6915649   0.659   7.445   2.479  0.9052  0.9924  0.6062
  191MOL    C7015650   0.865   7.349   2.250 -0.2833  0.0258 -0.1241
  191MOL    O7115651   0.781   7.273   2.166  0.2998  0.4496  0.6685
  191MOL    H7215652   0.962   7.299   2.256 -1.1410 -1.6527 -0.1738
  191MOL    H7315653   0.890   7.450   2.217 -0.4453 -0.0224 -0.3976
  191MOL    C7415654   0.791   7.137   2.178  0.0797  0.3657  1.1622
  191MOL    O7515655   0.904   7.092   2.113  0.2978 -0.2980 -0.1514
  191MOL    H7615656   0.697   7.099   2.139 -0.0223 -1.0305  2.6818
  191MOL    H7715657   0.802   7.109   2.283 -1.0530  2.7497  1.9566
  191MOL    C7815658   0.889   7.095   1.977  0.0148  0.0560  0.9878
  191MOL    O7915659   0.992   7.029   1.919 -0.0223 -0.1609  0.2176
  191MOL    H8015660   0.889   7.202   1.954 -0.3177 -0.5892 -2.2502
  191MOL    H8115661   0.797   7.052   1.937  0.6798  0.0845 -0.6232
  191MOL    H8215662   1.072   7.079   1.925  1.3188 -2.2874  0.5930
  192MOL     C115663   1.436   4.786   3.364 -0.8892 -0.1795 -0.2363
  192MOL     O215664   1.375   4.899   3.305  0.0096  0.0351  0.6933
  192MOL     H315665   1.425   4.793   3.473 -1.2925  1.4183 -0.3703
  192MOL     H415666   1.387   4.690   3.342 -1.1326 -0.6899  2.3543
  192MOL     H515667   1.544   4.783   3.358 -0.5897  0.7456  3.5842
  192MOL     C615668   1.447   5.016   3.284  0.2807 -0.4799 -0.0872
  192MOL     O715669   1.459   5.091   3.399  0.1448  0.5848 -0.0648
  192MOL     H815670   1.380   5.056   3.208  1.0197  0.9290 -0.0190
  192MOL     H915671   1.549   4.991   3.257  0.1514 -0.3969 -0.6636
  192MOL    C1015672   1.333   5.147   3.425 -0.5607 -0.0132  0.6220
  192MOL    O1115673   1.326   5.210   3.547 -0.3814  0.1762  0.0310
  192MOL    H1215674   1.259   5.067   3.424 -1.4837  0.8413 -0.8461
  192MOL    H1315675   1.303   5.219   3.348  3.4781 -0.6766 -1.6856
  192MOL    C1415676   1.440   5.288   3.579  0.2341 -0.2562  0.0269
  192MOL    O1515677   1.437   5.403   3.514 -0.0557  0.3563 -0.0666
  192MOL    H1615678   1.533   5.233   3.565  0.0622 -0.0650 -2.0680
  192MOL    H1715679   1.439   5.305   3.687 -1.0471 -1.4238  0.2100
  192MOL    C1815680   1.331   5.484   3.559  0.2726  0.2289 -0.4612
  192MOL    O1915681   1.373   5.612   3.527 -0.1901  0.2443 -0.7640
  192MOL    H2015682   1.295   5.462   3.660 -0.6282 -0.9111 -1.0172
  192MOL    H2115683   1.237   5.461   3.509  0.2439 -1.6555  0.4002
  192MOL    C2215684   1.471   5.669   3.604 -0.8225 -0.3928  0.0429
  192MOL    O2315685   1.523   5.783   3.550 -0.2352  0.5638  0.1497
  192MOL    H2415686   1.545   5.590   3.616  0.6551  0.8481 -0.6846
  192MOL    H2515687   1.432   5.686   3.705  1.9539  0.9774  0.9461
  192MOL    C2615688   1.607   5.764   3.442  1.2197 -0.3031  0.0922
  192MOL    O2715689   1.736   5.728   3.494  0.0116  0.4416  0.1172
  192MOL    H2815690   1.593   5.855   3.384  0.0323  0.1391  1.0532
  192MOL    H2915691   1.571   5.683   3.379  1.0577  0.2171 -0.4955
  192MOL    C3015692   1.812   5.684   3.391 -0.4242  0.8475  0.5157
  192MOL    O3115693   1.861   5.791   3.310  0.0141 -0.2198  0.0559
  192MOL    H3215694   1.755   5.604   3.344 -0.5391  1.4626 -0.3936
  192MOL    H3315695   1.902   5.633   3.426 -0.1466  0.6874 -0.4170
  192MOL    C3415696   1.986   5.844   3.345 -0.0492  0.2715 -0.3113
  192MOL    O3515697   2.088   5.806   3.258  0.2808 -0.2270  0.3377
  192MOL    H3615698   2.029   5.821   3.443 -1.2026  1.8169  0.5808
  192MOL    H3715699   1.973   5.952   3.349  2.2239  0.5928 -1.1152
  192MOL    C3815700   2.073   5.848   3.128  0.1159 -0.0787  0.0738
  192MOL    O3915701   2.136   5.968   3.094  0.0449  0.0540 -0.1521
  192MOL    H4015702   1.969   5.830   3.100 -0.3509  0.8940  1.1662
  192MOL    H4115703   2.128   5.775   3.068 -1.6723 -0.4056 -1.1997
  192MOL    C4215704   2.049   6.051   3.021  0.0984 -0.4517 -0.0491
  192MOL    O4315705   2.087   6.067   2.888 -0.1510 -0.1416 -0.1702
  192MOL    H4415706   2.051   6.150   3.066  0.5633 -1.4037  2.0785
  192MOL    H4515707   1.946   6.018   3.014 -0.2845  0.7347  0.0090
  192MOL    C4615708   2.069   5.949   2.813  0.2077 -0.8459  0.2383
  192MOL    O4715709   2.118   5.963   2.684 -0.6035  0.1051  0.1523
  192MOL    H4815710   1.963   5.927   2.821 -0.1360  0.4031 -0.7068
  192MOL    H4915711   2.118   5.861   2.854 -1.0006 -0.7482  1.9427
  192MOL    C5015712   2.027   6.029   2.603 -0.5730  0.4271 -0.0470
  192MOL    O5115713   1.916   5.953   2.571 -0.3423 -0.9275  0.1544
  192MOL    H5215714   2.078   6.068   2.515  1.2270  2.5103  1.8875
  192MOL    H5315715   1.996   6.121   2.652 -0.4822  1.6384 -2.1910
  192MOL    C5415716   1.957   5.850   2.479  0.5782  0.6255  0.3004
  192MOL    O5515717   1.854   5.757   2.458  0.5292 -0.2413 -0.3634
  192MOL    H5615718   2.039   5.792   2.523  0.1350 -0.4601 -0.2893
  192MOL    H5715719   1.993   5.882   2.381 -0.3329 -1.7923 -0.8678
  192MOL    C5815720   1.752   5.803   2.363 -0.6062  0.3288  0.4532
  192MOL    O5915721   1.806   5.804   2.237 -0.2545 -0.2843 -0.1325
  192MOL    H6015722   1.713   5.899   2.396 -1.4280  0.3017 -0.4067
  192MOL    H6115723   1.670   5.732   2.372 -1.7853  1.3693 -1.4971
  192MOL    C6215724   1.785   5.686   2.162  0.4291 -0.0454  0.3990
  192MOL    O6315725   1.651   5.671   2.126  0.2428 -0.0865 -0.0389
  192MOL    H6415726   1.820   5.601   2.220  0.1056  0.0105  0.6758
  192MOL    H6515727   1.838   5.692   2.067 -0.4515 -3.0294 -0.3348
  192MOL    C6615728   1.610   5.768   2.034 -0.3010  0.4532  0.2150
  192MOL    O6715729   1.658   5.734   1.910  0.5759 -0.3917 -0.0536
  192MOL    H6815730   1.629   5.870   2.066  1.6883 -0.5059  2.2150
  192MOL    H6915731   1.502   5.759   2.027 -0.3753  1.7708 -0.5484
  192MOL    C7015732   1.660   5.839   1.827  0.6136  0.0319 -0.1695
  192MOL    O7115733   1.547   5.911   1.816  0.6093  0.2463  0.4202
  192MOL    H7215734   1.695   5.798   1.732  2.6774  1.0830  0.1079
  192MOL    H7315735   1.733   5.912   1.862 -0.0578 -0.4050  2.2400
  192MOL    C7415736   1.460   5.835   1.739  0.7697 -0.6678  0.1171
  192MOL    O7515737   1.347   5.903   1.698 -0.6024  0.3118 -0.1212
  192MOL    H7615738   1.436   5.739   1.785 -0.1991 -0.8542 -0.7451
  192MOL    H7715739   1.506   5.821   1.641 -0.8250  0.4364 -0.8247
  192MOL    C7815740   1.249   5.913   1.791  0.6277 -0.5658  0.2812
  192MOL    O7915741   1.128   5.957   1.724  0.2052 -0.1557 -0.3098
  192MOL    H8015742   1.266   5.984   1.872 -0.1557  0.8584 -0.7779
  192MOL    H8115743   1.231   5.814   1.832 -3.7957  0.3337  0.7417
  192MOL    H8215744   1.055   5.933   1.779  0.2985 -0.1957 -0.2033
  193MOL     C115745   3.329   1.009   2.067 -0.3919 -0.5492  0.4027
  193MOL     O215746   3.224   1.085   2.130 -0.0685  0.6217  0.1652
  193MOL     H315747   3.408   1.070   2.024  1.0894 -1.2835  2.0323
  193MOL     H415748   3.380   0.957   2.148 -0.2052  1.8506  1.8746
  193MOL     H515749   3.283   0.949   1.987 -0.5598 -0.8341  0.7112
  193MOL     C615750   3.119   1.009   2.188 -0.3501 -0.8986  0.5199
  193MOL     O715751   3.021   0.978   2.097  0.1180  0.1142  0.4978
  193MOL     H815752   3.064   1.064   2.265 -0.2853 -1.2131  0.7898
  193MOL     H915753   3.146   0.914   2.233  2.9772 -1.0623 -1.6632
  193MOL    C1015754   2.946   1.086   2.052  0.1346  0.6354  1.4221
  193MOL    O1115755   2.858   1.047   1.953 -0.1671  0.2541 -1.0118
  193MOL    H1215756   3.014   1.156   2.003 -1.8515  0.7127 -1.3786
  193MOL    H1315757   2.898   1.138   2.135  0.7394  1.2989  1.3650
  193MOL    C1415758   2.922   0.989   1.850  0.3286  0.0642  0.3762
  193MOL    O1515759   2.851   1.002   1.735  0.0567 -0.2083 -0.1961
  193MOL    H1615760   2.927   0.881   1.865 -2.2757 -0.2147 -0.4689
  193MOL    H1715761   3.022   1.030   1.836  0.8336 -1.1715  0.3095
  193MOL    C1815762   2.877   1.125   1.672 -0.1525  0.1176  0.3992
  193MOL    O1915763   2.996   1.104   1.595  0.4021  0.1453 -0.5690
  193MOL    H2015764   2.894   1.211   1.737 -1.3166  0.4725  0.2523
  193MOL    H2115765   2.799   1.150   1.600 -0.4946  0.0558  0.7430
  193MOL    C2215766   3.037   1.211   1.517  0.6517  0.6642  0.2373
  193MOL    O2315767   2.958   1.213   1.403  0.0323  0.3268 -0.4924
  193MOL    H2415768   3.143   1.199   1.494  0.2621  1.7926 -2.3613
  193MOL    H2515769   3.031   1.306   1.571  0.7786  1.2830 -0.8093
  193MOL    C2615770   2.985   1.311   1.316 -0.2907  0.2966 -0.1991
  193MOL    O2715771   3.118   1.312   1.277  0.9277  0.3893 -0.0354
  193MOL    H2815772   2.970   1.410   1.359 -1.5183  0.6695 -1.4724
  193MOL    H2915773   2.927   1.303   1.224 -0.2389 -0.1051 -0.1995
  193MOL    C3015774   3.143   1.199   1.203 -0.2252  0.4268  0.3872
  193MOL    O3115775   3.101   1.215   1.072 -0.4136 -0.5457 -0.1084
  193MOL    H3215776   3.117   1.108   1.257 -2.2156  0.5315 -0.3602
  193MOL    H3315777   3.251   1.187   1.204 -0.2571  0.1270  0.3337
  193MOL    C3415778   3.126   1.102   0.994 -0.0021  0.1015  0.3623
  193MOL    O3515779   3.255   1.099   0.948  0.4349 -0.2062  0.2361
  193MOL    H3615780   3.054   1.112   0.913  1.4164 -0.8367 -1.0358
  193MOL    H3715781   3.108   1.012   1.054  0.3676 -0.2374 -0.0361
  193MOL    C3815782   3.277   1.187   0.843 -0.5347  1.0784 -0.4134
  193MOL    O3915783   3.408   1.180   0.794 -0.1290 -0.4423 -0.4088
  193MOL    H4015784   3.243   1.287   0.867  1.4085  1.8923 -0.9570
  193MOL    H4115785   3.208   1.149   0.767 -0.1096  0.4410 -0.4889
  193MOL    C4215786   3.498   1.229   0.886  0.1116 -0.1234 -0.2254
  193MOL    O4315787   3.498   1.367   0.892 -0.7022  0.1074  0.3572
  193MOL    H4415788   3.595   1.190   0.853 -0.7669 -1.7873 -0.8970
  193MOL    H4515789   3.478   1.181   0.982  0.9057 -0.8433 -0.4143
  193MOL    C4615790   3.593   1.432   0.805  1.0506 -0.6345  0.2974
  193MOL    O4715791   3.577   1.412   0.669 -0.3180  0.1742 -0.6919
  193MOL    H4815792   3.695   1.408   0.836  1.0017  0.0431  0.9833
  193MOL    H4915793   3.586   1.538   0.828 -0.3264 -1.2413  2.9060
  193MOL    C5015794   3.458   1.453   0.618  0.9175 -0.5791 -0.0343
  193MOL    O5115795   3.447   1.423   0.479  0.5000 -0.4984  0.2548
  193MOL    H5215796   3.449   1.560   0.637  0.7848 -0.9795  2.3120
  193MOL    H5315797   3.378   1.416   0.682  0.6523  1.1171  0.6582
  193MOL    C5415798   3.420   1.291   0.451  0.5330  0.1066 -0.4727
  193MOL    O5515799   3.288   1.258   0.430  0.0773 -0.2354 -0.2860
  193MOL    H5615800   3.450   1.234   0.539 -1.4083  0.7642  0.6507
  193MOL    H5715801   3.483   1.259   0.369 -0.8039 -0.5068 -1.2856
  193MOL    C5815802   3.253   1.293   0.301  0.7292  1.4641 -0.5266
  193MOL    O5915803   3.133   1.234   0.283  0.6597  0.3276 -0.0583
  193MOL    H6015804   3.332   1.297   0.226 -0.2658 -0.9978 -1.7639
  193MOL    H6115805   3.213   1.392   0.322 -4.3002 -0.2105 -1.4660
  193MOL    C6215806   3.150   1.101   0.283  0.0891  0.3780  0.4397
  193MOL    O6315807   3.029   1.029   0.234  0.3007 -0.1423 -0.0827
  193MOL    H6415808   3.176   1.064   0.383  0.9903  1.0806  0.4656
  193MOL    H6515809   3.229   1.080   0.212 -1.6073 -0.3052 -1.2943
  193MOL    C6615810   3.009   1.057   0.099 -0.0864  0.1496  0.0060
  193MOL    O6715811   3.096   0.993   0.011  0.0418 -0.1461  0.3203
  193MOL    H6815812   2.995   1.163   0.080  0.5944  0.4200  1.0163
  193MOL    H6915813   2.909   1.017   0.088  0.0110 -0.2977  0.6909
  193MOL    C7015814   3.058   0.862   7.765 -0.5608  0.3214 -0.0349
  193MOL    O7115815   2.957   0.864   7.668  0.4843 -0.1073 -0.3700
  193MOL    H7215816   3.022   0.814   0.072 -1.3594 -0.2388 -0.6476
  193MOL    H7315817   3.132   0.791   7.728  0.8012  0.1494  2.8622
  193MOL    C7415818   2.996   0.919   7.543  0.0982  0.4997 -0.0784
  193MOL    O7515819   2.969   0.822   7.443 -0.2542 -0.2153 -0.0790
  193MOL    H7615820   3.100   0.953   7.544  0.3913 -0.3824  1.9989
  193MOL    H7715821   2.926   1.002   7.533  1.3812  1.4472 -1.6802
  193MOL    C7815822   3.045   0.709   7.430 -0.4461 -0.1199  1.0207
  193MOL    O7915823   3.167   0.735   7.360  0.5626 -0.4241  0.1130
  193MOL    H8015824   2.983   0.642   7.370  0.1698  0.8563 -0.7607
  193MOL    H8115825   3.072   0.672   7.529 -1.9224  0.7696  1.7677
  193MOL    H8215826   3.138   0.741   7.270 -3.0528 -1.3992  1.1166
  194MOL     C115827   5.013   2.460   2.475 -0.6387 -0.4415  0.8178
  194MOL     O215828   5.038   2.393   2.353 -0.9650 -0.2572 -0.2703
  194MOL     H315829   5.002   2.567   2.459  0.0251 -0.3862  0.7347
  194MOL     H415830   4.909   2.434   2.498 -1.0538 -0.0919 -0.6296
  194MOL     H515831   5.088   2.451   2.553  0.7939 -0.3222 -0.5268
  194MOL     C615832   5.163   2.434   2.305 -0.4064  0.0295  0.3499
  194MOL     O715833   5.149   2.561   2.262 -0.1771  0.2070 -0.2765
  194MOL     H815834   5.206   2.360   2.239  0.1102  1.1988 -0.6433
  194MOL     H915835   5.237   2.438   2.385 -0.4179 -0.2911  0.3766
  194MOL    C1015836   5.051   2.577   2.160  0.3203  0.3975 -0.1601
  194MOL    O1115837   5.086   2.501   2.051  0.1648  0.2137  0.3018
  194MOL    H1215838   5.042   2.682   2.131  0.7653  0.2011 -1.0298
  194MOL    H1315839   4.957   2.543   2.204  0.5446  1.6470  1.3085
  194MOL    C1415840   5.201   2.553   1.989  0.6313 -0.0513 -0.1298
  194MOL    O1515841   5.176   2.675   1.927  0.3658  0.0805  0.0132
  194MOL    H1615842   5.244   2.475   1.926  0.9384 -0.4210  0.5356
  194MOL    H1715843   5.279   2.565   2.063 -0.7256  1.9624  0.9956
  194MOL    C1815844   5.107   2.644   1.810 -0.1523  0.2646 -0.1762
  194MOL    O1915845   5.185   2.571   1.725  0.0513  0.2161 -0.2078
  194MOL    H2015846   5.065   2.736   1.772  1.9092  1.5459  0.5580
  194MOL    H2115847   5.017   2.587   1.832  0.8942 -1.2928  0.2195
  194MOL    C2215848   5.253   2.649   1.627  0.0684 -0.1844 -0.4712
  194MOL    O2315849   5.382   2.598   1.604 -0.0446 -0.2406 -0.5988
  194MOL    H2415850   5.268   2.753   1.654  0.0378 -0.3051  0.0195
  194MOL    H2515851   5.206   2.642   1.529 -1.9376  0.8934  0.3791
  194MOL    C2615852   5.478   2.630   1.697  0.1670 -0.1369  0.2953
  194MOL    O2715853   5.604   2.604   1.646  0.7427 -0.9692 -0.0924
  194MOL    H2815854   5.457   2.561   1.778 -2.7487  0.3594 -0.0082
  194MOL    H2915855   5.485   2.734   1.727  1.0424 -0.0127 -0.3114
  194MOL    C3015856   5.655   2.702   1.561  0.4340  0.3998 -0.6785
  194MOL    O3115857   5.606   2.681   1.434 -0.0054  0.1773  0.0414
  194MOL    H3215858   5.763   2.698   1.574  0.1715  1.5581  2.1072
  194MOL    H3315859   5.625   2.805   1.580  0.7085  0.5094 -0.8313
  194MOL    C3415860   5.699   2.722   1.328  0.3561  0.1583 -0.5992
  194MOL    O3515861   5.731   2.855   1.346 -0.1828 -0.4281  0.0664
  194MOL    H3615862   5.639   2.720   1.237  0.6152 -1.7509 -0.7461
  194MOL    H3715863   5.784   2.654   1.329 -1.1181 -1.7226 -0.9102
  194MOL    C3815864   5.836   2.894   1.261  0.0506  0.6645  0.0700
  194MOL    O3915865   5.941   2.809   1.261 -0.1924 -0.0225 -0.1970
  194MOL    H4015866   5.868   2.994   1.292  0.9588  0.6193 -0.6925
  194MOL    H4115867   5.799   2.898   1.158  0.0732  1.7467  0.0896
  194MOL    C4215868   6.035   2.845   1.169 -0.2120 -0.0512  0.1630
  194MOL    O4315869   5.994   2.816   1.038 -0.5858 -0.5344  0.1179
  194MOL    H4415870   6.136   2.808   1.186  0.5083  1.3007 -1.0915
  194MOL    H4515871   6.054   2.952   1.164  0.7726 -0.2432 -0.3265
  194MOL    C4615872   6.000   2.685   1.022 -0.0816 -0.5652  0.2846
  194MOL    O4715873   6.001   2.655   0.893  0.2997  0.3950  0.0103
  194MOL    H4815874   5.903   2.647   1.054 -0.0731 -1.4167 -0.6499
  194MOL    H4915875   6.081   2.631   1.071 -1.1032 -1.7649  0.6913
  194MOL    C5015876   6.125   2.663   0.830  0.5553 -0.4765  0.6233
  194MOL    O5115877   6.102   2.641   0.694 -0.2712  0.0622 -0.0505
  194MOL    H5215878   6.192   2.585   0.865  0.1284 -2.2852 -2.4497
  194MOL    H5315879   6.170   2.762   0.842 -0.9252  0.5961 -2.0798
  194MOL    C5415880   6.207   2.689   0.615 -0.1941 -0.3187  0.1384
  194MOL    O5515881   6.206   2.829   0.613  0.5577 -0.0473 -0.2009
  194MOL    H5615882   6.203   2.644   0.516  0.5734  0.4347 -0.2356
  194MOL    H5715883   6.303   2.654   0.651  0.0471 -0.3058 -0.4914
  194MOL    C5815884   6.103   2.878   0.544  0.0408  0.1966 -0.7610
  194MOL    O5915885   6.124   2.860   0.404 -0.0893 -0.2201  0.2911
  194MOL    H6015886   6.085   2.985   0.556 -0.6576 -0.0783  0.7834
  194MOL    H6115887   6.009   2.829   0.570 -0.8417  1.1381 -2.1149
  194MOL    C6215888   6.231   2.928   0.356  0.2346 -0.3127  0.1634
  194MOL    O6315889   6.216   3.072   0.361  0.1286 -0.3463 -0.0514
  194MOL    H6415890   6.256   2.898   0.254  0.4962 -1.4266  0.5556
  194MOL    H6515891   6.321   2.897   0.409 -0.1613 -1.4914  0.1486
  194MOL    C6615892   6.107   3.139   0.298 -0.1115  0.0138 -0.1031
  194MOL    O6715893   6.136   3.158   0.161 -0.3114 -0.6696 -0.1088
  194MOL    H6815894   6.110   3.239   0.340  0.5477  1.2481 -2.9970
  194MOL    H6915895   6.009   3.091   0.306 -1.0758  2.1059  1.0125
  194MOL    C7015896   6.221   3.263   0.130  0.6783 -0.2690  0.3236
  194MOL    O7115897   6.170   3.388   0.158  0.1192  0.3662  0.0296
  194MOL    H7215898   6.236   3.265   0.022  0.1827 -0.0916  0.2549
  194MOL    H7315899   6.315   3.249   0.182  1.7921 -0.0586 -1.5676
  194MOL    C7415900   6.053   3.407   0.088 -0.4827  0.1838  0.9326
  194MOL    O7515901   6.075   3.452   7.744 -0.7329 -0.5150  0.1267
  194MOL    H7615902   6.010   3.498   0.130  0.4909  0.4194  1.4476
  194MOL    H7715903   5.981   3.328   0.106 -0.9442  0.5108  0.5205
  194MOL    C7815904   5.960   3.448   7.668 -0.3124 -0.6328  0.6763
  194MOL    O7915905   5.963   3.529   7.556 -0.3552  0.2748  0.3127
  194MOL    H8015906   5.875   3.488   7.723 -0.6786  0.9906 -1.0254
  194MOL    H8115907   5.938   3.350   7.626  0.4220 -0.0527 -1.0923
  194MOL    H8215908   6.030   3.499   7.497  0.5088  0.1374  1.3458
  195MOL     C115909   2.759   6.323   3.096  0.8326  0.6950  0.8324
  195MOL     O215910   2.754   6.452   3.035  0.8523  0.0242 -0.2519
  195MOL     H315911   2.730   6.328   3.201  1.2767  1.5760  0.9179
  195MOL     H415912   2.683   6.258   3.050  2.1399  1.2042 -2.1930
  195MOL     H515913   2.862   6.287   3.094  0.8987  0.9008  0.0255
  195MOL     C615914   2.816   6.541   3.116  0.2982  0.1158  0.5499
  195MOL     O715915   2.751   6.561   3.241 -0.1285 -0.0191 -0.0006
  195MOL     H815916   2.828   6.640   3.072 -1.4570  0.6358  1.2367
  195MOL     H915917   2.920   6.513   3.134  1.0842  2.5840  0.0997
  195MOL    C1015918   2.612   6.590   3.216 -0.6910 -0.5162 -0.1307
  195MOL    O1115919   2.591   6.701   3.138  0.3959 -0.4493 -0.6856
  195MOL    H1215920   2.569   6.591   3.316  0.7549  0.1352  0.4920
  195MOL    H1315921   2.552   6.509   3.174 -1.4448  0.0495 -0.1621
  195MOL    C1415922   2.593   6.820   3.203  0.2227  0.0938  0.7775
  195MOL    O1515923   2.478   6.838   3.270 -0.0317  0.6491 -0.3321
  195MOL    H1615924   2.601   6.906   3.136  0.4959 -0.2480  0.3723
  195MOL    H1715925   2.683   6.830   3.264  1.2523 -2.5513 -0.2439
  195MOL    C1815926   2.476   6.950   3.353 -0.8148  0.5532  1.0982
  195MOL    O1915927   2.352   6.977   3.404  0.1753 -0.5500  0.7280
  195MOL    H2015928   2.504   7.045   3.306  2.0138 -0.5447  0.4379
  195MOL    H2115929   2.552   6.953   3.432 -0.1958 -0.4468  0.5508
  195MOL    C2215930   2.321   6.899   3.514  0.5817 -0.1061 -0.0159
  195MOL    O2315931   2.401   6.938   3.618  0.1675  0.4548 -0.2912
  195MOL    H2415932   2.336   6.793   3.494 -0.4205 -0.4885  1.1897
  195MOL    H2515933   2.214   6.908   3.534  0.4414 -0.2372 -0.6987
  195MOL    C2615934   2.365   6.887   3.744  0.1250  0.3073  0.0069
  195MOL    O2715935   2.231   6.910   3.771  0.2832 -0.1322 -0.0590
  195MOL    H2815936   2.430   6.938   3.814 -2.1847  2.6272  0.5386
  195MOL    H2915937   2.381   6.779   3.752  0.3266  0.2267 -1.3944
  195MOL    C3015938   2.205   7.044   3.777 -0.2764 -0.5928 -0.1840
  195MOL    O3115939   2.227   7.104   3.896 -0.3832 -0.4393 -0.2847
  195MOL    H3215940   2.099   7.051   3.753 -0.4178  2.9120  1.2556
  195MOL    H3315941   2.262   7.105   3.707 -0.3883  0.7018  0.8452
  195MOL    C3415942   2.148   7.062   3.998  0.1560  0.1058 -0.4566
  195MOL    O3515943   2.208   6.947   4.056 -0.0903  0.2637 -0.2255
  195MOL    H3615944   2.045   7.037   3.969  0.3174 -2.1716  0.8740
  195MOL    H3715945   2.139   7.150   4.061  0.4072 -0.3115  0.1590
  195MOL    C3815946   2.301   6.991   4.148  0.3148 -0.1992  0.0818
  195MOL    O3915947   2.250   7.073   4.250  0.2865  0.0442 -0.8831
  195MOL    H4015948   2.383   7.044   4.101 -1.5337  2.5583 -0.1673
  195MOL    H4115949   2.343   6.906   4.203  1.5090  1.4945  1.8363
  195MOL    C4215950   2.176   6.996   4.340 -0.6269 -0.0874 -1.0512
  195MOL    O4315951   2.262   6.903   4.416  0.3725  0.4371  0.0595
  195MOL    H4415952   2.099   6.943   4.285  0.9438 -1.9201 -1.5297
  195MOL    H4515953   2.129   7.076   4.397  1.1569 -0.5079  1.0833
  195MOL    C4615954   2.186   6.861   4.525  0.6619  0.4430 -0.1337
  195MOL    O4715955   2.193   6.947   4.632 -0.1314 -0.4142  0.4230
  195MOL    H4815956   2.225   6.767   4.564  2.1063  1.0931  0.0158
  195MOL    H4915957   2.082   6.843   4.499  0.6555 -0.1581  0.2871
  195MOL    C5015958   2.094   6.922   4.730  0.4618 -0.2193  0.1374
  195MOL    O5115959   1.966   6.976   4.694  0.4661  0.3588 -0.2850
  195MOL    H5215960   2.123   6.949   4.831 -1.9621 -0.9393  1.0657
  195MOL    H5315961   2.074   6.815   4.731 -0.2728 -0.0854  0.0204
  195MOL    C5415962   1.957   7.115   4.725  0.7377 -0.5248  0.3880
  195MOL    O5515963   1.947   7.130   4.865 -0.2677  0.3636  0.0778
  195MOL    H5615964   1.877   7.172   4.678  0.0269 -2.5957 -0.9822
  195MOL    H5715965   2.043   7.163   4.680 -2.6065  1.6731 -4.0572
  195MOL    C5815966   1.828   7.085   4.927 -0.1709 -0.5128  0.5160
  195MOL    O5915967   1.715   7.155   4.881 -0.2137  0.6503  0.2193
  195MOL    H6015968   1.839   7.080   5.036  0.3829 -1.0957  0.4350
  195MOL    H6115969   1.813   6.987   4.882  0.6125 -0.4698  0.1615
  195MOL    C6215970   1.706   7.290   4.931 -0.0474 -0.0935  0.1615
  195MOL    O6315971   1.707   7.290   5.071  0.1304  0.6186 -0.1319
  195MOL    H6415972   1.613   7.333   4.895  0.1213 -0.2573 -0.4882
  195MOL    H6515973   1.788   7.350   4.890 -0.0650  0.2857  0.6880
  195MOL    C6615974   1.768   7.397   5.126 -0.9488  0.2825  0.2717
  195MOL    O6715975   1.913   7.397   5.094 -0.6795 -0.3068  0.6680
  195MOL    H6815976   1.737   7.407   5.230 -0.2713 -1.6050  0.6901
  195MOL    H6915977   1.741   7.489   5.075  0.1719  0.2025 -0.4969
  195MOL    C7015978   1.981   7.352   5.208  0.5226 -0.8619  0.4916
  195MOL    O7115979   1.968   7.436   5.318  0.4108  0.0936  0.2512
  195MOL    H7215980   2.086   7.343   5.180  0.7359 -2.3655  1.7017
  195MOL    H7315981   1.952   7.252   5.241 -1.0119 -1.0215 -1.3053
  195MOL    C7415982   2.025   7.564   5.286 -0.3900 -0.8221 -0.5629
  195MOL    O7515983   2.114   7.615   5.383 -0.5891 -0.2490  0.0409
  195MOL    H7615984   1.938   7.627   5.270 -3.6914 -5.0534 -0.2501
  195MOL    H7715985   2.091   7.558   5.200  1.8104 -1.8244  1.1138
  195MOL    C7815986   2.051   7.661   5.497  0.2472 -0.1506 -0.2066
  195MOL    O7915987   2.136   7.664   5.601  0.1608  0.1657 -0.5290
  195MOL    H8015988   1.976   7.588   5.527 -0.3396 -0.4453 -2.3077
  195MOL    H8115989   2.003   7.759   5.501  2.5041  0.9836  0.2904
  195MOL    H8215990   2.109   7.598   5.663 -2.1016  0.4081 -1.1961
  196MOL     C115991   1.497   4.752   0.946 -0.2599  0.4520 -0.4822
  196MOL     O215992   1.556   4.853   0.871 -0.0088 -0.7496  0.6683
  196MOL     H315993   1.517   4.665   0.885 -1.5752  0.2797 -0.6785
  196MOL     H415994   1.523   4.748   1.052 -1.6171  1.2254 -0.1006
  196MOL     H515995   1.392   4.782   0.939 -0.4221  0.2349  0.7673
  196MOL     C615996   1.691   4.856   0.890  0.3329  0.0727  0.4496
  196MOL     O715997   1.764   4.779   0.798  0.4284  0.2993  0.1388
  196MOL     H815998   1.721   4.815   0.986 -1.1187  0.5985  1.1392
  196MOL     H915999   1.717   4.961   0.904 -0.7130  0.3495  0.3985
  196MOL    C1016000   1.798   4.860   0.687  0.1849 -0.3706  0.1038
  196MOL    O1116001   1.879   4.967   0.730  0.4656 -0.0248 -0.0470
  196MOL    H1216002   1.703   4.901   0.651  0.7162  0.4870 -0.3393
  196MOL    H1316003   1.838   4.806   0.601 -0.9126  0.8080 -1.1755
  196MOL    C1416004   2.008   4.920   0.761 -0.0674 -0.1422 -0.3675
  196MOL    O1516005   2.069   4.847   0.661 -0.0419 -0.2041 -0.3097
  196MOL    H1616006   1.995   4.853   0.845 -1.3202 -1.9975 -1.9943
  196MOL    H1716007   2.084   4.995   0.782  2.3243 -2.6489  0.1927
  196MOL    C1816008   2.097   4.912   0.540 -0.5646 -0.1604 -0.2134
  196MOL    O1916009   2.202   5.003   0.550  0.4991 -0.0961 -0.1226
  196MOL    H2016010   2.017   4.981   0.512  0.6324  0.8043 -1.3048
  196MOL    H2116011   2.108   4.832   0.467  5.2395 -0.1832  0.4914
  196MOL    C2216012   2.255   5.027   0.425  0.1757 -0.1373  0.2950
  196MOL    O2316013   2.338   4.919   0.392 -0.2402 -0.1319  0.3953
  196MOL    H2416014   2.311   5.120   0.419 -0.7663  0.3179 -2.0254
  196MOL    H2516015   2.175   5.041   0.351 -0.7704 -0.3755  1.2630
  196MOL    C2616016   2.460   4.923   0.454 -0.1200  0.0066 -0.7919
  196MOL    O2716017   2.551   4.965   0.355  0.4791 -0.5690 -0.0525
  196MOL    H2816018   2.497   4.824   0.482  1.3528  1.0500  1.1209
  196MOL    H2916019   2.478   4.978   0.547 -1.4732 -2.6273  1.0745
  196MOL    C3016020   2.608   5.090   0.376  0.1485  0.9064  0.0569
  196MOL    O3116021   2.688   5.099   0.496 -0.4709 -0.3012 -0.7456
  196MOL    H3216022   2.539   5.174   0.379 -3.4919 -1.9202 -0.3465
  196MOL    H3316023   2.665   5.101   0.283 -2.1341 -1.4470 -1.7001
  196MOL    C3416024   2.811   5.040   0.490 -0.0373  0.4207  0.0576
  196MOL    O3516025   2.886   5.092   0.391  0.2007  0.5191  0.3739
  196MOL    H3616026   2.824   4.934   0.471 -0.4094  0.7168 -1.9093
  196MOL    H3716027   2.873   5.051   0.579  0.4913  0.3236 -0.2961
  196MOL    C3816028   2.921   5.223   0.410  0.1872 -0.5559  0.3103
  196MOL    O3916029   2.998   5.266   0.303  0.3212  0.1515  0.8473
  196MOL    H4016030   2.984   5.233   0.499  0.3409 -1.8112  0.3517
  196MOL    H4116031   2.833   5.283   0.431 -0.8151 -2.1838  0.8718
  196MOL    C4216032   2.929   5.280   0.182  0.3524 -0.0691  0.8812
  196MOL    O4316033   2.888   5.409   0.168 -0.0500  0.0959 -0.4557
  196MOL    H4416034   2.838   5.220   0.177  1.1254 -1.1322 -0.8516
  196MOL    H4516035   2.992   5.251   0.098 -0.1594  0.2545  0.3801
  196MOL    C4616036   2.991   5.496   0.129 -0.1142  0.0588  0.7747
  196MOL    O4716037   3.012   5.498   7.770  0.1332  0.2638 -0.5824
  196MOL    H4816038   3.084   5.479   0.183 -0.3147 -1.1418  0.7632
  196MOL    H4916039   2.960   5.592   0.170  0.6818 -0.1797  1.9557
  196MOL    C5016040   2.911   5.550   7.699  0.1018  0.2978  0.3438
  196MOL    O5116041   2.919   5.693   7.695 -0.0952 -0.2112 -0.6025
  196MOL    H5216042   2.813   5.533   7.744  1.0576 -1.9138  1.6224
  196MOL    H5316043   2.915   5.511   7.598 -0.3702 -0.4468  0.6112
  196MOL    C5416044   3.021   5.739   7.618  0.5253  0.1458  0.1763
  196MOL    O5516045   3.051   5.876   7.623  0.1484 -0.4232  0.5757
  196MOL    H5616046   3.009   5.711   7.514  0.3255 -0.2537  0.3048
  196MOL    H5716047   3.109   5.681   7.647  1.5062  0.8486 -1.3517
  196MOL    C5816048   2.945   5.956   7.588  0.4739  0.1549  0.2037
  196MOL    O5916049   2.911   5.944   7.452 -0.5322 -0.0987 -0.3097
  196MOL    H6016050   2.978   6.058   7.608 -2.2390  0.8809  1.1210
  196MOL    H6116051   2.856   5.947   7.650  0.0943 -1.0467 -0.4964
  196MOL    C6216052   2.990   6.020   7.361  0.0380  0.3777  0.7911
  196MOL    O6316053   2.951   6.153   7.363  0.0503  0.0182 -0.2697
  196MOL    H6416054   2.989   5.979   7.260  0.3665  0.5953  0.6965
  196MOL    H6516055   3.097   6.017   7.382 -0.0195 -0.7308  0.9862
  196MOL    C6616056   3.054   6.233   7.309  0.3104 -0.1174 -0.5800
  196MOL    O6716057   3.165   6.256   7.393  0.1862 -0.1517 -0.5464
  196MOL    H6816058   3.014   6.332   7.285  0.6584 -0.3285 -2.1085
  196MOL    H6916059   3.081   6.193   7.212 -0.6121  1.6392 -1.5937
  196MOL    C7016060   3.147   6.347   7.498 -0.1812 -0.3205  0.1793
  196MOL    O7116061   3.056   6.307   7.594  0.5062  0.3158  0.1112
  196MOL    H7216062   3.125   6.443   7.452 -1.9576 -0.4472  0.7140
  196MOL    H7316063   3.242   6.354   7.550 -1.5787  1.8889  2.5314
  196MOL    C7416064   3.064   6.385   7.711 -0.7012  0.4789 -0.1682
  196MOL    O7516065   3.011   6.509   7.687  0.6895 -0.5248  0.0923
  196MOL    H7616066   3.165   6.402   7.748 -0.6417 -1.3256  0.5526
  196MOL    H7716067   3.010   6.355   0.017  1.4921  2.2360  1.8155
  196MOL    C7816068   2.888   6.509   7.625 -0.6743 -0.4485  0.3561
  196MOL    O7916069   2.839   6.641   7.621  0.1562  0.4067  0.3341
  196MOL    H8016070   2.828   6.449   7.694 -0.4927  0.2551  1.1333
  196MOL    H8116071   2.879   6.467   7.524  2.6724  0.5331 -0.4049
  196MOL    H8216072   2.884   6.683   7.549 -0.2091 -1.9701 -1.3546
  197MOL     C116073   5.319   3.326   2.665  0.0156 -0.1623  0.5986
  197MOL     O216074   5.268   3.454   2.692 -0.2782 -0.3549 -0.3297
  197MOL     H316075   5.232   3.261   2.658  0.5413 -0.8501  0.4177
  197MOL     H416076   5.387   3.326   2.580 -0.5647 -2.2325  0.1176
  197MOL     H516077   5.390   3.289   2.739 -0.4022  0.6096  1.3995
  197MOL     C616078   5.249   3.489   2.822  0.1261  0.0952  0.4868
  197MOL     O716079   5.362   3.465   2.902 -0.4397 -0.1098  0.2729
  197MOL     H816080   5.164   3.428   2.854 -1.4267  1.9925  0.0783
  197MOL     H916081   5.206   3.589   2.823  2.2755  1.0578  1.2622
  197MOL    C1016082   5.455   3.562   2.894  0.3715 -0.1751  0.3287
  197MOL    O1116083   5.402   3.684   2.939  0.1637  0.2291 -0.3105
  197MOL    H1216084   5.489   3.565   2.790  0.8383  1.7617  0.5264
  197MOL    H1316085   5.541   3.551   2.959 -0.5692 -1.4063  1.3756
  197MOL    C1416086   5.449   3.798   2.870  0.2271  0.1377 -0.3441
  197MOL    O1516087   5.588   3.811   2.885  0.0213  0.1590  0.2816
  197MOL    H1616088   5.396   3.887   2.903 -1.2974 -0.8154 -0.1944
  197MOL    H1716089   5.428   3.783   2.764  2.8993  1.4866 -1.1029
  197MOL    C1816090   5.630   3.846   3.011 -0.2616 -0.3177  0.3509
  197MOL    O1916091   5.770   3.882   2.993  0.2585  0.1331  0.1483
  197MOL    H2016092   5.618   3.761   3.079  0.5863  0.0630  0.9882
  197MOL    H2116093   5.582   3.939   3.040 -0.9098 -0.8722  1.0645
  197MOL    C2216094   5.850   3.773   2.992 -1.0084  0.9712  0.9132
  197MOL    O2316095   5.863   3.728   3.124  0.5928  0.5733 -0.2307
  197MOL    H2416096   5.948   3.810   2.961 -0.9412 -0.2447 -0.4238
  197MOL    H2516097   5.820   3.694   2.923  1.5304  0.4291  0.3543
  197MOL    C2616098   5.885   3.593   3.138  0.0787 -0.0077  0.4305
  197MOL    O2716099   6.022   3.569   3.129  0.0603 -0.3423  0.0011
  197MOL    H2816100   5.837   3.538   3.057 -1.7050  1.0077  0.7612
  197MOL    H2916101   5.854   3.565   3.239  1.1078  0.8070  0.9805
  197MOL    C3016102   6.106   3.661   3.190  0.1710  0.3106  0.0309
  197MOL    O3116103   6.223   3.606   3.238  0.3593  0.0350  0.0744
  197MOL    H3216104   6.058   3.717   3.270  2.0969 -1.3735  2.4748
  197MOL    H3316105   6.129   3.737   3.116  3.6000  0.8401  1.5368
  197MOL    C3416106   6.200   3.521   3.349  0.0683 -0.0958  0.1088
  197MOL    O3516107   6.159   3.591   3.460  0.0727 -0.1743 -0.2963
  197MOL    H3616108   6.294   3.478   3.386  0.3024  2.0905  2.1615
  197MOL    H3716109   6.133   3.436   3.334  0.3091 -0.5144  1.3798
  197MOL    C3816110   6.256   3.679   3.512 -0.0500  0.4601  0.2497
  197MOL    O3916111   6.365   3.618   3.580  0.1121  0.0570 -0.1861
  197MOL    H4016112   6.206   3.737   3.590 -1.2034 -1.8465  1.2793
  197MOL    H4116113   6.296   3.741   3.432  0.8248 -0.3676  0.0386
  197MOL    C4216114   6.339   3.562   3.706  0.6543  0.1763 -0.8130
  197MOL    O4316115   6.332   3.661   3.804 -0.8554 -0.1720 -0.4582
  197MOL    H4416116   6.419   3.493   3.734  0.1005  0.5802  1.8507
  197MOL    H4516117   6.248   3.503   3.699  1.6697 -1.3920 -1.2166
  197MOL    C4616118   6.454   3.716   3.838 -0.0653 -0.3933  0.6181
  197MOL    O4716119   6.534   3.620   3.896  0.4368 -0.0083  0.0867
  197MOL    H4816120   6.447   3.787   3.921  1.7697  1.2654 -0.6022
  197MOL    H4916121   6.501   3.765   3.752 -1.2193  0.0601  0.2351
  197MOL    C5016122   6.500   3.587   4.028 -0.0303 -0.2895  0.1354
  197MOL    O5116123   6.564   3.673   4.118  0.3777  0.2067  0.6941
  197MOL    H5216124   6.525   3.481   4.042  2.1573  0.1164 -0.4569
  197MOL    H5316125   6.393   3.593   4.044 -0.5884 -0.5096 -3.1915
  197MOL    C5416126   6.698   3.653   4.140 -0.6331  0.1339 -0.4433
  197MOL    O5516127   6.774   3.716   4.046 -0.2122  0.0082 -0.3503
  197MOL    H5616128   6.710   3.544   4.136 -0.5787  0.0258  1.7323
  197MOL    H5716129   6.728   3.684   4.240  0.0634  0.8589 -0.8743
  197MOL    C5816130   6.772   3.853   4.075  0.0060  0.5729  0.2360
  197MOL    O5916131   6.842   3.878   4.189  0.0290  0.2587 -0.8991
  197MOL    H6016132   6.670   3.889   4.067  0.2271  0.9808 -0.8784
  197MOL    H6116133   6.831   3.876   3.985  0.1700 -0.8584 -0.0315
  197MOL    C6216134   6.873   4.001   4.219 -0.8183 -0.1869  0.5353
  197MOL    O6316135   6.975   4.043   4.131  0.4100 -0.0150 -0.3853
  197MOL    H6416136   6.899   4.005   4.325  2.4934  1.3901 -0.2705
  197MOL    H6516137   6.781   4.058   4.205  0.8768  2.0460 -1.9679
  197MOL    C6616138   6.993   4.183   4.129 -0.1826 -0.0579 -0.0141
  197MOL    O6716139   6.883   4.244   4.076 -0.0079  0.6118 -0.0863
  197MOL    H6816140   7.084   4.210   4.075 -0.5117  3.1149  0.9552
  197MOL    H6916141   7.015   4.210   4.232  0.5907 -0.6536 -0.0200
  197MOL    C7016142   6.872   4.225   3.944  0.1824  0.7548 -0.7368
  197MOL    O7116143   6.955   4.307   3.864 -0.4744  0.1135  0.1433
  197MOL    H7216144   6.769   4.250   3.919  0.7135  1.2034 -2.5908
  197MOL    H7316145   6.875   4.124   3.904 -0.9152  0.2449  0.4367
  197MOL    C7416146   6.940   4.284   3.726  0.5759 -0.0002 -0.0352
  197MOL    O7516147   6.819   4.321   3.664 -0.1423  0.0308  0.8951
  197MOL    H7616148   6.965   4.182   3.697  1.6406  0.5194 -0.9696
  197MOL    H7716149   7.019   4.345   3.682 -0.6442  0.4047 -1.7022
  197MOL    C7816150   6.804   4.460   3.661  0.4813 -0.3796  0.4172
  197MOL    O7916151   6.679   4.492   3.614  0.6605 -0.3485 -0.0445
  197MOL    H8016152   6.884   4.508   3.605 -1.1918  0.9798 -0.8773
  197MOL    H8116153   6.803   4.501   3.762 -2.6053 -0.4472  0.4740
  197MOL    H8216154   6.624   4.474   3.689 -0.5695 -0.5244 -0.9739
  198MOL     C116155   3.033   1.346   6.310  0.6169  0.4802  0.2074
  198MOL     O216156   3.159   1.381   6.368  0.7046  0.0559 -0.0236
  198MOL     H316157   3.033   1.364   6.203  0.5238  1.4383  0.3691
  198MOL     H416158   3.005   1.242   6.329  0.0095  0.8316  1.2973
  198MOL     H516159   2.957   1.403   6.363 -0.9404 -0.2389 -1.2034
  198MOL     C616160   3.171   1.344   6.500  0.6232 -0.4625  0.5673
  198MOL     O716161   3.282   1.398   6.565  0.2865 -0.2303  0.2479
  198MOL     H816162   3.149   1.239   6.519 -0.5794 -0.2903  0.1679
  198MOL     H916163   3.082   1.379   6.553 -0.2846  0.3465 -1.4249
  198MOL    C1016164   3.267   1.533   6.606  0.2422  0.1760  0.1183
  198MOL    O1116165   3.167   1.559   6.709 -0.1203  0.1110 -0.3600
  198MOL    H1216166   3.249   1.609   6.530 -0.2814  0.0627  0.1279
  198MOL    H1316167   3.359   1.568   6.654  0.0938 -0.4938  0.9041
  198MOL    C1416168   3.187   1.475   6.817  0.4678  0.1339  0.5253
  198MOL    O1516169   3.154   1.536   6.929 -0.6423 -0.0148  0.5075
  198MOL    H1616170   3.290   1.441   6.827  0.6039 -0.1374 -1.5643
  198MOL    H1716171   3.122   1.387   6.816 -0.6786  0.9406  1.7376
  198MOL    C1816172   3.018   1.565   6.941  0.4084  0.1998  0.0447
  198MOL    O1916173   2.938   1.451   6.950 -0.2578  0.4788  0.4570
  198MOL    H2016174   2.972   1.612   6.854 -3.5517 -0.3917  1.7222
  198MOL    H2116175   3.005   1.624   7.032  2.3404 -0.8768  1.0621
  198MOL    C2216176   2.958   1.376   7.068 -0.4457 -0.7575  0.3307
  198MOL    O2316177   3.069   1.292   7.055 -0.0191 -0.1314 -0.5447
  198MOL    H2416178   2.875   1.315   7.104 -0.1106 -1.8412 -0.7105
  198MOL    H2516179   2.979   1.442   7.153  1.1453  0.1568 -0.7543
  198MOL    C2616180   3.054   1.179   6.981  0.6247 -0.0477 -0.5881
  198MOL    O2716181   2.973   1.081   7.047  0.1969 -0.1331  0.4091
  198MOL    H2816182   3.150   1.128   6.970  0.1269 -0.8164 -1.3512
  198MOL    H2916183   3.017   1.200   6.881  1.9424  1.9184 -0.7171
  198MOL    C3016184   3.029   1.013   7.153  0.5219 -0.6976  0.3466
  198MOL    O3116185   3.107   0.902   7.114  0.2548  0.4967  0.2213
  198MOL    H3216186   2.950   0.978   7.219 -0.8054 -1.5297 -1.6576
  198MOL    H3316187   3.089   1.080   7.215  0.2017 -0.6639  0.6212
  198MOL    C3416188   3.023   0.805   7.055  0.6817 -0.1457  0.3381
  198MOL    O3516189   2.959   0.725   7.145 -0.2754 -0.3395 -0.0189
  198MOL    H3616190   3.094   0.744   6.999 -0.5058 -2.8581  1.6920
  198MOL    H3716191   2.951   0.834   6.978  0.9190 -0.6883 -0.0983
  198MOL    C3816192   2.880   0.627   7.088  0.4491  0.4435 -0.4219
  198MOL    O3916193   2.956   0.527   7.016  0.2420 -0.4090 -0.3486
  198MOL    H4016194   2.797   0.663   7.028  0.1327 -2.4529 -1.8437
  198MOL    H4116195   2.837   0.583   7.178 -0.1644 -2.1754 -1.9537
  198MOL    C4216196   2.884   0.410   6.996 -0.6404 -0.3883  0.2417
  198MOL    O4316197   2.812   0.418   6.876  0.1003  0.3056 -0.0763
  198MOL    H4416198   2.822   0.389   7.083 -2.1815 -0.0485 -0.7544
  198MOL    H4516199   2.963   0.338   6.974  1.6889  2.3666 -0.7523
  198MOL    C4616200   2.884   0.426   6.762 -0.1687  0.1526  0.1296
  198MOL    O4716201   2.962   0.315   6.742 -0.0847  0.1559 -0.4983
  198MOL    H4816202   2.940   0.519   6.759  0.7612 -0.1364  4.7066
  198MOL    H4916203   2.822   0.426   6.673  0.3692  0.0305 -0.2484
  198MOL    C5016204   3.041   0.323   6.630  0.3453  0.3398 -0.5391
  198MOL    O5116205   2.970   0.322   6.506  0.0230  0.3437 -0.3202
  198MOL    H5216206   3.115   0.243   6.635  0.6591  0.5195 -2.1349
  198MOL    H5316207   3.097   0.416   6.636 -1.0844  1.3877 -2.7526
  198MOL    C5416208   2.904   0.202   6.483  0.3801 -0.2464  0.2890
  198MOL    O5516209   2.987   0.093   6.450 -0.4306  0.0691 -0.6396
  198MOL    H5616210   2.850   0.225   6.391 -0.2459 -2.9286 -0.0657
  198MOL    H5716211   2.834   0.180   6.564  0.3440 -0.3149  0.2402
  198MOL    C5816212   3.076   0.118   6.346  0.5006 -0.0543  0.2278
  198MOL    O5916213   3.005   0.146   6.224  0.0472  0.1660 -0.0644
  198MOL    H6016214   3.147   0.035   6.344  0.2363 -0.2884  0.4866
  198MOL    H6116215   3.136   0.201   6.382  0.9279  0.3590 -1.4245
  198MOL    C6216216   2.914   0.048   6.182  0.0840  0.1666 -0.2405
  198MOL    O6316217   2.782   0.094   6.198  0.2103  0.0240 -0.3259
  198MOL    H6416218   2.934   7.740   6.237  0.8068  0.4909  0.0471
  198MOL    H6516219   2.937   0.049   6.075 -1.1308  1.9731 -0.5072
  198MOL    C6616220   2.749   0.187   6.099  0.2988  0.0977  0.3688
  198MOL    O6716221   2.727   0.133   5.968  0.1441  0.0903 -0.2476
  198MOL    H6816222   2.828   0.261   6.093 -0.7996  1.2913  0.5756
  198MOL    H6916223   2.661   0.241   6.134  0.1624 -0.6695  1.2333
  198MOL    C7016224   2.621   0.036   5.967 -0.0229  0.0345  0.8202
  198MOL    O7116225   2.504   0.102   5.987  0.3551 -0.0818 -0.0138
  198MOL    H7216226   2.628   7.761   6.059  0.6941 -0.4379  0.4669
  198MOL    H7316227   2.614   7.758   5.878  2.0375  0.6198  0.2404
  198MOL    C7416228   2.458   0.159   5.870 -0.3019 -0.2159 -0.4891
  198MOL    O7516229   2.436   0.059   5.778  0.1620 -0.3871  0.7689
  198MOL    H7616230   2.533   0.228   5.832 -1.6235  0.3485 -2.1161
  198MOL    H7716231   2.362   0.201   5.900 -0.2176 -0.4515  0.1244
  198MOL    C7816232   2.400   0.111   5.660  0.0725 -0.2463 -0.9502
  198MOL    O7916233   2.380   0.014   5.562  0.5356  0.0501  0.0348
  198MOL    H8016234   2.488   0.168   5.630  0.1513  0.4148  0.4732
  198MOL    H8116235   2.311   0.173   5.653  0.1908 -0.1201 -1.3514
  198MOL    H8216236   2.290   7.770   5.575  0.4475  1.2050  2.0336
  199MOL     C116237   0.473   5.447   1.398 -0.5485  0.3943  0.1448
  199MOL     O216238   0.464   5.329   1.483 -0.0736  0.0191  0.5617
  199MOL     H316239   0.540   5.515   1.449 -1.4978  1.7041 -0.3175
  199MOL     H416240   0.528   5.416   1.309  1.2524 -0.5058  1.5448
  199MOL     H516241   0.381   5.500   1.371 -3.1146 -2.5808  2.6749
  199MOL     C616242   0.387   5.352   1.597  0.4879  0.6133  0.0325
  199MOL     O716243   0.253   5.388   1.561  0.0947  0.1046  0.1616
  199MOL     H816244   0.414   5.438   1.658 -1.4669  0.8764  0.5910
  199MOL     H916245   0.370   5.269   1.666 -1.4967  1.8903  1.1528
  199MOL    C1016246   0.169   5.283   1.518  0.0443  0.5345 -0.4055
  199MOL    O1116247   0.077   5.237   1.618 -0.0938  0.4019  0.1228
  199MOL    H1216248   0.212   5.192   1.475 -1.1627 -0.3910  0.3133
  199MOL    H1316249   0.107   5.317   1.435  0.2700 -0.7107 -1.1076
  199MOL    C1416250   7.769   5.337   1.655  0.3860  0.3477 -0.0216
  199MOL    O1516251   7.718   5.316   1.782  0.1230 -0.4445  0.5282
  199MOL    H1616252   7.699   5.353   1.573 -0.3605  2.2939  0.9507
  199MOL    H1716253   0.049   5.425   1.664  0.6757  0.0652  0.7503
  199MOL    C1816254   7.604   5.235   1.789  0.4230  0.0838  0.0830
  199MOL    O1916255   7.499   5.277   1.707  0.2162 -0.4407  0.6633
  199MOL    H2016256   7.571   5.212   1.890 -1.4711 -1.5433 -0.8641
  199MOL    H2116257   7.647   5.143   1.749  0.6451  0.5911 -0.8601
  199MOL    C2216258   7.439   5.391   1.750  0.4229 -0.0142 -0.0189
  199MOL    O2316259   7.377   5.380   1.872 -0.2057  0.7006 -0.4147
  199MOL    H2416260   7.360   5.415   1.678 -2.1350 -1.9399  2.0414
  199MOL    H2516261   7.512   5.472   1.751  1.9776 -1.3768 -0.9376
  199MOL    C2616262   7.316   5.496   1.911 -0.1895  0.3818 -0.2404
  199MOL    O2716263   7.404   5.608   1.920  0.1237 -0.3130  0.3853
  199MOL    H2816264   7.253   5.485   1.999 -0.3193 -2.1307 -0.6238
  199MOL    H2916265   7.235   5.514   1.840  0.9704 -3.2219 -2.6314
  199MOL    C3016266   7.491   5.608   2.026 -0.4765 -0.3268  0.1611
  199MOL    O3116267   7.421   5.635   2.146 -0.5557 -0.2501 -0.2138
  199MOL    H3216268   7.565   5.685   2.004 -0.2900 -0.6462 -0.3258
  199MOL    H3316269   7.545   5.514   2.038  2.6234  1.2907 -0.4714
  199MOL    C3416270   7.426   5.771   2.175  0.3425 -0.0005  0.1426
  199MOL    O3516271   7.559   5.818   2.197 -0.0221 -0.6543  0.1840
  199MOL    H3616272   7.362   5.802   2.258  0.6246  1.8310 -0.2986
  199MOL    H3716273   7.387   5.828   2.090  0.6287  1.6471  1.0859
  199MOL    C3816274   7.604   5.768   2.317 -0.5473  0.0404  0.1562
  199MOL    O3916275   7.552   5.826   2.429  0.5614  0.2309 -0.3279
  199MOL    H4016276   7.712   5.749   2.320 -0.4817  0.5861  1.4759
  199MOL    H4116277   7.572   5.664   2.315  0.0747 -0.1459 -0.4122
  199MOL    C4216278   7.619   5.946   2.456 -0.9642 -0.1648 -0.6580
  199MOL    O4316279   7.757   5.925   2.497  0.1911 -0.1698  0.0657
  199MOL    H4416280   7.569   6.001   2.535  1.1417  1.0181 -0.1094
  199MOL    H4516281   7.631   6.010   2.368 -0.3960  0.2578 -0.2728
  199MOL    C4616282   7.771   5.918   2.635 -0.0946  0.3002  0.1235
  199MOL    O4716283   7.768   6.051   2.685  0.5522 -0.2673 -0.6108
  199MOL    H4816284   0.087   5.884   2.661 -0.5526  0.3389  2.0263
  199MOL    H4916285   7.692   5.858   2.680  2.2632 -2.1348  1.1280
  199MOL    C5016286   0.083   6.142   2.640 -0.3010 -0.2007  0.7419
  199MOL    O5116287   0.209   6.116   2.694 -0.0336  0.3828 -0.1954
  199MOL    H5216288   0.052   6.244   2.659  0.6480  0.4938 -1.2426
  199MOL    H5316289   0.086   6.129   2.532 -4.5274 -0.6007  0.5925
  199MOL    C5416290   0.307   6.081   2.602 -0.4167 -0.5529  0.5945
  199MOL    O5516291   0.333   6.181   2.503 -0.0004 -0.2962 -0.4832
  199MOL    H5616292   0.285   5.984   2.559  0.7897 -0.6273  0.1153
  199MOL    H5716293   0.398   6.053   2.655  0.0404  0.6546  0.4662
  199MOL    C5816294   0.380   6.301   2.552  0.2488 -0.3609  0.6215
  199MOL    O5916295   0.283   6.374   2.630 -0.5358  0.2017  0.2074
  199MOL    H6016296   0.401   6.370   2.470 -0.3642 -0.2587  0.5465
  199MOL    H6116297   0.475   6.283   2.604  0.6439  0.0862  0.0583
  199MOL    C6216298   0.344   6.459   2.712 -0.5783 -0.1967 -0.5576
  199MOL    O6316299   0.388   6.570   2.649 -0.3670 -0.0616  0.7848
  199MOL    H6416300   0.440   6.423   2.751 -0.2385  3.5123  2.3292
  199MOL    H6516301   0.284   6.487   2.799 -0.8366 -0.1509 -0.7532
  199MOL    C6616302   0.285   6.649   2.599  0.3304  0.3553  0.8873
  199MOL    O6716303   0.228   6.736   2.689 -0.2337 -0.1322 -0.4112
  199MOL    H6816304   0.220   6.578   2.548 -0.7613  0.7005  1.7712
  199MOL    H6916305   0.323   6.712   2.519  1.1342  1.4677  2.1253
  199MOL    C7016306   0.105   6.778   2.637  0.0084  1.2818  0.2562
  199MOL    O7116307   0.122   6.851   2.523 -0.2518  0.2681 -0.4836
  199MOL    H7216308   0.040   6.825   2.711 -0.7917  0.3946  0.1335
  199MOL    H7316309   0.057   6.685   2.606  0.7571  0.3858  1.7086
  199MOL    C7416310   0.164   6.980   2.541  0.1010  0.1067 -0.5401
  199MOL    O7516311   0.080   7.060   2.623 -0.4000 -0.0925  0.3911
  199MOL    H7616312   0.171   7.029   2.444  0.2231 -1.2883 -1.2379
  199MOL    H7716313   0.264   6.975   2.584  0.0958 -0.9206 -0.6459
  199MOL    C7816314   7.736   7.070   2.567 -0.3729  0.0064  0.3115
  199MOL    O7916315   7.654   7.168   2.627 -0.1775  0.0286  0.0850
  199MOL    H8016316   7.685   6.976   2.586  0.7994 -0.2737  2.1910
  199MOL    H8116317   7.741   7.089   2.460 -1.3756  2.2754  0.6424
  199MOL    H8216318   7.613   7.131   2.704  2.4778 -0.9773  1.0886
  200MOL     C116319   5.850   3.700   0.598  0.1367  0.2705 -0.2431
  200MOL     O216320   5.858   3.706   0.741 -0.1416  0.4672 -0.3839
  200MOL     H316321   5.806   3.604   0.571 -0.9560  0.6124  0.2810
  200MOL     H416322   5.773   3.770   0.565  0.4026  1.3055  1.2871
  200MOL     H516323   5.941   3.710   0.539 -1.0570  1.0052 -1.9975
  200MOL     C616324   5.922   3.830   0.771  0.3376 -0.5342  1.0863
  200MOL     O716325   5.920   3.853   0.905 -0.0005 -0.1234  0.5065
  200MOL     H816326   5.864   3.911   0.724 -0.3360 -0.1114  2.6267
  200MOL     H916327   6.022   3.839   0.729 -0.6197  0.3952 -1.1349
  200MOL    C1016328   6.022   3.773   0.974 -0.1881  0.2564 -0.1839
  200MOL    O1116329   6.144   3.842   0.975 -0.0655  0.5620  0.3445
  200MOL    H1216330   6.040   3.679   0.922  0.0283  0.8399 -1.1983
  200MOL    H1316331   5.982   3.751   1.073 -0.1195 -0.6809 -0.3637
  200MOL    C1416332   6.138   3.976   1.031 -0.0632  0.0746  0.4696
  200MOL    O1516333   6.265   4.043   1.013 -0.0260 -0.9247 -0.0631
  200MOL    H1616334   6.137   3.966   1.140 -0.6579  3.3723  0.8195
  200MOL    H1716335   6.069   4.036   0.972 -1.7851  1.1283  3.4687
  200MOL    C1816336   6.289   4.087   0.885 -0.3516 -0.6097  0.1791
  200MOL    O1916337   6.214   4.204   0.851 -0.6079  0.0446 -0.2048
  200MOL    H2016338   6.267   4.009   0.813  0.0500  0.1704 -0.7904
  200MOL    H2116339   6.395   4.111   0.876 -0.4574 -0.4728 -0.7587
  200MOL    C2216340   6.178   4.206   0.715  0.6720  0.2017 -0.1300
  200MOL    O2316341   6.283   4.172   0.629 -0.3699 -0.4646  0.7215
  200MOL    H2416342   6.163   4.311   0.693  0.7805  0.7068  2.0692
  200MOL    H2516343   6.095   4.136   0.705 -1.4338  2.8598 -1.7108
  200MOL    C2616344   6.236   4.156   0.496  0.0629 -0.8751  0.4208
  200MOL    O2716345   6.152   4.044   0.486 -0.1378 -0.1147 -0.5431
  200MOL    H2816346   6.323   4.147   0.431  0.1354  0.1176  0.3774
  200MOL    H2916347   6.184   4.242   0.456  0.8090 -0.0314  1.2558
  200MOL    C3016348   6.220   3.920   0.464  0.6911  0.2089  0.2199
  200MOL    O3116349   6.277   3.919   0.337 -0.2487  0.7608  0.0286
  200MOL    H3216350   6.153   3.835   0.476 -0.3510  0.6241 -2.3614
  200MOL    H3316351   6.301   3.906   0.536  1.2368 -0.4647 -0.5063
  200MOL    C3416352   6.184   3.898   0.235 -0.5742  0.4267 -0.8618
  200MOL    O3516353   6.173   3.766   0.200 -0.0876 -0.3841 -0.2145
  200MOL    H3616354   6.212   3.960   0.150  0.8007  2.1702  0.8077
  200MOL    H3716355   6.090   3.947   0.260  0.2326  2.2832 -1.3538
  200MOL    C3816356   6.283   3.714   0.137  0.6118  0.3123  0.3261
  200MOL    O3916357   6.306   3.776   0.017 -0.0807 -0.2920 -0.0687
  200MOL    H4016358   6.283   3.605   0.137  3.3104  0.2844 -0.5067
  200MOL    H4116359   6.367   3.740   0.201  1.3439 -0.1788 -0.4237
  200MOL    C4216360   6.246   3.718   7.691  0.2318  0.2455 -0.4071
  200MOL    O4316361   6.297   3.775   7.574  0.2806  0.7655  0.0465
  200MOL    H4416362   6.138   3.735   7.698  0.4039  1.3796 -0.4839
  200MOL    H4516363   6.267   3.611   7.691  0.6796  0.2790 -4.3437
  200MOL    C4616364   6.424   3.731   7.546  0.4045  0.2399  0.2004
  200MOL    O4716365   6.434   3.593   7.507 -0.1597 -0.3624 -0.2189
  200MOL    H4816366   6.490   3.730   7.632  2.3900  0.3209 -1.2867
  200MOL    H4916367   6.469   3.787   7.464 -0.3172  0.1752 -0.2452
  200MOL    C5016368   6.363   3.559   7.391 -0.1817  0.7740  0.0842
  200MOL    O5116369   6.349   3.421   7.376 -0.0962 -0.6570  0.1010
  200MOL    H5216370   6.412   3.587   7.298 -1.5292 -0.7617 -1.1068
  200MOL    H5316371   6.268   3.611   7.385 -0.3404  0.3643 -1.0113
  200MOL    C5416372   6.250   3.365   7.458  0.9144 -0.1565 -0.5003
  200MOL    O5516373   6.129   3.381   7.391  0.1176 -0.5413 -0.2086
  200MOL    H5616374   6.248   3.410   7.557  0.5902  0.2641 -0.6975
  200MOL    H5716375   6.274   3.260   7.472 -2.8009 -0.9625  0.4281
  200MOL    C5816376   6.120   3.280   7.287  0.1555  0.0787 -0.4119
  200MOL    O5916377   6.065   3.168   7.344  0.6487 -0.1445 -0.1002
  200MOL    H6016378   6.210   3.252   7.233 -0.1125  0.0228 -0.8321
  200MOL    H6116379   6.041   3.310   7.217 -0.5627 -0.2125  0.2698
  200MOL    C6216380   5.933   3.157   7.382 -0.4129  0.6519  0.6059
  200MOL    O6316381   5.848   3.139   7.276  0.4369 -0.1041  0.0849
  200MOL    H6416382   5.912   3.253   7.428 -0.3334 -0.1208  2.2807
  200MOL    H6516383   5.927   3.089   7.467  3.3844 -0.2067  0.2728
  200MOL    C6616384   5.790   3.016   7.268 -0.1493 -0.5478  0.4143
  200MOL    O6716385   5.705   2.991   7.371 -0.5585  0.3126 -0.2994
  200MOL    H6816386   5.852   2.929   7.249  1.3822  0.4651  0.6654
  200MOL    H6916387   5.731   3.024   7.177  0.8195  2.0254 -0.0439
  200MOL    C7016388   5.576   3.034   7.349  0.0330 -0.3638  0.5730
  200MOL    O7116389   5.496   2.947   7.266  0.0866  0.2190  0.1909
  200MOL    H7216390   5.577   3.128   7.293  1.1316  0.1573  1.4301
  200MOL    H7316391   5.531   3.053   7.447  0.5442 -3.5621  1.4696
  200MOL    C7416392   5.485   2.820   7.323 -0.0872  0.3714  0.5134
  200MOL    O7516393   5.403   2.730   7.255  0.3405 -0.1620  0.1786
  200MOL    H7616394   5.455   2.825   7.427 -1.7196  3.2563 -0.0509
  200MOL    H7716395   5.585   2.777   7.320 -0.0855  0.1232  2.9851
  200MOL    C7816396   5.436   2.718   7.123  0.0808 -0.3017 -0.6965
  200MOL    O7916397   5.554   2.643   7.109 -0.4473 -0.2113 -0.1505
  200MOL    H8016398   5.447   2.814   7.073 -2.3694  0.8037  0.8252
  200MOL    H8116399   5.358   2.666   7.067 -0.6927  0.2205 -0.1105
  200MOL    H8216400   5.580   2.664   7.020  1.8509 -0.9538  0.3074
  201MOL     C116401   3.798   7.206   3.322 -0.1517  0.5963 -0.0591
  201MOL     O216402   3.758   7.164   3.449 -0.3971 -0.1940  0.5525
  201MOL     H316403   3.768   7.309   3.309  2.3057  1.1529 -1.8927
  201MOL     H416404   3.906   7.205   3.302  0.0524 -0.9466  0.9652
  201MOL     H516405   3.750   7.152   3.240 -0.1551  0.1619  0.2234
  201MOL     C616406   3.835   7.058   3.490  0.0037 -0.6676 -0.5241
  201MOL     O716407   3.969   7.073   3.510 -0.3091  0.0572  0.2045
  201MOL     H816408   3.826   6.984   3.410  3.3365  0.6434 -2.2019
  201MOL     H916409   3.792   7.025   3.585 -0.7360 -1.1395 -1.0158
  201MOL    C1016410   4.007   7.141   3.625 -0.2786 -0.1838 -0.4160
  201MOL    O1116411   3.989   7.072   3.741  0.1565  0.0247 -0.0004
  201MOL    H1216412   3.946   7.231   3.634  2.1288  1.3568  1.5520
  201MOL    H1316413   4.108   7.181   3.609 -0.1319  0.1664  1.2604
  201MOL    C1416414   4.084   6.977   3.766 -0.2832 -0.1542  0.0789
  201MOL    O1516415   4.058   6.891   3.872 -0.1669  0.4454 -0.4756
  201MOL    H1616416   4.176   7.032   3.788  0.2648  0.0279 -2.5740
  201MOL    H1716417   4.105   6.924   3.673  0.8189  0.9228 -0.2996
  201MOL    C1816418   3.960   6.801   3.846 -0.8304  0.4729 -0.2647
  201MOL    O1916419   3.834   6.865   3.835 -0.3134 -0.3692 -0.2667
  201MOL    H2016420   3.961   6.719   3.918 -1.8868  0.4506 -0.2700
  201MOL    H2116421   3.983   6.760   3.748 -2.2006 -0.0079 -0.4073
  201MOL    C2216422   3.798   6.920   3.955 -0.1981  0.0407  0.3093
  201MOL    O2316423   3.665   6.904   3.984 -0.3932  0.0311 -0.0730
  201MOL    H2416424   3.835   7.022   3.948  2.5231 -0.9720 -1.2367
  201MOL    H2516425   3.862   6.888   4.038 -0.2089 -1.3335 -0.1917
  201MOL    C2616426   3.575   6.977   3.898 -0.1441  0.0457 -0.0110
  201MOL    O2716427   3.588   7.112   3.926 -0.0121 -0.2128  0.2090
  201MOL    H2816428   3.474   6.946   3.923  0.1030 -0.5586  0.2418
  201MOL    H2916429   3.593   6.954   3.793  0.7254 -0.2735  0.2061
  201MOL    C3016430   3.610   7.187   3.811  0.3051  0.0475 -0.7120
  201MOL    O3116431   3.495   7.221   3.746  0.1847  0.1861  0.3008
  201MOL    H3216432   3.682   7.150   3.737 -0.5496 -0.5537 -1.2589
  201MOL    H3316433   3.656   7.280   3.844 -0.4462  0.3958 -0.6345
  201MOL    C3416434   3.393   7.279   3.821  0.1597  0.3886 -0.4507
  201MOL    O3516435   3.308   7.357   3.745 -0.8250  0.3097 -0.1229
  201MOL    H3616436   3.433   7.347   3.897  0.5174  0.6089 -0.8297
  201MOL    H3716437   3.331   7.208   3.875  3.0513 -0.5680  1.7717
  201MOL    C3816438   3.371   7.477   3.703 -0.0000  0.1001 -0.2709
  201MOL    O3916439   3.411   7.558   3.811 -0.3403 -0.1450 -0.5232
  201MOL    H4016440   3.296   7.526   3.641  0.3840 -2.4589 -2.8468
  201MOL    H4116441   3.448   7.466   3.627 -1.7640 -1.1113 -1.9086
  201MOL    C4216442   3.442   7.688   3.761 -0.2568 -0.3116  0.3662
  201MOL    O4316443   3.340   0.001   3.764  0.1969 -0.1367 -0.3095
  201MOL    H4416444   3.470   7.684   3.656 -0.3881 -2.7609  0.3898
  201MOL    H4516445   3.524   7.732   3.817  1.5176 -2.2155 -0.6769
  201MOL    C4616446   3.319   0.049   3.889 -0.3545 -0.1116  0.6313
  201MOL    O4716447   3.419   0.142   3.927  0.6726 -0.5439 -0.3858
  201MOL    H4816448   3.309   7.746   3.954  2.8284 -0.7238  0.3760
  201MOL    H4916449   3.227   0.107   3.898 -1.4543 -2.0573  2.1316
  201MOL    C5016450   3.406   0.197   4.060 -0.1838  0.6451 -0.1825
  201MOL    O5116451   3.420   0.104   4.163 -0.0967 -0.5900 -0.1257
  201MOL    H5216452   3.308   0.245   4.062 -0.2075  0.5553  1.9630
  201MOL    H5316453   3.486   0.270   4.072 -1.2056  1.5985  1.0840
  201MOL    C5416454   3.437   0.154   4.289  0.4273  0.7818  0.8139
  201MOL    O5516455   3.327   0.228   4.328  0.2879 -0.1696  0.3813
  201MOL    H5616456   3.532   0.209   4.292 -0.9505  3.6006 -2.9144
  201MOL    H5716457   3.458   0.066   4.350  3.0181  0.6054 -0.2582
  201MOL    C5816458   3.210   0.147   4.342 -0.4523 -0.1955 -0.0198
  201MOL    O5916459   3.100   0.222   4.391 -0.0272  0.2874 -0.2068
  201MOL    H6016460   3.233   0.060   4.403 -0.0551  0.5920  0.9792
  201MOL    H6116461   3.182   0.103   4.247 -0.6952  2.5538 -1.2663
  201MOL    C6216462   3.116   0.264   4.521  0.0000 -0.3812  0.6276
  201MOL    O6316463   3.101   0.160   4.606 -0.3232 -0.3584  0.9966
  201MOL    H6416464   3.042   0.341   4.544  0.5648  0.6801 -0.9776
  201MOL    H6516465   3.215   0.309   4.524 -0.2944  0.3167  0.0804
  201MOL    C6616466   3.116   0.193   4.738  0.0447  0.5582  0.0883
  201MOL    O6716467   3.245   0.192   4.780  0.0952  0.3040  0.3850
  201MOL    H6816468   3.048   0.132   4.797  0.6614  0.2821  0.5119
  201MOL    H6916469   3.097   0.299   4.760  0.0975  0.9952 -1.9075
  201MOL    C7016470   3.317   0.072   4.765  0.3219  0.4127  0.7346
  201MOL    O7116471   3.442   0.080   4.817 -0.5518 -0.1772 -0.1174
  201MOL    H7216472   3.318   0.035   4.662  0.3321  1.6273  0.2884
  201MOL    H7316473   3.267   7.779   4.825  2.1694 -0.6011  1.0208
  201MOL    C7416474   3.524   0.184   4.755 -0.2597  0.5670  0.6951
  201MOL    O7516475   3.556   0.140   4.625 -0.3384 -1.3314 -0.5531
  201MOL    H7616476   3.620   0.191   4.806  1.3340 -0.9417 -1.9711
  201MOL    H7716477   3.479   0.283   4.756 -0.7826  0.3275  1.6739
  201MOL    C7816478   3.610   0.011   4.620  0.9371 -0.4378 -0.1708
  201MOL    O7916479   3.667   7.770   4.495 -0.8285 -0.1399 -0.3304
  201MOL    H8016480   3.542   7.711   4.637 -1.9359  1.3715 -2.2123
  201MOL    H8116481   3.687   0.007   4.697  0.3039 -2.1688  0.3799
  201MOL    H8216482   3.738   0.048   4.481  0.3380 -1.4777 -0.4881
  202MOL     C116483   2.901   6.144   6.960 -0.0079 -0.0475  0.2337
  202MOL     O216484   2.916   6.024   7.042  0.2987 -0.2240 -0.3630
  202MOL     H316485   2.973   6.145   6.878  2.7383 -0.1459  2.5853
  202MOL     H416486   2.799   6.137   6.920 -0.0679 -0.0683  0.3882
  202MOL     H516487   2.901   6.239   7.014 -3.1905 -0.8778  1.8323
  202MOL     C616488   2.896   5.901   6.993  0.4889  0.1096 -0.4048
  202MOL     O716489   2.766   5.891   6.936  0.2256  0.2397  0.3700
  202MOL     H816490   2.912   5.822   7.067 -0.6070  1.1349  0.9720
  202MOL     H916491   2.964   5.885   6.910  1.2912 -2.1049  0.6301
  202MOL    C1016492   2.661   5.902   7.025 -0.0093  0.4520  0.4690
  202MOL    O1116493   2.623   5.771   7.066  0.0868  0.5768  0.1110
  202MOL    H1216494   2.575   5.958   6.990  0.5934  1.4073  0.4986
  202MOL    H1316495   2.701   5.944   7.118  0.3980 -2.8970  1.9215
  202MOL    C1416496   2.543   5.712   6.971  0.4318 -0.1343  0.2743
  202MOL    O1516497   2.410   5.774   6.963  0.2739  0.5433 -0.3957
  202MOL    H1616498   2.531   5.608   7.002  1.2929  0.0228  1.1551
  202MOL    H1716499   2.590   5.709   6.872  1.2777  0.8927  0.6405
  202MOL    C1816500   2.331   5.706   6.869 -0.9910  0.2513 -0.4610
  202MOL    O1916501   2.368   5.743   6.746 -0.0340  0.2389 -0.1059
  202MOL    H2016502   2.227   5.731   6.886 -1.3917 -1.3601 -0.5020
  202MOL    H2116503   2.336   5.597   6.879 -2.4352  0.3465  1.4920
  202MOL    C2216504   2.266   5.791   6.663  0.2676 -0.1374  0.0276
  202MOL    O2316505   2.190   5.683   6.617  0.3513 -0.2303 -0.0364
  202MOL    H2416506   2.321   5.846   6.586  0.2900 -1.7213 -1.1120
  202MOL    H2516507   2.201   5.868   6.704 -0.3804 -0.4023 -0.4962
  202MOL    C2616508   2.099   5.721   6.512  0.5434  0.4397  0.7413
  202MOL    O2716509   2.160   5.786   6.405  0.0307 -0.0795  0.2762
  202MOL    H2816510   2.023   5.789   6.552 -1.5552 -1.7382  0.5801
  202MOL    H2916511   2.048   5.627   6.492  1.5575  0.2501 -1.0348
  202MOL    C3016512   2.203   5.702   6.310  0.0118  1.1057  0.2910
  202MOL    O3116513   2.115   5.688   6.203  0.0560  0.4814 -0.1545
  202MOL    H3216514   2.220   5.602   6.349  0.3260  0.7840 -0.6384
  202MOL    H3316515   2.299   5.743   6.279  0.5223 -1.0469 -1.1069
  202MOL    C3416516   2.107   5.807   6.136  0.2027  0.1497 -0.0886
  202MOL    O3516517   2.211   5.838   6.049  0.1847  0.4273  0.3183
  202MOL    H3616518   2.086   5.886   6.208  1.5639  0.0349  0.4483
  202MOL    H3716519   2.015   5.813   6.077 -1.5565  1.8885  2.7356
  202MOL    C3816520   2.222   5.971   6.007 -0.3711 -0.6722  0.3481
  202MOL    O3916521   2.117   6.005   5.925  0.7638 -0.5958 -0.1700
  202MOL    H4016522   2.318   5.977   5.955 -0.4275 -0.9629  0.2116
  202MOL    H4116523   2.231   6.041   6.090 -0.3426 -0.8895  0.5304
  202MOL    C4216524   2.139   5.975   5.793  0.1478  0.4322  0.0977
  202MOL    O4316525   2.237   6.056   5.734 -0.0226 -0.0092  0.1440
  202MOL    H4416526   2.045   5.998   5.742 -0.7998  0.1172  1.6538
  202MOL    H4516527   2.160   5.869   5.782  0.4953  0.5888 -0.8093
  202MOL    C4616528   2.197   6.183   5.709  0.1697  0.0801 -0.2718
  202MOL    O4716529   2.298   6.267   5.709 -0.5341  0.5164  0.0612
  202MOL    H4816530   2.124   6.223   5.779  0.3030  1.1124 -0.7172
  202MOL    H4916531   2.149   6.179   5.611 -2.5301  1.3328  0.9479
  202MOL    C5016532   2.350   6.285   5.839 -0.2432  0.1524 -0.4885
  202MOL    O5116533   2.476   6.338   5.824  0.3395  0.2475  0.2124
  202MOL    H5216534   2.369   6.189   5.887  1.5358  2.0220  2.7206
  202MOL    H5316535   2.281   6.347   5.896  0.2993  0.4025 -0.0933
  202MOL    C5416536   2.475   6.467   5.765  0.0909 -0.4695  0.0171
  202MOL    O5516537   2.471   6.578   5.859 -0.5581  0.1236 -0.3246
  202MOL    H5616538   2.394   6.477   5.693 -1.2098 -0.1472  1.4676
  202MOL    H5716539   2.570   6.474   5.713  0.0063  0.4512 -0.0324
  202MOL    C5816540   2.464   6.703   5.794 -0.7255 -0.1637 -0.1342
  202MOL    O5916541   2.347   6.725   5.717  0.2351 -0.3059 -0.7620
  202MOL    H6016542   2.542   6.707   5.718  0.8924  2.2039  1.5785
  202MOL    H6116543   2.489   6.779   5.868 -0.8035  2.0697 -2.3374
  202MOL    C6216544   2.287   6.852   5.726  0.1288 -0.2713  0.0422
  202MOL    O6316545   2.205   6.852   5.839 -0.2898  0.1842 -1.3262
  202MOL    H6416546   2.235   6.875   5.633  0.7737  0.4092 -0.1587
  202MOL    H6516547   2.361   6.932   5.729  1.7624 -1.6814 -1.1304
  202MOL    C6616548   2.088   6.783   5.827  0.0823  0.8385  0.0479
  202MOL    O6716549   2.054   6.732   5.955  0.0660 -0.1577 -0.1609
  202MOL    H6816550   2.095   6.703   5.754 -1.1065  1.9090 -1.2815
  202MOL    H6916551   2.021   6.861   5.791 -1.0444 -0.3413 -0.4588
  202MOL    C7016552   2.125   6.617   5.991 -0.2755  0.4178  0.1902
  202MOL    O7116553   2.084   6.500   5.922 -0.2395 -0.6292  0.3196
  202MOL    H7216554   2.129   6.598   6.098 -3.1950 -1.7772 -0.0261
  202MOL    H7316555   2.227   6.616   5.953 -0.7870 -1.0772 -1.1928
  202MOL    C7416556   1.959   6.455   5.964 -0.5570  0.5499  0.3002
  202MOL    O7516557   1.967   6.404   6.092 -0.5218 -0.1359 -0.6455
  202MOL    H7616558   1.931   6.372   5.900 -0.2564  1.3865 -0.9289
  202MOL    H7716559   1.876   6.525   5.958 -1.3585 -0.5864 -2.8426
  202MOL    C7816560   2.048   6.295   6.107 -0.6878 -0.1272  0.1485
  202MOL    O7916561   2.021   6.229   6.230  0.2465 -0.2347  0.2213
  202MOL    H8016562   2.149   6.336   6.110 -1.3850  1.5937  0.3506
  202MOL    H8116563   2.028   6.227   6.024  0.7109  0.2714 -0.5347
  202MOL    H8216564   1.931   6.201   6.239  0.4402 -0.5583  1.1806
  203MOL     C116565   4.783   5.871   7.469 -0.0590  0.5286 -0.1674
  203MOL     O216566   4.854   5.791   7.561 -0.1277 -1.1336 -0.2362
  203MOL     H316567   4.729   5.947   7.526 -0.0516 -0.5094  1.2472
  203MOL     H416568   4.847   5.915   7.392  0.9579 -1.2653 -0.3681
  203MOL     H516569   4.724   5.801   7.410 -0.2898 -1.6212  2.5461
  203MOL     C616570   4.970   5.740   7.520  0.3023  0.3543  0.1341
  203MOL     O716571   4.948   5.631   7.443  0.1254 -0.5562 -0.7810
  203MOL     H816572   5.031   5.714   7.607  1.2571 -1.5494 -1.0713
  203MOL     H916573   5.033   5.803   7.457 -0.2972  0.2070 -0.6292
  203MOL    C1016574   4.905   5.526   7.522  0.1856  0.0583  0.7126
  203MOL    O1116575   5.004   5.459   7.584  0.1841 -0.1912 -0.4821
  203MOL    H1216576   4.847   5.461   7.455 -0.9032 -0.3183  1.9912
  203MOL    H1316577   4.837   5.565   7.597  1.3807  1.3310  1.1414
  203MOL    C1416578   5.089   5.393   7.494 -0.0077 -0.4347 -0.3600
  203MOL    O1516579   5.034   5.280   7.446  0.6452  0.2507 -0.0795
  203MOL    H1616580   5.184   5.383   7.546 -0.8992  1.3018  1.6632
  203MOL    H1716581   5.115   5.456   7.409 -0.2171  1.9421  1.3015
  203MOL    C1816582   5.048   5.181   7.536  0.1563  0.0044 -0.1426
  203MOL    O1916583   5.175   5.128   7.537  0.3538  0.4746 -0.5539
  203MOL    H2016584   4.962   5.114   7.533 -0.7400  1.1098  0.6006
  203MOL    H2116585   5.032   5.220   7.637 -0.6538 -2.7570  0.8708
  203MOL    C2216586   5.213   5.056   7.427 -0.5399  0.6264  0.0623
  203MOL    O2316587   5.345   5.003   7.445  0.4589  0.0500  0.5353
  203MOL    H2416588   5.222   5.120   7.339  1.1512  0.6487  0.2314
  203MOL    H2516589   5.149   4.968   7.426  1.0564 -0.5631 -1.9860
  203MOL    C2616590   5.439   5.104   7.450 -0.1495  0.5935 -0.2587
  203MOL    O2716591   5.560   5.058   7.500  0.6560 -0.0796  0.0143
  203MOL    H2816592   5.401   5.195   7.496 -3.5342 -0.1719 -1.3569
  203MOL    H2916593   5.455   5.140   7.348  3.1118 -0.6531 -0.2571
  203MOL    C3016594   5.632   4.995   7.402 -0.5443 -0.2304  0.8386
  203MOL    O3116595   5.707   5.086   7.325  0.2100  0.1221  0.4018
  203MOL    H3216596   5.576   4.932   7.333  1.6635 -0.7924 -0.4979
  203MOL    H3316597   5.701   4.929   7.454 -0.1914 -0.8144 -0.3576
  203MOL    C3416598   5.823   5.129   7.383  0.6099 -0.3778 -0.4127
  203MOL    O3516599   5.924   5.038   7.358 -0.0180 -0.1775  0.8507
  203MOL    H3616600   5.811   5.152   7.489 -1.5743  1.5957 -1.0380
  203MOL    H3716601   5.843   5.224   7.333  3.5251 -0.4876  0.4674
  203MOL    C3816602   6.047   5.098   7.382  0.0593  0.0079 -0.3263
  203MOL    O3916603   6.070   5.113   7.520 -0.4604 -0.2396 -0.0779
  203MOL    H4016604   6.061   5.193   7.332  3.1937  0.0763  0.5853
  203MOL    H4116605   6.129   5.038   7.344  0.8624  0.2603  0.9638
  203MOL    C4216606   6.066   4.999   7.595  0.4036  0.7185  0.1789
  203MOL    O4316607   6.178   4.919   7.575  0.4198 -0.4284  0.1809
  203MOL    H4416608   5.971   4.948   7.580  0.0985  1.6299 -1.1460
  203MOL    H4516609   6.066   5.029   7.699 -1.1975  0.1381  0.3680
  203MOL    C4616610   6.185   4.806   7.665 -0.5022 -0.7268 -0.6756
  203MOL    O4716611   6.251   4.834   7.781 -0.0226  0.0929 -0.4198
  203MOL    H4816612   6.253   4.739   7.613  0.0150 -2.4619  2.0750
  203MOL    H4916613   6.087   4.762   7.684 -1.9010  3.3723  2.4401
  203MOL    C5016614   6.240   4.744   0.094 -0.2012  0.1094  0.7879
  203MOL    O5116615   6.268   4.610   0.058  0.2122 -0.3299 -0.2152
  203MOL    H5216616   6.137   4.754   0.128 -0.5533 -0.4174 -0.1234
  203MOL    H5316617   6.307   4.780   0.172  1.8916  1.8284 -1.7188
  203MOL    C5416618   6.407   4.583   0.084  0.4267 -0.1222  0.3074
  203MOL    O5516619   6.431   4.551   0.214  0.2002 -0.3466 -0.5307
  203MOL    H5616620   6.482   4.652   0.046  0.9111 -0.8651 -0.1046
  203MOL    H5716621   6.421   4.495   0.022  1.4108  1.1009 -1.2470
  203MOL    C5816622   6.383   4.428   0.255  1.0689 -0.1580 -0.3405
  203MOL    O5916623   6.481   4.350   0.312  0.5676 -0.0008 -0.2782
  203MOL    H6016624   6.335   4.370   0.176 -1.7605 -0.2337  1.3850
  203MOL    H6116625   6.292   4.422   0.313  0.1645  1.2739 -1.5546
  203MOL    C6216626   6.522   4.407   0.429  0.1196  0.2015  0.2606
  203MOL    O6316627   6.417   4.409   0.514  0.0641  0.0972 -0.3771
  203MOL    H6416628   6.565   4.506   0.413  2.4260 -0.7365  0.4045
  203MOL    H6516629   6.599   4.345   0.475 -0.8005 -0.2407  1.2294
  203MOL    C6616630   6.441   4.468   0.635  1.0445 -0.1216  0.8993
  203MOL    O6716631   6.410   4.606   0.635  0.7589  0.1154  0.3213
  203MOL    H6816632   6.547   4.458   0.656  1.0362 -0.6745  0.6852
  203MOL    H6916633   6.389   4.416   0.715 -1.4175 -1.5177 -1.5087
  203MOL    C7016634   6.279   4.633   0.628  0.1779  0.0852 -0.2630
  203MOL    O7116635   6.207   4.575   0.735 -0.5028 -0.3166  0.1778
  203MOL    H7216636   6.232   4.614   0.531 -0.9982  0.7324  0.1702
  203MOL    H7316637   6.279   4.739   0.652 -2.6193 -0.2313  1.4315
  203MOL    C7416638   6.224   4.639   0.863 -0.1672 -0.1130  0.2255
  203MOL    O7516639   6.160   4.760   0.859 -0.2973 -0.4551 -0.3795
  203MOL    H7616640   6.329   4.662   0.875 -0.2807  1.0321 -0.8553
  203MOL    H7716641   6.181   4.574   0.939 -0.1230 -2.6901 -1.8683
  203MOL    C7816642   6.021   4.752   0.874  0.3231  0.6028 -0.6987
  203MOL    O7916643   5.956   4.876   0.881 -0.8298  0.4387  0.8677
  203MOL    H8016644   5.987   4.698   0.963  0.1316  1.0965 -0.4722
  203MOL    H8116645   5.978   4.695   0.792  2.0693  1.6340 -2.3547
  203MOL    H8216646   5.989   4.921   0.958  3.0116  0.4803 -0.7169
  204MOL     C116647   5.822   1.201   1.961 -0.2099 -0.0854  0.2558
  204MOL     O216648   5.902   1.096   1.906  0.5175 -0.2705 -1.1126
  204MOL     H316649   5.871   1.296   1.940  0.2993 -0.5936 -0.8932
  204MOL     H416650   5.728   1.214   1.907 -1.1798 -0.2358  1.8444
  204MOL     H516651   5.793   1.189   2.066 -0.4152  1.7083  0.4326
  204MOL     C616652   6.030   1.085   1.973 -0.0072 -0.9718 -0.7019
  204MOL     O716653   6.013   1.033   2.107 -0.2724  0.3611  0.0442
  204MOL     H816654   6.086   1.177   1.986 -1.4200 -0.3544  1.3482
  204MOL     H916655   6.090   1.023   1.907 -0.8012 -1.0708 -1.3486
  204MOL    C1016656   6.006   0.891   2.099 -0.5113 -0.0760  0.1147
  204MOL    O1116657   5.885   0.848   2.049 -0.2575 -0.3128  0.2871
  204MOL    H1216658   6.027   0.865   2.203  0.4435 -1.3074 -0.3748
  204MOL    H1316659   6.089   0.857   2.037 -0.2430  2.1142 -0.7445
  204MOL    C1416660   5.778   0.882   2.129 -0.4902 -0.0336 -0.1718
  204MOL    O1516661   5.650   0.822   2.099 -0.1522 -0.2906 -0.4522
  204MOL    H1616662   5.779   0.988   2.150 -2.4142 -0.4538  2.2791
  204MOL    H1716663   5.800   0.832   2.224 -0.7234  0.9333  0.3953
  204MOL    C1816664   5.591   0.893   1.995  0.1095  0.3215 -0.5074
  204MOL    O1916665   5.458   0.842   1.985  0.1308  0.4406 -0.3252
  204MOL    H2016666   5.650   0.867   1.907  1.0116 -2.1168  0.7597
  204MOL    H2116667   5.591   0.998   2.025  1.1804 -0.7528  3.6442
  204MOL    C2216668   5.451   0.706   1.940  0.4435  0.3582  0.7520
  204MOL    O2316669   5.472   0.700   1.796  0.6512  0.0723  0.0504
  204MOL    H2416670   5.353   0.661   1.958  0.3433  0.4473  0.4203
  204MOL    H2516671   5.535   0.654   1.986 -0.1300 -1.0295  0.2544
  204MOL    C2616672   5.471   0.565   1.753 -0.1444  0.2054  0.0593
  204MOL    O2716673   5.583   0.505   1.788 -0.6652  0.4834 -0.0273
  204MOL    H2816674   5.469   0.565   1.644  0.9892 -1.0626  0.0143
  204MOL    H2916675   5.378   0.520   1.788  0.8661 -3.1982 -1.3818
  204MOL    C3016676   5.574   0.379   1.840 -0.0183 -0.7045  0.4078
  204MOL    O3116677   5.505   0.377   1.956  0.5918  0.8573  0.0684
  204MOL    H3216678   5.676   0.343   1.855  0.5761  1.3621  1.6251
  204MOL    H3316679   5.528   0.310   1.770  0.7421 -2.5105  1.6683
  204MOL    C3416680   5.495   0.251   2.017 -0.8059  0.0388 -0.0023
  204MOL    O3516681   5.622   0.193   2.031 -0.3065  0.2174  0.5209
  204MOL    H3616682   5.427   0.192   1.956 -2.2354  1.2274  0.4067
  204MOL    H3716683   5.437   0.257   2.109 -1.8474 -0.7813 -0.5974
  204MOL    C3816684   5.686   0.245   2.140 -0.7921 -0.1547  0.3368
  204MOL    O3916685   5.631   0.202   2.257  0.1419  0.2105  0.5497
  204MOL    H4016686   5.687   0.354   2.139 -0.7720 -0.1543  0.3758
  204MOL    H4116687   5.787   0.206   2.133 -0.6950  0.0727  0.4507
  204MOL    C4216688   5.646   0.065   2.285  0.2903 -0.3918  0.2529
  204MOL    O4316689   5.780   0.023   2.290  0.2792 -0.1932  0.1975
  204MOL    H4416690   5.598   7.781   2.214 -1.5885 -1.8551  2.8277
  204MOL    H4516691   5.594   0.042   2.378  0.2774  1.0907  0.6194
  204MOL    C4616692   5.838   0.070   2.403  0.3465 -0.0688 -0.0943
  204MOL    O4716693   5.792   0.017   2.521 -0.0553 -0.8915 -0.3471
  204MOL    H4816694   5.813   0.176   2.406 -0.3433 -0.1771 -1.4791
  204MOL    H4916695   5.946   0.065   2.391  0.4272 -1.0170  0.9534
  204MOL    C5016696   5.806   7.660   2.536  0.5289  1.3380  0.3331
  204MOL    O5116697   5.694   7.609   2.596  0.4337 -0.4319 -0.0605
  204MOL    H5216698   5.901   7.628   2.578 -0.3787 -0.6126  0.9882
  204MOL    H5316699   5.800   7.613   2.438 -0.6486  1.8959  0.1298
  204MOL    C5416700   5.694   7.629   2.730  0.5084  0.2031 -0.5463
  204MOL    O5516701   5.573   7.594   2.780  0.4803 -0.3279 -0.5511
  204MOL    H5616702   5.714   7.733   2.758 -1.0094  0.5730 -0.8240
  204MOL    H5716703   5.768   7.559   2.769 -0.9610 -0.9236  0.2927
  204MOL    C5816704   5.544   7.456   2.768 -0.2108 -0.1117 -0.0192
  204MOL    O5916705   5.590   7.392   2.890 -0.8126 -0.3182 -0.1889
  204MOL    H6016706   5.604   7.403   2.694  2.4986 -0.8571  2.5715
  204MOL    H6116707   5.440   7.440   2.741 -0.2516  1.1041 -0.6155
  204MOL    C6216708   5.525   7.437   3.008  0.1762  0.3350 -0.4530
  204MOL    O6316709   5.608   7.415   3.117  0.2707 -0.1616  0.1834
  204MOL    H6416710   5.440   7.376   3.037  0.4919  0.4718  0.7952
  204MOL    H6516711   5.501   7.542   2.991  1.8409  0.5946 -1.2827
  204MOL    C6616712   5.722   7.501   3.115  0.7823  0.3849  0.0417
  204MOL    O6716713   5.805   7.496   3.227  0.1911  0.5383  0.3431
  204MOL    H6816714   5.682   7.600   3.092 -3.8233 -0.7911  2.4806
  204MOL    H6916715   5.788   7.463   3.037 -1.7763 -0.9003 -1.5581
  204MOL    C7016716   5.748   7.548   3.342 -0.4242 -0.3065  0.6568
  204MOL    O7116717   5.778   7.456   3.443 -0.0472 -0.1882  0.4014
  204MOL    H7216718   5.643   7.575   3.329 -0.1143  1.7423  2.1651
  204MOL    H7316719   5.795   7.641   3.376  1.3661 -0.6806 -0.7129
  204MOL    C7416720   5.682   7.348   3.447 -0.0846  0.2381  0.1191
  204MOL    O7516721   5.559   7.393   3.494  0.9408 -0.6395  0.7231
  204MOL    H7616722   5.732   7.274   3.509  0.0560  1.1139  1.0575
  204MOL    H7716723   5.679   7.310   3.345  0.7779 -1.8749  0.8680
  204MOL    C7816724   5.549   7.405   3.630  0.2177 -0.0239 -0.1552
  204MOL    O7916725   5.420   7.424   3.677  0.0390 -0.1135 -0.0742
  204MOL    H8016726   5.613   7.486   3.662  0.4029  0.6824 -2.2475
  204MOL    H8116727   5.590   7.319   3.683 -2.4242 -2.0687 -1.3041
  204MOL    H8216728   5.381   7.338   3.686  0.8858 -0.5002  0.0150
  205MOL     C116729   5.084   0.898   1.913 -0.0441  0.9095 -0.4043
  205MOL     O216730   4.994   1.004   1.903  0.2013 -0.2574  0.1313
  205MOL     H316731   5.052   0.818   1.981 -0.9995  1.7766  0.1730
  205MOL     H416732   5.103   0.854   1.815  0.0806 -1.8569  0.7992
  205MOL     H516733   5.180   0.937   1.947  0.5634  1.4273 -2.6750
  205MOL     C616734   4.968   1.055   2.025  0.1370 -0.1262 -0.9983
  205MOL     O716735   4.918   0.960   2.115  0.1981 -0.5428  0.3613
  205MOL     H816736   4.894   1.135   2.023  0.4952  0.2890  0.9235
  205MOL     H916737   5.061   1.100   2.059  0.4112 -0.7132 -0.9769
  205MOL    C1016738   4.781   0.932   2.089  0.0881  0.1855 -1.0366
  205MOL    O1116739   4.704   1.014   2.172 -0.3944  0.2851  0.5769
  205MOL    H1216740   4.772   0.826   2.114 -2.9349  0.7898  0.6447
  205MOL    H1316741   4.752   0.949   1.985 -0.6930 -1.6312 -1.1378
  205MOL    C1416742   4.714   0.978   2.310 -0.6355  0.0811 -0.1758
  205MOL    O1516743   4.662   0.851   2.335  0.2598 -0.2528 -0.4249
  205MOL    H1616744   4.646   1.037   2.373  0.8009  1.6485 -0.0470
  205MOL    H1716745   4.819   0.981   2.337 -0.3030  0.4197 -1.4983
  205MOL    C1816746   4.659   0.824   2.469  0.1586  0.0751 -0.2215
  205MOL    O1916747   4.549   0.893   2.519 -0.1376  0.4346 -0.2890
  205MOL    H2016748   4.740   0.860   2.533 -1.8842 -2.4187  4.0134
  205MOL    H2116749   4.663   0.715   2.475  4.0116  0.0254 -2.2017
  205MOL    C2216750   4.438   0.814   2.502  0.3157 -0.1800  0.2444
  205MOL    O2316751   4.326   0.876   2.549 -0.0928  0.3811 -0.0954
  205MOL    H2416752   4.438   0.718   2.555  1.0711  0.4935  1.4946
  205MOL    H2516753   4.425   0.796   2.396  1.6447  4.2559 -0.7849
  205MOL    C2616754   4.341   0.924   2.681  0.5858 -0.3552 -0.4187
  205MOL    O2716755   4.328   0.825   2.780 -0.2176  0.4988 -0.5075
  205MOL    H2816756   4.262   0.999   2.681 -0.5767 -1.5592  0.6106
  205MOL    H2916757   4.432   0.982   2.697  0.2705 -0.4501  1.7977
  205MOL    C3016758   4.197   0.791   2.801  0.2014 -0.3062  0.8461
  205MOL    O3116759   4.151   0.686   2.717  0.0027 -0.8432 -0.1398
  205MOL    H3216760   4.132   0.879   2.806  0.0769 -0.3118 -0.7026
  205MOL    H3316761   4.203   0.759   2.905 -2.6149 -1.0770  0.8124
  205MOL    C3416762   4.032   0.623   2.750  0.0001  0.2937  0.7791
  205MOL    O3516763   4.022   0.570   2.879 -0.5553 -0.2597  0.1991
  205MOL    H3616764   4.021   0.539   2.681 -0.8156  1.4276 -0.4764
  205MOL    H3716765   3.950   0.693   2.739 -0.4130  0.0314  2.1507
  205MOL    C3816766   3.912   0.613   2.949 -0.6378 -0.3484  0.0430
  205MOL    O3916767   3.928   0.744   3.010 -0.4712  0.3376 -0.5731
  205MOL    H4016768   3.902   0.538   3.027 -0.2621 -0.6067 -0.1576
  205MOL    H4116769   3.819   0.599   2.893 -0.0120 -3.5457 -0.2585
  205MOL    C4216770   3.811   0.800   3.049 -0.1556 -0.7321  0.0727
  205MOL    O4316771   3.741   0.851   2.944  0.6995  0.0458  1.0693
  205MOL    H4416772   3.836   0.865   3.132  2.6631 -1.7633  0.0843
  205MOL    H4516773   3.748   0.725   3.097 -1.4057  0.8547  0.9683
  205MOL    C4616774   3.797   0.963   2.875  0.0115 -0.0526 -0.2619
  205MOL    O4716775   3.762   1.086   2.933  0.4926  0.3071 -0.3865
  205MOL    H4816776   3.762   0.961   2.771  0.2087  1.2030 -0.3679
  205MOL    H4916777   3.905   0.954   2.861 -0.0505  0.4545 -1.1437
  205MOL    C5016778   3.626   1.113   2.909  0.3232  0.1455  0.0508
  205MOL    O5116779   3.554   1.054   3.011 -0.5292  0.1467 -0.0551
  205MOL    H5216780   3.595   1.078   2.811  0.0681 -1.0812  0.5654
  205MOL    H5316781   3.622   1.222   2.920  1.6595  0.0589  1.7326
  205MOL    C5416782   3.596   1.109   3.131 -0.5390  0.2699 -0.8603
  205MOL    O5516783   3.494   1.107   3.221 -0.2816 -0.4430 -0.2942
  205MOL    H5616784   3.623   1.215   3.121 -1.8412  1.0396  2.8878
  205MOL    H5716785   3.682   1.051   3.163 -1.9483 -0.5086  1.6622
  205MOL    C5816786   3.461   0.975   3.252 -0.2608  0.3418 -1.0582
  205MOL    O5916787   3.352   0.980   3.329 -0.2143  0.1015 -0.4809
  205MOL    H6016788   3.542   0.925   3.305 -0.4063 -1.0261 -2.1156
  205MOL    H6116789   3.436   0.921   3.161 -1.6369  2.8702 -2.2464
  205MOL    C6216790   3.373   1.023   3.461  0.0200  0.1429 -1.3196
  205MOL    O6316791   3.442   0.926   3.527  0.0011 -0.4094 -0.1409
  205MOL    H6416792   3.277   1.045   3.508  0.4970 -2.9550  1.2280
  205MOL    H6516793   3.426   1.119   3.461  1.0199 -0.3834  1.0914
  205MOL    C6616794   3.359   0.827   3.578 -0.4143  0.4329  0.8630
  205MOL    O6716795   3.339   0.728   3.480  0.0431  0.8270 -0.0091
  205MOL    H6816796   3.266   0.863   3.621 -0.4637 -1.7349  2.6842
  205MOL    H6916797   3.417   0.786   3.661  1.5577  0.8668 -0.2605
  205MOL    C7016798   3.217   0.735   3.411  0.4128  0.1055 -0.3659
  205MOL    O7116799   3.130   0.638   3.456  0.2797 -0.6702  0.0565
  205MOL    H7216800   3.222   0.727   3.302 -2.9576 -0.9631 -0.5118
  205MOL    H7316801   3.173   0.833   3.426 -0.6614 -0.4098 -0.0990
  205MOL    C7416802   3.093   0.663   3.592 -0.2948  0.4646 -0.0171
  205MOL    O7516803   3.028   0.776   3.624  0.0800 -0.1523 -0.2399
  205MOL    H7616804   3.183   0.669   3.654 -0.3485  1.7654 -0.0558
  205MOL    H7716805   3.035   0.574   3.617  0.4883 -0.1544 -0.3599
  205MOL    C7816806   2.906   0.777   3.564  0.2418 -0.4500  0.2789
  205MOL    O7916807   2.849   0.909   3.581  0.1917  0.0114 -0.2587
  205MOL    H8016808   2.835   0.711   3.614 -1.8562  2.0552  0.7103
  205MOL    H8116809   2.917   0.761   3.457 -1.1661 -0.1435  0.0842
  205MOL    H8216810   2.797   0.902   3.660  2.2490  1.3278  1.2702
  206MOL     C116811   0.813   2.025   0.914  0.7623  0.4953  0.0518
  206MOL     O216812   0.859   2.052   1.048 -0.0620 -0.4259 -0.0712
  206MOL     H316813   0.822   2.113   0.850  0.4426 -0.6701 -1.6342
  206MOL     H416814   0.880   1.949   0.874  0.9963  0.8046 -0.1402
  206MOL     H516815   0.710   1.987   0.917  1.0005 -0.1359  0.2570
  206MOL     C616816   0.785   2.153   1.107  0.0343  0.3641  0.0825
  206MOL     O716817   0.806   2.272   1.047 -0.0830 -0.7772  0.7834
  206MOL     H816818   0.807   2.146   1.213  1.4666  0.5891 -0.1905
  206MOL     H916819   0.680   2.128   1.093  0.3258 -0.6518 -0.3426
  206MOL    C1016820   0.851   2.369   1.136  0.6266  0.1824  0.5871
  206MOL    O1116821   0.746   2.436   1.203 -0.2300 -0.1562 -0.0633
  206MOL    H1216822   0.905   2.444   1.078  0.2653 -0.1816 -0.2283
  206MOL    H1316823   0.926   2.327   1.203  0.7471  0.7982  0.8429
  206MOL    C1416824   0.780   2.479   1.332 -0.3593 -0.1836  0.4017
  206MOL    O1516825   0.814   2.371   1.411 -0.1725 -0.4999  0.0922
  206MOL    H1616826   0.704   2.543   1.376 -1.1658 -0.7275 -0.1853
  206MOL    H1716827   0.857   2.556   1.328  1.4885 -2.0287 -0.4426
  206MOL    C1816828   0.705   2.299   1.448  0.2178  0.1242  0.2275
  206MOL    O1916829   0.744   2.177   1.504 -0.1060  0.5330  0.0262
  206MOL    H2016830   0.645   2.277   1.359 -2.0470 -0.9913  1.9878
  206MOL    H2116831   0.643   2.360   1.514  0.5774  1.1320 -0.3506
  206MOL    C2216832   0.640   2.101   1.542 -0.4107  0.4656  0.0641
  206MOL    O2316833   0.551   2.159   1.632  0.3358  0.0545  0.2418
  206MOL    H2416834   0.687   2.009   1.579 -3.9123 -0.7521  1.6992
  206MOL    H2516835   0.586   2.060   1.457  0.2819  0.1662 -0.2367
  206MOL    C2616836   0.489   2.054   1.704  0.1902  0.5961  0.5982
  206MOL    O2716837   0.572   1.972   1.772 -0.0641  0.5167 -0.5680
  206MOL    H2816838   0.420   1.996   1.643 -0.7116  0.7406  1.4698
  206MOL    H2916839   0.423   2.111   1.769  1.4620  0.3574  2.1451
  206MOL    C3016840   0.588   2.010   1.901 -0.1269 -0.4697  0.4408
  206MOL    O3116841   0.471   1.999   1.982 -0.2517 -0.2367  0.4319
  206MOL    H3216842   0.640   2.104   1.921 -0.3428 -0.3302  0.3442
  206MOL    H3316843   0.656   1.939   1.950 -0.4072 -1.3428 -0.4290
  206MOL    C3416844   0.481   2.069   2.106  0.2244 -0.4013  0.0062
  206MOL    O3516845   0.473   2.205   2.088 -0.2682 -0.7080 -0.1485
  206MOL    H3616846   0.565   2.020   2.156  2.3559  2.3556 -0.7394
  206MOL    H3716847   0.394   2.036   2.162  0.4009 -0.1268  0.4437
  206MOL    C3816848   0.491   2.268   2.217 -0.2521  0.1872 -0.0378
  206MOL    O3916849   0.491   2.411   2.204  0.5301  0.8394 -0.1888
  206MOL    H4016850   0.585   2.231   2.258  0.5177  1.9120 -0.2018
  206MOL    H4116851   0.412   2.228   2.281  1.5621 -0.6923  1.6834
  206MOL    C4216852   0.361   2.453   2.180  0.6370  0.2541 -0.5090
  206MOL    O4316853   0.286   2.451   2.302  0.1812  0.4841  0.0245
  206MOL    H4416854   0.298   2.382   2.126 -1.6885  1.3351  0.7193
  206MOL    H4516855   0.366   2.554   2.141 -0.4894  0.4177 -0.2540
  206MOL    C4616856   0.342   2.547   2.386  0.3454 -0.6346 -0.4487
  206MOL    O4716857   0.295   2.672   2.347 -0.2612 -0.6851  0.2728
  206MOL    H4816858   0.450   2.542   2.393  0.4774  1.4178 -0.7491
  206MOL    H4916859   0.307   2.527   2.488  0.3339 -3.5045 -0.9895
  206MOL    C5016860   0.161   2.692   2.383 -0.2052  0.8730  0.0806
  206MOL    O5116861   0.120   2.809   2.324  0.0488  0.7047 -0.3588
  206MOL    H5216862   0.147   2.698   2.491  1.9851 -1.0070  0.4988
  206MOL    H5316863   0.101   2.606   2.353  1.5565 -0.1079 -0.6778
  206MOL    C5416864   0.101   2.792   2.186  0.3257 -0.6658  0.4292
  206MOL    O5516865   0.048   2.908   2.134 -0.2872  0.4732 -0.6169
  206MOL    H5616866   0.038   2.706   2.168  0.4434 -0.5897 -0.3625
  206MOL    H5716867   0.195   2.776   2.134  0.6914 -0.2821  0.9608
  206MOL    C5816868   7.703   2.937   2.177  0.5001  0.5348 -0.2825
  206MOL    O5916869   7.595   2.882   2.111 -0.8102 -0.3032  0.5242
  206MOL    H6016870   7.701   3.045   2.162  2.2486  0.4611 -1.0983
  206MOL    H6116871   7.691   2.921   2.285 -2.0770 -1.2705 -0.7883
  206MOL    C6216872   7.596   2.925   1.977 -0.4660 -0.0917  0.9224
  206MOL    O6316873   7.586   3.068   1.963  0.1900 -0.0959 -0.3170
  206MOL    H6416874   7.517   2.876   1.920  0.6168 -0.4879 -0.2539
  206MOL    H6516875   7.689   2.897   1.929 -0.2370  1.6352  0.3419
  206MOL    C6616876   7.604   3.112   1.836 -0.1319  0.3000  0.1800
  206MOL    O6716877   7.722   3.085   1.788 -0.4526 -0.2866  0.3809
  206MOL    H6816878   7.576   3.217   1.839 -2.4447 -0.3011  1.0984
  206MOL    H6916879   7.527   3.061   1.779  0.8479  0.8074 -1.6278
  206MOL    C7016880   0.039   3.150   1.853  0.0131 -0.1700  0.1948
  206MOL    O7116881   0.156   3.109   1.800 -0.3583 -0.5673  0.1327
  206MOL    H7216882   0.054   3.147   1.961 -0.0872 -0.0029  0.2126
  206MOL    H7316883   0.036   3.256   1.828  2.3341 -0.3068 -0.8049
  206MOL    C7416884   0.193   2.983   1.831  0.2630 -0.4254  0.0979
  206MOL    O7516885   0.293   2.933   1.746 -0.1846  0.6481  0.1483
  206MOL    H7616886   0.104   2.920   1.828  0.5692 -0.8451 -0.3960
  206MOL    H7716887   0.232   2.981   1.932 -1.8688  0.8971  0.9839
  206MOL    C7816888   0.247   2.929   1.616 -0.2784 -0.4709  0.1119
  206MOL    O7916889   0.209   2.800   1.576 -0.3557 -0.1223 -0.0978
  206MOL    H8016890   0.334   2.962   1.561 -1.1116  0.4905 -0.6463
  206MOL    H8116891   0.172   3.004   1.589  1.1692  0.2834 -1.9257
  206MOL    H8216892   0.262   2.778   1.501  0.2315 -0.6153  0.4539
  207MOL     C116893   5.411   0.855   5.792 -0.7262 -0.1206 -0.5114
  207MOL     O216894   5.319   0.761   5.743 -0.7635  0.0979 -0.5046
  207MOL     H316895   5.434   0.836   5.897 -1.8195  3.5551  0.4588
  207MOL     H416896   5.506   0.851   5.738  0.2889  1.3015  1.0973
  207MOL     H516897   5.369   0.954   5.783 -0.7722 -0.1508 -0.6232
  207MOL     C616898   5.361   0.628   5.755  0.6041  0.4704 -0.3496
  207MOL     O716899   5.418   0.588   5.876 -0.7577 -0.1084  0.3089
  207MOL     H816900   5.430   0.620   5.672  0.6110  3.8091 -0.7430
  207MOL     H916901   5.286   0.553   5.730  2.4142 -2.1653  1.9524
  207MOL    C1016902   5.328   0.544   5.963  0.5056  0.1014 -0.6693
  207MOL    O1116903   5.278   0.416   5.937  0.2588  0.5854  0.4214
  207MOL    H1216904   5.247   0.616   5.966  1.7528  1.6348 -2.6906
  207MOL    H1316905   5.379   0.548   6.060  0.3261  0.8444 -0.6072
  207MOL    C1416906   5.373   0.318   5.957 -0.4199 -0.2234  0.3016
  207MOL    O1516907   5.323   0.197   5.931 -0.0317 -0.6270  0.0770
  207MOL    H1616908   5.419   0.332   6.055  2.2105 -2.1194 -0.5945
  207MOL    H1716909   5.454   0.332   5.885  0.5220  1.2403  1.6003
  207MOL    C1816910   5.248   0.141   6.032 -0.0416 -0.6277  0.0212
  207MOL    O1916911   5.317   0.057   6.113 -0.2869 -0.1945  0.6742
  207MOL    H2016912   5.165   0.087   5.988 -0.1137 -0.6560  0.1897
  207MOL    H2116913   5.196   0.215   6.093 -1.0098 -1.9764  0.8584
  207MOL    C2216914   5.245   0.003   6.219 -1.2088 -0.0404  0.2912
  207MOL    O2316915   5.250   0.089   6.330  0.3070  0.0841 -0.0044
  207MOL    H2416916   5.300   7.694   6.233  1.4249  1.5239  0.8221
  207MOL    H2516917   5.146   7.755   6.186 -1.0075  1.2155 -1.5741
  207MOL    C2616918   5.372   0.087   6.393 -0.2396  0.4181  0.1975
  207MOL    O2716919   5.409   7.747   6.445 -0.3162 -0.1589  0.0644
  207MOL    H2816920   5.364   0.163   6.471  0.8029  1.8295 -1.0345
  207MOL    H2916921   5.458   0.109   6.331  0.7177 -2.2534  0.5174
  207MOL    C3016922   5.358   7.725   6.573 -0.2324 -0.1604 -0.1078
  207MOL    O3116923   5.411   0.030   6.654 -0.3929  0.2134 -0.7560
  207MOL    H3216924   5.370   7.621   6.604  1.6710  0.4742  1.4478
  207MOL    H3316925   5.253   7.754   6.575 -0.5250 -1.2825  2.8280
  207MOL    C3416926   5.529   7.778   6.713  0.3479 -0.4471 -0.2795
  207MOL    O3516927   5.522   7.673   6.810 -0.1234  0.1395 -0.0029
  207MOL    H3616928   5.550   0.091   6.758 -1.4566  1.1819 -2.7788
  207MOL    H3716929   5.610   7.765   6.642  0.4166  2.0254 -0.6961
  207MOL    C3816930   5.648   7.644   6.854  0.1565  0.4659  0.4812
  207MOL    O3916931   5.695   7.752   6.935 -0.6099 -0.6781 -0.5048
  207MOL    H4016932   5.712   7.617   6.770 -1.4393 -1.0024 -0.2990
  207MOL    H4116933   5.645   7.552   6.912  0.0657 -1.1683 -2.0806
  207MOL    C4216934   5.613   7.778   7.047  0.5851  0.9866  0.4522
  207MOL    O4316935   5.635   0.116   7.102 -0.3498  0.3742  0.1051
  207MOL    H4416936   5.614   7.709   7.131  1.3887  1.9635  1.2541
  207MOL    H4516937   5.509   7.769   7.016  0.8652  2.1525 -0.8912
  207MOL    C4616938   5.758   0.111   7.177 -0.6522 -0.3585 -0.6791
  207MOL    O4716939   5.750   0.194   7.291 -0.1045  0.4045 -0.0208
  207MOL    H4816940   5.834   0.143   7.106  1.7192  1.2278  2.4536
  207MOL    H4916941   5.781   0.012   7.216 -1.0382 -0.2545 -0.1762
  207MOL    C5016942   5.678   0.136   7.398 -0.4731 -0.5052  0.2934
  207MOL    O5116943   5.756   0.076   7.493  0.3119  0.2381  0.3140
  207MOL    H5216944   5.599   0.067   7.370  1.0894 -2.2705  0.1340
  207MOL    H5316945   5.642   0.226   7.448  1.2394 -0.1950  1.0425
  207MOL    C5416946   5.681   0.043   7.610 -0.0927 -0.5569  1.0834
  207MOL    O5516947   5.656   0.150   7.693  0.2759 -0.5941  0.6217
  207MOL    H5616948   5.742   7.752   7.662  1.1724 -0.6269 -0.4596
  207MOL    H5716949   5.583   0.007   7.577  0.0008 -0.0218  0.2168
  207MOL    C5816950   5.772   0.187   7.769  0.1982 -0.9641  0.5628
  207MOL    O5916951   5.817   0.086   0.063  0.2494  0.8071 -0.7005
  207MOL    H6016952   5.766   0.288   0.025  2.8404  0.6494 -2.8161
  207MOL    H6116953   5.853   0.198   7.697 -0.2891 -0.2704  0.1188
  207MOL    C6216954   5.755   0.093   0.189 -0.2980  0.6690  0.1979
  207MOL    O6316955   5.788   0.207   0.266 -0.4425 -0.1278 -0.5520
  207MOL    H6416956   5.778   0.002   0.244  0.0617 -0.8181 -2.3547
  207MOL    H6516957   5.649   0.100   0.168 -0.5226 -2.9097 -0.0903
  207MOL    C6616958   5.917   0.194   0.311 -0.6127 -0.5966  0.6378
  207MOL    O6716959   5.936   0.097   0.406  0.4495 -0.6309  0.1750
  207MOL    H6816960   5.952   0.285   0.361  0.0106 -1.7498  2.3384
  207MOL    H6916961   5.986   0.176   0.229 -0.6753 -0.7549  0.6189
  207MOL    C7016962   5.867   0.119   0.524  0.0051 -0.3061  0.1993
  207MOL    O7116963   5.911   0.233   0.594 -0.1973  0.1950  0.1644
  207MOL    H7216964   5.895   0.036   0.589  0.2996 -1.2999 -1.1771
  207MOL    H7316965   5.760   0.105   0.507  0.2879 -2.1658 -0.1592
  207MOL    C7416966   6.029   0.221   0.658 -0.2050  0.3391  0.2831
  207MOL    O7516967   6.016   0.135   0.771  0.1381 -0.0832 -0.5160
  207MOL    H7616968   6.043   0.319   0.705 -3.1078  1.0046 -0.1698
  207MOL    H7716969   6.113   0.188   0.597  0.0562  2.1901 -0.3891
  207MOL    C7816970   6.137   0.121   0.843  0.2907 -0.1236 -0.0609
  207MOL    O7916971   6.155   0.226   0.934  0.4296  0.0061 -0.6739
  207MOL    H8016972   6.229   0.116   0.786 -0.1863 -0.0838 -0.8474
  207MOL    H8116973   6.135   0.033   0.908 -2.9188  0.0145  0.1199
  207MOL    H8216974   6.086   0.229   0.998  3.2771  1.6397  2.4487
  208MOL     C116975   2.419   3.678   6.147  0.6834  0.1388  0.4070
  208MOL     O216976   2.333   3.788   6.154  0.1303  0.1407  0.1064
  208MOL     H316977   2.391   3.598   6.215 -0.8122 -0.0417 -0.4057
  208MOL     H416978   2.415   3.635   6.047 -0.2790 -4.0290  2.1189
  208MOL     H516979   2.523   3.704   6.167  0.3578 -0.3889  2.9887
  208MOL     C616980   2.293   3.827   6.283 -0.1326 -0.1126 -0.2491
  208MOL     O716981   2.199   3.740   6.345 -0.1309 -0.4969 -0.2264
  208MOL     H816982   2.245   3.925   6.284 -1.3401 -0.6956  0.4673
  208MOL     H916983   2.377   3.850   6.349 -0.4397 -0.6690  0.3426
  208MOL    C1016984   2.069   3.756   6.309 -0.1039  0.1847  0.3221
  208MOL    O1116985   2.011   3.871   6.377  0.2744 -0.0884 -0.3738
  208MOL    H1216986   2.020   3.664   6.341  1.5720 -0.7715  0.2006
  208MOL    H1316987   2.050   3.765   6.202  2.0209  0.6335 -0.0320
  208MOL    C1416988   1.967   3.836   6.508 -0.3369 -0.0270 -0.3081
  208MOL    O1516989   1.848   3.779   6.499  0.3456  0.2140 -0.5075
  208MOL    H1616990   1.965   3.929   6.564 -0.4351 -0.8390  1.0583
  208MOL    H1716991   2.041   3.777   6.563  0.1994  0.0991 -0.8974
  208MOL    C1816992   1.740   3.864   6.476  0.2127  0.4929  0.1433
  208MOL    O1916993   1.722   3.936   6.588  0.2639  0.0517 -0.3007
  208MOL    H2016994   1.647   3.811   6.458  1.8193 -1.9713 -1.2525
  208MOL    H2116995   1.765   3.924   6.389  0.9484  1.2748  0.8755
  208MOL    C2216996   1.624   4.031   6.583  0.1275  0.4646  0.5852
  208MOL    O2316997   1.683   4.148   6.532  0.3143  0.0726  0.1002
  208MOL    H2416998   1.590   4.046   6.685  0.2132 -2.0185  1.0112
  208MOL    H2516999   1.537   4.008   6.522 -0.1361 -0.2551  1.2228
  208MOL    C2617000   1.792   4.194   6.610 -0.0073 -0.6741  0.1956
  208MOL    O2717001   1.755   4.267   6.726  0.2708  0.3572  0.0410
  208MOL    H2817002   1.852   4.261   6.548 -0.1074  1.5055  2.3561
  208MOL    H2917003   1.862   4.115   6.636  0.2591 -0.6277 -0.3566
  208MOL    C3017004   1.719   4.398   6.701  0.2496 -0.8925  0.0087
  208MOL    O3117005   1.820   4.485   6.640 -0.1250  0.3715  0.2706
  208MOL    H3217006   1.686   4.444   6.795 -0.4788 -1.2709 -0.0547
  208MOL    H3317007   1.637   4.402   6.629  2.2819 -0.7746 -2.3537
  208MOL    C3417008   1.920   4.531   6.732  0.9975  0.3112  0.3585
  208MOL    O3517009   1.866   4.632   6.807  0.1464  0.6113 -0.0415
  208MOL    H3617010   2.002   4.562   6.668 -0.3708  1.8596 -0.7010
  208MOL    H3717011   1.964   4.456   6.797 -0.2486  1.8577  3.0907
  208MOL    C3817012   1.961   4.692   6.883 -0.2448  0.2171  0.2059
  208MOL    O3917013   2.050   4.752   6.804  0.1557 -0.1150 -0.2151
  208MOL    H4017014   2.015   4.620   6.944 -0.1953  0.5556  0.5652
  208MOL    H4117015   1.909   4.748   6.960 -0.4346  1.3724 -0.7445
  208MOL    C4217016   1.992   4.854   6.729 -0.3963  0.2882  1.2448
  208MOL    O4317017   2.086   4.924   6.654 -0.5649  0.6446  0.1772
  208MOL    H4417018   1.939   4.922   6.795 -1.5930 -0.9753  1.6074
  208MOL    H4517019   1.930   4.813   6.650 -0.1864  0.0131  1.2194
  208MOL    C4617020   2.177   4.990   6.730  0.4652  0.1574  0.0161
  208MOL    O4717021   2.113   5.093   6.803 -0.5617 -0.2025 -0.5537
  208MOL    H4817022   2.251   5.037   6.665  0.3079  0.4801  0.0727
  208MOL    H4917023   2.229   4.925   6.801 -0.4856 -1.4527 -0.7348
  208MOL    C5017024   2.084   5.206   6.722  0.1763  0.3659  0.5709
  208MOL    O5117025   2.071   5.320   6.797 -0.1886  0.4273  0.4367
  208MOL    H5217026   1.993   5.186   6.665 -0.8416 -1.5036  2.7714
  208MOL    H5317027   2.172   5.228   6.663  0.6590 -0.9938  0.7784
  208MOL    C5417028   1.953   5.321   6.875  0.3249 -0.4067 -0.3317
  208MOL    O5517029   1.846   5.328   6.795  0.6737  0.3800 -0.1275
  208MOL    H5617030   1.941   5.397   6.952  2.9539 -0.1782 -0.0981
  208MOL    H5717031   1.952   5.226   6.929 -0.1643  0.3066  0.9262
  208MOL    C5817032   1.823   5.454   6.743 -0.2653 -0.1729  0.1064
  208MOL    O5917033   1.767   5.536   6.836 -0.0509 -0.6407  0.4241
  208MOL    H6017034   1.747   5.430   6.668  1.2887 -0.8682 -1.2614
  208MOL    H6117035   1.906   5.502   6.691  0.3749  1.3329  2.4722
  208MOL    C6217036   1.708   5.652   6.789 -0.1637  0.6683  0.1979
  208MOL    O6317037   1.805   5.727   6.723 -0.3930  1.5784 -0.2170
  208MOL    H6417038   1.658   5.697   6.874  0.6026 -0.2432  1.1390
  208MOL    H6517039   1.631   5.630   6.715  0.9986  1.1375 -1.1783
  208MOL    C6617040   1.898   5.772   6.823  0.3295  0.3062 -0.0945
  208MOL    O6717041   1.967   5.880   6.764  0.5083  0.1183  0.1889
  208MOL    H6817042   1.977   5.699   6.837  0.7942  0.6611 -0.8460
  208MOL    H6917043   1.854   5.795   6.920 -1.3244 -0.7302 -0.5886
  208MOL    C7017044   1.902   6.000   6.781  0.0088  0.1118 -0.8156
  208MOL    O7117045   1.913   6.058   6.906  0.3129  0.0721  0.4650
  208MOL    H7217046   1.794   5.985   6.771 -0.4200 -0.3856  3.3957
  208MOL    H7317047   1.950   6.051   6.699  0.1121  0.9725 -0.2245
  208MOL    C7417048   2.042   6.101   6.934 -0.3708  0.1510  0.2802
  208MOL    O7517049   2.045   6.151   7.063 -0.1488 -0.1396  0.0150
  208MOL    H7617050   2.063   6.180   6.863 -0.2890 -0.1734 -0.0563
  208MOL    H7717051   2.122   6.030   6.915 -1.4281 -0.6752 -1.2122
  208MOL    C7817052   2.169   6.203   7.092 -0.0137  0.6685  0.2278
  208MOL    O7917053   2.272   6.102   7.113 -0.1674  0.5696  0.1316
  208MOL    H8017054   2.171   6.267   7.180 -3.1158  0.3812  0.5496
  208MOL    H8117055   2.213   6.254   7.006 -0.1918 -0.4218 -0.5303
  208MOL    H8217056   2.256   6.050   7.189  0.8044  0.5488  0.3333
  209MOL     C117057   0.477   0.206   3.874 -0.0731  0.0791  0.0617
  209MOL     O217058   0.448   0.067   3.902  0.2703 -0.4584  0.4437
  209MOL     H317059   0.441   0.284   3.941  0.8110  1.5410 -1.1245
  209MOL     H417060   0.582   0.221   3.850  0.0495  0.6695  0.9779
  209MOL     H517061   0.429   0.237   3.780 -0.1086 -0.6429 -0.1573
  209MOL     C617062   0.515   0.022   4.017 -0.3642 -0.6438  0.0449
  209MOL     O717063   0.649   0.031   4.000  0.3363 -0.2711  0.5220
  209MOL     H817064   0.476   7.706   4.037  0.4267 -0.7696  1.0163
  209MOL     H917065   0.484   0.090   4.097 -2.4235  1.4089 -2.3967
  209MOL    C1017066   0.705   7.701   3.949  0.1568 -0.9619  0.9071
  209MOL    O1117067   0.721   7.596   4.045 -0.1484 -0.0860 -0.0354
  209MOL    H1217068   0.802   7.719   3.903  1.0917 -3.7171  1.7295
  209MOL    H1317069   0.639   7.661   3.872 -1.3225 -0.5900  1.9535
  209MOL    C1417070   0.804   7.642   4.152 -0.0768  0.5680  0.5623
  209MOL    O1517071   0.801   7.551   4.261 -0.1605 -0.1262  0.1698
  209MOL    H1617072   0.771   7.739   4.189  0.5082  1.2240 -0.6112
  209MOL    H1717073   0.903   7.643   4.107  0.1004  0.2597  0.9418
  209MOL    C1817074   0.854   7.428   4.229  0.6812 -0.2196 -0.2858
  209MOL    O1917075   0.994   7.419   4.246 -0.0104  0.8946  0.1584
  209MOL    H2017076   0.855   7.399   4.124  0.2652  0.5567 -0.5072
  209MOL    H2117077   0.801   7.351   4.286 -1.6299  1.2054 -0.4848
  209MOL    C2217078   1.028   7.469   4.366 -0.4545 -0.5189 -0.1418
  209MOL    O2317079   1.156   7.437   4.409 -0.3280  0.0526  0.0292
  209MOL    H2417080   0.959   7.429   4.440  0.9117 -0.7313  1.0459
  209MOL    H2517081   1.022   7.578   4.362 -2.3347 -0.5540  0.9969
  209MOL    C2617082   1.184   7.295   4.413  0.3678 -0.0624  1.0840
  209MOL    O2717083   1.091   7.218   4.482  0.0765 -0.9357 -0.4796
  209MOL    H2817084   1.282   7.273   4.455 -0.7112 -0.1356  3.6301
  209MOL    H2917085   1.170   7.252   4.314  1.4840 -0.2522  1.0105
  209MOL    C3017086   1.102   7.232   4.615 -0.0803 -0.2269 -0.8775
  209MOL    O3117087   1.218   7.166   4.659 -1.1938  0.1449 -0.3375
  209MOL    H3217088   1.014   7.188   4.662 -0.3563  2.1023  0.9192
  209MOL    H3317089   1.103   7.340   4.635  1.9795  0.3274 -3.7647
  209MOL    C3417090   1.287   7.223   4.768  0.5323 -0.3326 -0.5452
  209MOL    O3517091   1.407   7.177   4.800  0.3738 -0.0394  0.2939
  209MOL    H3617092   1.223   7.212   4.856  1.2937 -0.4217 -0.0008
  209MOL    H3717093   1.302   7.331   4.755 -0.8577 -0.0241  0.2910
  209MOL    C3817094   1.404   7.043   4.822  0.3376  0.2081 -0.2514
  209MOL    O3917095   1.344   7.019   4.950  0.6464 -0.0483 -0.0910
  209MOL    H4017096   1.508   7.012   4.827  0.5837  0.8279 -1.4024
  209MOL    H4117097   1.354   6.998   4.736  0.6347  0.5955 -0.6295
  209MOL    C4217098   1.433   7.052   5.049 -0.1352 -0.3055  0.4291
  209MOL    O4317099   1.357   7.060   5.168 -0.9476  0.1753  0.5574
  209MOL    H4417100   1.487   7.140   5.015 -1.4765  0.6815  0.7965
  209MOL    H4517101   1.517   6.983   5.060  0.4714  0.6573  1.8076
  209MOL    C4617102   1.435   7.127   5.265  0.1680 -0.1117 -0.1836
  209MOL    O4717103   1.534   7.048   5.307  0.0524 -0.5333 -0.1371
  209MOL    H4817104   1.369   7.164   5.343  1.2551 -0.0242  0.7065
  209MOL    H4917105   1.481   7.217   5.225  1.1237 -0.0761  0.9528
  209MOL    C5017106   1.495   6.932   5.369  0.6095  0.8372  0.2834
  209MOL    O5117107   1.427   6.955   5.490 -0.2614  0.4046 -0.2466
  209MOL    H5217108   1.583   6.869   5.379 -1.5780 -2.0281  2.2147
  209MOL    H5317109   1.436   6.874   5.298  0.9007  1.1786 -0.2404
  209MOL    C5417110   1.499   7.037   5.578 -0.0538  0.2943  0.4874
  209MOL    O5517111   1.612   6.974   5.628 -0.7608 -0.7685 -0.1020
  209MOL    H5617112   1.422   7.062   5.651 -1.7160 -3.2054 -0.0158
  209MOL    H5717113   1.526   7.137   5.542 -1.2693  1.1592  1.9257
  209MOL    C5817114   1.686   7.055   5.715  0.0768 -0.0222 -0.5007
  209MOL    O5917115   1.719   7.186   5.669 -0.0214 -0.2166  0.0605
  209MOL    H6017116   1.782   7.012   5.745 -0.2733 -1.3567 -1.2451
  209MOL    H6117117   1.630   7.058   5.808  0.3027 -2.2672 -0.2544
  209MOL    C6217118   1.802   7.183   5.555 -0.6637  0.4909  0.2388
  209MOL    O6317119   1.935   7.151   5.584  0.1566  0.1294  0.5118
  209MOL    H6417120   1.791   7.280   5.506 -0.6544  0.0929 -0.5568
  209MOL    H6517121   1.774   7.103   5.487 -0.0772 -0.8583  1.5570
  209MOL    C6617122   1.993   7.252   5.667 -0.1528  0.0483 -0.3190
  209MOL    O6717123   2.129   7.227   5.688 -0.4538  0.0087  0.5570
  209MOL    H6817124   1.929   7.250   5.756  2.5901  0.1963  1.7089
  209MOL    H6917125   1.990   7.353   5.625 -0.7865 -0.0957 -0.6224
  209MOL    C7017126   2.203   7.247   5.572 -0.6958 -0.9246 -0.2124
  209MOL    O7117127   2.248   7.381   5.563 -0.1125  0.2938  0.2724
  209MOL    H7217128   2.149   7.220   5.481  1.6134 -2.0070 -1.3339
  209MOL    H7317129   2.285   7.175   5.577 -0.5444 -0.6872  0.9245
  209MOL    C7417130   2.326   7.412   5.449  0.2545  0.3088 -0.2091
  209MOL    O7517131   2.443   7.337   5.438  0.2097 -0.2469 -0.2351
  209MOL    H7617132   2.343   7.519   5.448 -0.4058  0.4125 -0.1581
  209MOL    H7717133   2.269   7.403   5.356  0.6642  1.8448 -0.6230
  209MOL    C7817134   2.522   7.351   5.548  0.1828 -0.4884 -0.3671
  209MOL    O7917135   2.660   7.345   5.519 -0.6050  0.4004 -0.2755
  209MOL    H8017136   2.506   7.274   5.623  0.2589 -0.7125 -0.5808
  209MOL    H8117137   2.501   7.446   5.599 -0.7489 -1.0523  0.3133
  209MOL    H8217138   2.689   7.434   5.531  1.5270 -0.3072 -0.0655
  210MOL     C117139   6.327   7.695   1.262 -0.2479  0.0294 -0.2339
  210MOL     O217140   6.199   7.636   1.234 -0.1595  0.1085 -0.3971
  210MOL     H317141   6.322   7.718   1.369  0.8682  0.5064 -0.2750
  210MOL     H417142   6.409   7.626   1.249 -1.1401 -0.9631 -0.6562
  210MOL     H517143   6.324   0.010   1.215  2.0062 -0.2602 -0.9958
  210MOL     C617144   6.186   7.515   1.308  0.2589 -0.2443  0.0545
  210MOL     O717145   6.267   7.417   1.252 -0.1201 -0.0930  0.0372
  210MOL     H817146   6.083   7.480   1.316  0.0777 -0.6881 -3.3313
  210MOL     H917147   6.222   7.531   1.409 -2.1146 -0.7308  1.0145
  210MOL    C1017148   6.204   7.359   1.139  0.0689 -0.0290  0.6311
  210MOL    O1117149   6.123   7.249   1.177 -0.4732  0.6806 -0.9198
  210MOL    H1217150   6.284   7.337   1.068 -0.2085  1.1344 -0.0483
  210MOL    H1317151   6.139   7.432   1.090 -0.8945 -1.9017 -0.9661
  210MOL    C1417152   6.192   7.130   1.172 -0.0555 -0.7870 -0.6352
  210MOL    O1517153   6.207   7.082   1.039 -0.2065  0.1581  0.2277
  210MOL    H1617154   6.139   7.052   1.227 -0.4808  0.4574  0.7429
  210MOL    H1717155   6.293   7.141   1.212 -1.0097  1.3193  1.3006
  210MOL    C1817156   6.085   7.041   0.978  0.1449 -0.5110 -0.2629
  210MOL    O1917157   6.049   6.910   1.016 -0.2088  0.0911 -0.5776
  210MOL    H2017158   6.103   7.051   0.871  0.5978  0.0260 -0.1437
  210MOL    H2117159   6.014   7.119   1.005  1.1285  0.4872 -0.5265
  210MOL    C2217160   5.932   6.867   0.958 -0.2887 -0.3244  0.2210
  210MOL    O2317161   5.826   6.957   0.983  0.0748  0.5492 -1.0346
  210MOL    H2417162   5.915   6.772   1.009  0.9565 -0.7616 -0.1638
  210MOL    H2517163   5.935   6.855   0.850  1.5388  1.2069  0.0800
  210MOL    C2617164   5.787   6.953   1.115 -0.0834  0.2827  0.5956
  210MOL    O2717165   5.726   6.832   1.138  0.2428  0.5873 -0.5477
  210MOL    H2817166   5.714   7.034   1.127  0.0061  0.3382  0.7702
  210MOL    H2917167   5.857   6.968   1.197 -1.2248  1.6556  1.3511
  210MOL    C3017168   5.590   6.823   1.107 -0.0138 -0.1572  0.0309
  210MOL    O3117169   5.508   6.909   1.187 -0.6051 -0.2507  0.1364
  210MOL    H3217170   5.547   6.723   1.117 -1.1957  0.2918 -0.4704
  210MOL    H3317171   5.576   6.847   1.001  0.8144  1.5653  0.2959
  210MOL    C3417172   5.494   6.861   1.323 -0.4767  0.2768 -0.3967
  210MOL    O3517173   5.415   6.754   1.335  0.2815 -0.2501  0.6717
  210MOL    H3617174   5.448   6.929   1.394 -1.6512  0.0791 -0.9640
  210MOL    H3717175   5.593   6.835   1.361  0.5324  1.2907 -2.2252
  210MOL    C3817176   5.283   6.792   1.314  0.2080 -0.3433 -0.4382
  210MOL    O3917177   5.222   6.775   1.436  0.1626 -0.4807 -0.5227
  210MOL    H4017178   5.244   6.714   1.248  0.1556 -0.8021  0.1387
  210MOL    H4117179   5.260   6.883   1.257  2.8681  1.5644  1.4235
  210MOL    C4217180   5.090   6.820   1.438 -0.3651 -0.6483  0.2092
  210MOL    O4317181   5.010   6.754   1.347 -0.4617  0.8603  0.7409
  210MOL    H4417182   5.095   6.926   1.412  0.2084 -0.5842  0.5598
  210MOL    H4517183   5.064   6.806   1.543 -1.9995  0.7936  0.0103
  210MOL    C4617184   4.960   6.631   1.392 -0.2842  0.3342  0.5876
  210MOL    O4717185   4.854   6.636   1.481 -0.2375  0.0416 -0.0957
  210MOL    H4817186   5.038   6.569   1.436 -0.0317  0.2081 -0.0273
  210MOL    H4917187   4.924   6.583   1.301 -1.5887  3.6421 -0.7099
  210MOL    C5017188   4.741   6.685   1.420 -0.5233 -0.2029  0.0168
  210MOL    O5117189   4.693   6.589   1.337 -0.6482 -0.0140 -0.0647
  210MOL    H5217190   4.769   6.777   1.367 -0.6179  1.0425  2.0796
  210MOL    H5317191   4.666   6.707   1.495 -0.5076  0.8550 -0.2645
  210MOL    C5417192   4.650   6.471   1.400 -0.1012 -0.5721  0.1770
  210MOL    O5517193   4.527   6.491   1.457 -0.1295  0.5814 -0.2089
  210MOL    H5617194   4.714   6.430   1.478  0.4853 -1.7115 -0.8943
  210MOL    H5717195   4.648   6.386   1.332 -0.8596 -1.9299  1.8540
  210MOL    C5817196   4.418   6.472   1.377  0.3616  0.1826 -0.0560
  210MOL    O5917197   4.402   6.580   1.290 -0.2502 -0.0795  0.4014
  210MOL    H6017198   4.335   6.454   1.445  0.8988 -0.4966  0.4278
  210MOL    H6117199   4.425   6.381   1.317 -0.1787 -0.4302  0.8005
  210MOL    C6217200   4.378   6.703   1.359 -0.5678 -0.2137 -0.2217
  210MOL    O6317201   4.266   6.698   1.446  0.3831  0.3472  0.0866
  210MOL    H6417202   4.376   6.779   1.281 -2.6062 -1.0330 -1.0175
  210MOL    H6517203   4.463   6.721   1.424 -1.4089 -1.3101  1.2077
  210MOL    C6617204   4.136   6.683   1.371  0.1851 -0.4013  0.1766
  210MOL    O6717205   4.049   6.618   1.458 -0.2067  0.2057  0.6685
  210MOL    H6817206   4.140   6.619   1.282 -2.7581  0.8503 -0.8984
  210MOL    H6917207   4.090   6.771   1.328  0.7325 -0.2381 -0.0805
  210MOL    C7017208   3.995   6.698   1.559 -1.2747 -0.4554  0.2566
  210MOL    O7117209   3.917   6.609   1.633  0.3548 -0.2397 -0.2589
  210MOL    H7217210   3.938   6.784   1.523 -3.6150 -2.3586 -0.7479
  210MOL    H7317211   4.073   6.737   1.623 -1.1974  1.5518 -1.0146
  210MOL    C7417212   3.825   6.669   1.718  0.5374  0.3610  0.6438
  210MOL    O7517213   3.726   6.738   1.647 -0.0759  0.3913 -0.0981
  210MOL    H7617214   3.876   6.752   1.766  3.4306  0.1795 -1.9459
  210MOL    H7717215   3.790   6.605   1.799 -0.6233  0.6495  0.3821
  210MOL    C7817216   3.642   6.648   1.579 -0.5677  0.0239  0.8770
  210MOL    O7917217   3.542   6.724   1.504 -0.3104 -0.3293  0.2528
  210MOL    H8017218   3.589   6.571   1.635 -1.0633  0.6298  1.2532
  210MOL    H8117219   3.706   6.598   1.506 -0.8165  1.9276 -0.6850
  210MOL    H8217220   3.488   6.767   1.568  2.1685  0.8796  1.6100
  211MOL     C117221   2.962   1.447   1.979  0.2581  0.2559 -0.1211
  211MOL     O217222   2.940   1.454   1.840 -0.4539 -0.0560  0.7141
  211MOL     H317223   2.869   1.420   2.028 -1.1053 -0.5988 -3.0269
  211MOL     H417224   3.040   1.373   1.994 -0.0778  0.0248  0.4832
  211MOL     H517225   3.000   1.541   2.019  1.3615 -0.5879  0.8029
  211MOL     C617226   2.915   1.576   1.787  0.4054 -0.3235  0.4351
  211MOL     O717227   2.781   1.607   1.801  0.1848 -0.1561  0.1523
  211MOL     H817228   2.945   1.562   1.683 -0.6313 -0.9725  0.2111
  211MOL     H917229   2.975   1.654   1.834  2.6316 -1.2757 -0.7393
  211MOL    C1017230   2.709   1.574   1.691 -0.3445  0.6153 -0.7929
  211MOL    O1117231   2.695   1.429   1.687 -0.4790  0.3714 -0.2713
  211MOL    H1217232   2.732   1.610   1.590 -1.7412  1.6624 -0.7509
  211MOL    H1317233   2.611   1.619   1.706  0.5125  2.1040  0.4066
  211MOL    C1417234   2.610   1.383   1.790 -0.6550 -0.1360  0.3160
  211MOL    O1517235   2.562   1.251   1.776 -0.6932  0.2927  1.0110
  211MOL    H1617236   2.521   1.446   1.795 -0.3372  0.4010 -0.6885
  211MOL    H1717237   2.668   1.396   1.881  2.7992 -1.6977 -1.5507
  211MOL    C1817238   2.482   1.227   1.663 -0.1723 -0.2154 -0.0777
  211MOL    O1917239   2.359   1.286   1.675 -0.6264  0.2061 -0.3406
  211MOL    H2017240   2.472   1.121   1.641 -0.5022 -0.1200 -0.4070
  211MOL    H2117241   2.537   1.266   1.577  0.1408 -2.2590 -0.8119
  211MOL    C2217242   2.262   1.214   1.742 -0.3223  0.2720 -0.5548
  211MOL    O2317243   2.237   1.096   1.674 -0.1460  0.4043  0.4702
  211MOL    H2417244   2.173   1.274   1.760  0.1659  0.3504  1.7328
  211MOL    H2517245   2.297   1.184   1.841  1.2444 -2.3418 -1.8376
  211MOL    C2617246   2.134   1.029   1.721 -0.1230 -0.0607 -0.3041
  211MOL    O2717247   2.023   1.062   1.644  0.1023  0.3284 -0.2020
  211MOL    H2817248   2.114   1.063   1.822 -0.5130 -0.1455 -0.3495
  211MOL    H2917249   2.156   0.923   1.733  0.0213 -0.0948 -0.8290
  211MOL    C3017250   2.024   0.986   1.529  0.3931  0.8239 -0.1165
  211MOL    O3117251   1.980   0.856   1.553  0.0704  0.2910 -0.2537
  211MOL    H3217252   2.124   0.985   1.486 -0.3907  2.5403 -2.0399
  211MOL    H3317253   1.959   1.034   1.456 -0.4287 -0.9375 -0.5747
  211MOL    C3417254   1.853   0.856   1.606 -0.1132  0.3378  0.4322
  211MOL    O3517255   1.762   0.860   1.504 -0.3334  0.0245 -0.7239
  211MOL    H3617256   1.841   0.930   1.685 -1.6708 -1.1688  1.6369
  211MOL    H3717257   1.844   0.760   1.656 -1.7584  0.0437 -0.3863
  211MOL    C3817258   1.765   0.745   1.431  0.1013  0.3402  0.6006
  211MOL    O3917259   1.679   0.643   1.485 -0.2716  0.5213  0.4047
  211MOL    H4017260   1.861   0.694   1.422  0.0852 -0.3302  3.5823
  211MOL    H4117261   1.730   0.763   1.330 -2.0510  0.3633  1.3182
  211MOL    C4217262   1.545   0.682   1.478 -0.3018  0.2136 -0.1034
  211MOL    O4317263   1.459   0.621   1.567 -0.1480  0.1704  0.1155
  211MOL    H4417264   1.502   0.668   1.379 -0.6833 -1.1047  0.2429
  211MOL    H4517265   1.539   0.791   1.476  1.8044  0.3489 -1.8036
  211MOL    C4617266   1.519   0.621   1.690  0.1380 -0.5218 -0.0798
  211MOL    O4717267   1.538   0.747   1.740  0.0697  0.1019 -0.0288
  211MOL    H4817268   1.610   0.565   1.711  1.4285  1.3635 -0.5063
  211MOL    H4917269   1.443   0.577   1.756 -0.7319  1.1807  0.0966
  211MOL    C5017270   1.415   0.816   1.781 -0.0432 -0.0074  0.7421
  211MOL    O5117271   1.372   0.766   1.907 -0.5539 -0.5753 -0.7438
  211MOL    H5217272   1.337   0.815   1.705  0.0261 -0.3270  0.6737
  211MOL    H5317273   1.447   0.920   1.785 -0.7995  0.4002 -2.1960
  211MOL    C5417274   1.463   0.797   2.003 -0.3068 -0.2421 -0.3726
  211MOL    O5517275   1.466   0.936   2.039  0.0907 -0.2816 -0.2209
  211MOL    H5617276   1.566   0.767   1.988 -0.1892 -0.7794  1.3632
  211MOL    H5717277   1.439   0.744   2.096 -0.2180  1.0463  0.4050
  211MOL    C5817278   1.360   0.978   2.115  0.1181 -0.6109  0.2340
  211MOL    O5917279   1.383   0.940   2.245  0.6494 -0.0905 -0.8636
  211MOL    H6017280   1.272   0.941   2.061 -0.1623  0.9722 -0.4176
  211MOL    H6117281   1.348   1.086   2.105  0.8185 -0.6801 -1.6727
  211MOL    C6217282   1.280   0.957   2.336 -0.1727  0.5504  0.7432
  211MOL    O6317283   1.157   0.918   2.288 -0.4361 -0.3722  0.3737
  211MOL    H6417284   1.275   1.066   2.341  0.5353  0.7394 -1.7853
  211MOL    H6517285   1.307   0.939   2.440  2.8944  2.0220  0.2611
  211MOL    C6617286   1.139   0.779   2.271  0.3197 -0.5685 -0.4226
  211MOL    O6717287   1.142   0.707   2.384 -0.4060  0.8311  0.1628
  211MOL    H6817288   1.218   0.735   2.210  0.8679  0.7025 -0.6585
  211MOL    H6917289   1.044   0.766   2.219  0.2986 -1.1757 -0.2314
  211MOL    C7017290   1.256   0.627   2.403  0.7789  0.1783 -0.2622
  211MOL    O7117291   1.267   0.529   2.306  0.0788  0.4318  0.3060
  211MOL    H7217292   1.256   0.566   2.494  0.7301 -0.4204 -0.6596
  211MOL    H7317293   1.345   0.690   2.416 -0.4236  2.2691 -1.8859
  211MOL    C7417294   1.166   0.438   2.303 -0.0559 -1.0588  0.1042
  211MOL    O7517295   1.191   0.329   2.375  0.3288 -0.4159  0.0333
  211MOL    H7617296   1.130   0.401   2.207  1.9067 -1.9660 -0.3177
  211MOL    H7717297   1.076   0.482   2.346  0.1273 -0.8198  0.2409
  211MOL    C7817298   1.300   0.260   2.332 -0.4667 -1.2079 -0.3011
  211MOL    O7917299   1.295   0.129   2.381  0.2807  0.0530 -0.0840
  211MOL    H8017300   1.394   0.306   2.360  0.0049 -1.3446 -1.6127
  211MOL    H8117301   1.310   0.255   2.223  0.9618 -0.9192 -0.1875
  211MOL    H8217302   1.254   0.074   2.317  0.1092 -1.9317  1.6765
  212MOL     C117303   5.283   7.426   6.006 -0.2521  0.1712  0.4835
  212MOL     O217304   5.163   7.407   5.931 -0.2971 -0.5166 -0.3280
  212MOL     H317305   5.357   7.348   5.987  0.1542  0.6731 -0.0271
  212MOL     H417306   5.325   7.526   5.996  0.8612 -0.4245 -1.1600
  212MOL     H517307   5.256   7.410   6.110 -1.2859  1.0903  0.3616
  212MOL     C617308   5.063   7.489   5.975 -0.1707 -0.1928 -1.1419
  212MOL     O717309   5.080   7.622   5.941 -0.3749 -0.0313 -0.5729
  212MOL     H817310   5.041   7.497   6.081  0.9675 -5.3624 -0.4074
  212MOL     H917311   4.969   7.461   5.928 -1.5696 -0.6761  1.8144
  212MOL    C1017312   5.068   7.649   5.805 -0.2629  0.5898 -0.4083
  212MOL    O1117313   4.945   7.611   5.756  0.3080 -0.4766  0.4369
  212MOL    H1217314   5.143   7.588   5.754 -1.2436 -1.4672  0.5613
  212MOL    H1317315   5.099   7.751   5.783  1.2428  0.4160  0.7594
  212MOL    C1417316   4.927   7.633   5.626 -0.1806  0.1462  0.1348
  212MOL    O1517317   5.023   7.568   5.545 -0.1499 -0.0828  0.2744
  212MOL    H1617318   4.944   7.739   5.608  2.0235 -0.5419 -2.2239
  212MOL    H1717319   4.828   7.601   5.594 -0.3804  1.0934 -0.2086
  212MOL    C1817320   5.011   7.428   5.550 -0.2410  0.1383 -0.0578
  212MOL    O1917321   4.889   7.381   5.530 -0.3890  0.1757  0.0400
  212MOL    H2017322   5.070   7.385   5.631  2.4215  1.1131 -1.4101
  212MOL    H2117323   5.069   7.400   5.463  0.3768 -0.1955  0.4584
  212MOL    C2217324   4.902   7.237   5.529 -0.4453  0.8739 -0.3054
  212MOL    O2317325   4.938   7.189   5.657  0.0388 -0.2753  0.1287
  212MOL    H2417326   4.975   7.200   5.457 -1.2962 -2.0393  0.2740
  212MOL    H2517327   4.800   7.203   5.511  0.0667 -1.3224  0.7201
  212MOL    C2617328   4.852   7.218   5.755  0.7374  0.4494  0.1552
  212MOL    O2717329   4.718   7.165   5.744  0.6445 -0.6406  0.3876
  212MOL    H2817330   4.848   7.327   5.758 -0.5963  0.4429 -0.8291
  212MOL    H2917331   4.895   7.174   5.845  0.6615  0.2633  0.1010
  212MOL    C3017332   4.714   7.026   5.727 -0.4951  0.2478 -0.1102
  212MOL    O3117333   4.734   6.953   5.840 -0.2035  0.1419  0.3453
  212MOL    H3217334   4.791   6.992   5.658 -0.2272 -0.7085  0.6315
  212MOL    H3317335   4.620   7.011   5.674  0.4878 -0.3093 -1.7267
  212MOL    C3417336   4.618   6.935   5.915  0.2885  0.3706  0.0446
  212MOL    O3517337   4.652   6.870   6.036 -0.2187 -0.2713 -0.2857
  212MOL    H3617338   4.547   6.870   5.864 -3.4690  4.7367 -0.5629
  212MOL    H3717339   4.568   7.029   5.937 -1.0673  0.0663 -1.6383
  212MOL    C3817340   4.686   6.737   6.003 -0.5320 -0.1305 -0.8937
  212MOL    O3917341   4.567   6.671   5.974  0.4275  0.2574 -0.3435
  212MOL    H4017342   4.736   6.706   6.095  0.0136  1.6435 -0.5722
  212MOL    H4117343   4.753   6.732   5.917 -2.7076  1.0797 -2.7076
  212MOL    C4217344   4.541   6.574   6.066 -0.4136  0.3499  0.0930
  212MOL    O4317345   4.401   6.552   6.072 -0.4795 -0.0517 -0.5448
  212MOL    H4417346   4.570   6.605   6.166  0.7617  0.6357 -0.3289
  212MOL    H4517347   4.598   6.483   6.047 -1.9126 -0.9919  1.8834
  212MOL    C4617348   4.368   6.459   5.977  0.0024 -0.5091 -0.6768
  212MOL    O4717349   4.230   6.442   5.961  0.8774  0.0397 -0.0210
  212MOL    H4817350   4.421   6.365   5.993 -0.5375 -0.9992 -1.7037
  212MOL    H4917351   4.410   6.494   5.882  0.8087 -0.3550 -0.2682
  212MOL    C5017352   4.157   6.555   5.918  0.0232  0.2401  0.5727
  212MOL    O5117353   4.132   6.647   6.014 -0.1577  0.0346 -0.2098
  212MOL    H5217354   4.056   6.530   5.885  0.6701 -1.8537  0.1386
  212MOL    H5317355   4.212   6.598   5.834 -1.5050 -1.2682 -1.2351
  212MOL    C5417356   4.064   6.603   6.129 -0.5599 -0.1339  0.7944
  212MOL    O5517357   3.941   6.559   6.090 -0.0815 -0.2533 -0.0750
  212MOL    H5617358   4.059   6.686   6.199 -0.2440  0.7986 -0.2773
  212MOL    H5717359   4.127   6.522   6.165  1.1321  0.1217 -1.4694
  212MOL    C5817360   3.871   6.504   6.195 -0.2305 -0.7547 -0.2827
  212MOL    O5917361   3.918   6.382   6.230  0.2444  0.0013 -0.6037
  212MOL    H6017362   3.769   6.489   6.161  0.6175 -1.4050 -2.6137
  212MOL    H6117363   3.868   6.562   6.287  1.0010  0.4802 -1.0023
  212MOL    C6217364   3.925   6.291   6.121 -0.1691 -0.0257 -0.3635
  212MOL    O6317365   3.801   6.262   6.060  0.3446  0.1274  0.4616
  212MOL    H6417366   3.953   6.194   6.162 -0.8692 -0.0485  0.0651
  212MOL    H6517367   4.003   6.325   6.052 -0.8024  1.6850 -0.2581
  212MOL    C6617368   3.705   6.220   6.150  0.9896  0.3776  0.3313
  212MOL    O6717369   3.714   6.081   6.174 -0.0301  0.2492 -0.2848
  212MOL    H6817370   3.605   6.241   6.112  0.4686 -1.0095  0.8686
  212MOL    H6917371   3.706   6.265   6.249  3.3030  1.1602 -0.0217
  212MOL    C7017372   3.659   6.013   6.060  0.4959  0.2294  0.1303
  212MOL    O7117373   3.522   6.019   6.045  0.1575  0.1714  0.1963
  212MOL    H7217374   3.711   5.917   6.066 -2.2300 -1.2186  1.2474
  212MOL    H7317375   3.688   6.068   5.970 -1.8997 -2.0693 -2.1784
  212MOL    C7417376   3.451   5.937   6.129  0.7159 -0.5286 -0.4425
  212MOL    O7517377   3.470   5.807   6.093 -0.0496  0.5671 -0.1994
  212MOL    H7617378   3.346   5.963   6.124  0.8499  0.2638  0.7764
  212MOL    H7717379   3.478   5.951   6.234 -3.5968  2.6744  0.3877
  212MOL    C7817380   3.384   5.778   5.984  0.7429 -0.4231 -0.3490
  212MOL    O7917381   3.343   5.642   5.987  1.0220 -0.4536  0.5922
  212MOL    H8017382   3.447   5.799   5.897 -0.9457 -0.0952 -1.5054
  212MOL    H8117383   3.298   5.844   5.977  2.2829  1.5709 -1.0426
  212MOL    H8217384   3.415   5.582   5.978  0.7015 -0.7326 -0.1282
  213MOL     C117385   6.520   0.880   6.972 -0.1240  0.0865  0.1160
  213MOL     O217386   6.486   0.796   7.082 -0.1767  0.1258 -0.1888
  213MOL     H317387   6.620   0.863   6.930 -0.7178 -1.3128 -0.7514
  213MOL     H417388   6.453   0.850   6.891 -0.3409 -4.1851  1.7605
  213MOL     H517389   6.517   0.988   6.986  3.4111 -0.0751  2.7703
  213MOL     C617390   6.358   0.817   7.127 -0.2389 -0.5968  0.3646
  213MOL     O717391   6.338   0.947   7.181  0.0375  1.1391  0.4201
  213MOL     H817392   6.333   0.741   7.201  3.0792 -0.1085  2.0663
  213MOL     H917393   6.288   0.808   7.044 -0.8898  0.3312  0.8110
  213MOL    C1017394   6.410   0.966   7.300  0.0533  0.6021 -0.1709
  213MOL    O1117395   6.361   1.069   7.366 -0.1649  0.0420 -0.5983
  213MOL    H1217396   6.517   0.978   7.282  0.4638 -0.3120  1.4710
  213MOL    H1317397   6.395   0.876   7.361 -2.9977  0.1346 -1.5530
  213MOL    C1417398   6.435   1.092   7.478 -0.3212  0.6100  0.0907
  213MOL    O1517399   6.419   0.990   7.572  0.0767  0.2906 -0.0862
  213MOL    H1617400   6.410   1.191   7.515  1.1207  0.8443  0.5055
  213MOL    H1717401   6.541   1.107   7.454 -0.2871  0.7724  0.3472
  213MOL    C1817402   6.302   0.994   7.647 -0.4160  0.0263  0.6392
  213MOL    O1917403   6.342   1.049   7.770  0.1021 -0.1129  0.0305
  213MOL    H2017404   6.273   0.889   7.657 -0.4313 -0.2712 -2.2803
  213MOL    H2117405   6.221   1.053   7.606 -0.0596 -0.0512 -0.1850
  213MOL    C2217406   6.237   1.078   0.075 -0.4554 -0.0661 -0.6801
  213MOL    O2317407   6.168   0.962   0.096 -0.0251 -0.1293 -0.6610
  213MOL    H2417408   6.177   1.161   0.039  0.9488  0.5682 -1.6020
  213MOL    H2517409   6.280   1.128   0.161  0.3441 -0.3724 -0.8955
  213MOL    C2617410   6.237   0.881   0.184  0.3125 -0.1870  0.7126
  213MOL    O2717411   6.176   0.897   0.307 -0.3718 -0.3711 -0.3518
  213MOL    H2817412   6.343   0.900   0.194  0.7109 -2.0939  0.3959
  213MOL    H2917413   6.223   0.777   0.151 -1.8026 -0.2243  1.5998
  213MOL    C3017414   6.054   0.839   0.320 -0.6272 -0.3579 -0.5055
  213MOL    O3117415   6.058   0.698   0.315  0.3558  0.5629  0.0241
  213MOL    H3217416   5.991   0.886   0.244  1.6288  0.1389 -2.1125
  213MOL    H3317417   6.016   0.864   0.419 -0.9242 -1.5804 -0.3072
  213MOL    C3417418   5.936   0.637   0.326 -0.2174 -0.4918 -0.7666
  213MOL    O3517419   5.862   0.660   0.208  0.1615 -0.1881  0.0136
  213MOL    H3617420   5.879   0.662   0.416  0.2156 -0.1027 -0.5985
  213MOL    H3717421   5.962   0.533   0.342 -0.5757 -0.5906 -0.8262
  213MOL    C3817422   5.859   0.560   0.119 -0.0322  1.3218 -0.5036
  213MOL    O3917423   5.989   0.534   0.061 -0.4744 -0.1172  0.7945
  213MOL    H4017424   5.779   0.583   0.049 -0.0539  0.6250 -0.7096
  213MOL    H4117425   5.822   0.466   0.159  2.6140  0.1383 -0.7316
  213MOL    C4217426   6.021   0.622   7.736 -0.3337  0.1088  0.2021
  213MOL    O4317427   5.953   0.592   7.621  0.2835  0.0832 -0.3143
  213MOL    H4417428   6.127   0.613   7.716 -0.7392 -1.2584 -1.4693
  213MOL    H4517429   6.004   0.729   7.752 -0.6409  0.8090 -4.1457
  213MOL    C4617430   5.995   0.474   7.554  0.4018  0.0143 -0.2072
  213MOL    O4717431   6.053   0.509   7.433  0.2369  0.0029 -0.1434
  213MOL    H4817432   5.911   0.408   7.533 -0.5687  0.6551  1.5581
  213MOL    H4917433   6.059   0.414   7.619 -0.1545 -0.2238  0.1266
  213MOL    C5017434   6.173   0.581   7.443  0.0053 -0.6543  0.1173
  213MOL    O5117435   6.146   0.714   7.477  0.6896  0.0319 -0.3632
  213MOL    H5217436   6.230   0.564   7.352  1.3539  0.7629  0.6766
  213MOL    H5317437   6.227   0.537   7.526 -1.0700  0.8541  1.6347
  213MOL    C5417438   6.051   0.775   7.406 -0.1411  0.3703  0.3737
  213MOL    O5517439   6.093   0.809   7.280  0.1180  0.3351 -0.0359
  213MOL    H5617440   6.020   0.862   7.463  0.7250 -0.0933  1.5513
  213MOL    H5717441   5.956   0.721   7.402 -2.0362  3.6296 -4.5641
  213MOL    C5817442   6.000   0.883   7.198 -0.4472 -0.2248 -0.5550
  213MOL    O5917443   5.962   1.001   7.251 -0.5232  0.0075  0.2736
  213MOL    H6017444   5.908   0.828   7.178 -0.2135 -0.8269  0.0149
  213MOL    H6117445   6.042   0.896   7.098  1.6208 -0.1453  0.3096
  213MOL    C6217446   6.062   1.086   7.288  0.2513 -0.5271 -0.1080
  213MOL    O6317447   6.011   1.209   7.322  0.3966 -0.2479  0.2958
  213MOL    H6417448   6.124   1.100   7.199  1.8266  0.4754  1.1075
  213MOL    H6517449   6.113   1.047   7.376 -0.0331  0.8676  0.6956
  213MOL    C6617450   5.944   1.216   7.445  0.4954  0.0457  0.0032
  213MOL    O6717451   6.043   1.206   7.540  0.8422 -0.1074  0.2941
  213MOL    H6817452   5.870   1.136   7.445  0.0469  0.4337 -1.7437
  213MOL    H6917453   5.892   1.312   7.452 -1.3166 -0.8636 -0.6001
  213MOL    C7017454   6.128   1.312   7.536  0.4202  0.5204 -0.5501
  213MOL    O7117455   6.209   1.323   7.650  0.1238 -0.5844 -0.2609
  213MOL    H7217456   6.072   1.405   7.538  1.7479  1.3168  0.9949
  213MOL    H7317457   6.184   1.307   7.443 -0.1635 -2.0704 -0.8229
  213MOL    C7417458   6.276   1.446   7.648 -0.4038  0.0779 -0.5479
  213MOL    O7517459   6.347   1.475   7.772  0.2728  0.1131 -0.3935
  213MOL    H7617460   6.197   1.521   7.651 -0.4580  0.1481 -2.5966
  213MOL    H7717461   6.348   1.453   7.567  0.3518  1.5290  0.2262
  213MOL    C7817462   6.451   1.385   0.006  0.0447 -0.6304  0.0908
  213MOL    O7917463   6.545   1.449   0.085  0.4763  0.0391 -0.4687
  213MOL    H8017464   6.497   1.359   7.694  0.8234  3.1064 -0.6220
  213MOL    H8117465   6.415   1.295   0.056  1.0235 -0.5648  0.9193
  213MOL    H8217466   6.506   1.463   0.170 -0.9855  1.3481 -1.3248
  214MOL     C117467   5.018   6.560   6.070  0.7590 -0.3980 -0.3415
  214MOL     O217468   5.037   6.453   6.158  0.4401  0.0490 -0.4150
  214MOL     H317469   5.066   6.654   6.099 -0.9395  1.1594 -2.4073
  214MOL     H417470   5.057   6.536   5.970 -0.4079 -0.5681 -0.7579
  214MOL     H517471   4.912   6.584   6.064  1.1548  1.8450  1.2766
  214MOL     C617472   5.167   6.398   6.164 -0.2395 -0.7244 -0.5095
  214MOL     O717473   5.267   6.478   6.224 -0.2302 -0.1884  0.2665
  214MOL     H817474   5.211   6.372   6.067  0.1518 -1.4768 -0.1352
  214MOL     H917475   5.167   6.299   6.210  0.3861 -0.9156 -0.9037
  214MOL    C1017476   5.393   6.409   6.258 -0.5037  0.7604 -0.6810
  214MOL    O1117477   5.356   6.325   6.358  0.4824  0.0768  0.1393
  214MOL    H1217478   5.453   6.484   6.309 -0.6475  0.7917 -0.5572
  214MOL    H1317479   5.444   6.355   6.178 -1.5809 -2.1100  0.5032
  214MOL    C1417480   5.316   6.383   6.477  0.0262 -0.2003  0.3729
  214MOL    O1517481   5.425   6.449   6.537 -0.8505 -0.1057 -0.0943
  214MOL    H1617482   5.280   6.303   6.542 -2.0218  0.8047  0.5150
  214MOL    H1717483   5.234   6.454   6.468  0.1315  0.0470  1.2959
  214MOL    C1817484   5.518   6.361   6.583 -1.0365 -1.3724 -0.6688
  214MOL    O1917485   5.625   6.434   6.640  0.0385 -0.1308  0.6229
  214MOL    H2017486   5.556   6.289   6.509 -1.2637 -1.4838 -0.6773
  214MOL    H2117487   5.482   6.306   6.669  3.7000 -0.7828  1.8730
  214MOL    C2217488   5.698   6.490   6.532  0.5543  0.2662 -0.4655
  214MOL    O2317489   5.789   6.577   6.582  0.1757 -0.2058  0.4798
  214MOL    H2417490   5.620   6.552   6.489 -0.8873 -1.0324  0.2200
  214MOL    H2517491   5.753   6.424   6.465 -2.1964  0.2869 -2.8100
  214MOL    C2617492   5.913   6.524   6.612  0.0955  0.5587  0.5463
  214MOL    O2717493   5.982   6.507   6.497 -0.0954  0.4411 -0.2998
  214MOL    H2817494   5.902   6.431   6.668 -0.5993  0.3682  0.0987
  214MOL    H2917495   5.966   6.590   6.681  0.7833 -1.5326  2.0783
  214MOL    C3017496   6.028   6.625   6.440 -0.2827  0.4378  0.8538
  214MOL    O3117497   6.137   6.683   6.508 -1.0018 -0.4006 -0.8394
  214MOL    H3217498   5.942   6.692   6.436 -1.0367 -0.6182 -1.3511
  214MOL    H3317499   6.064   6.611   6.338  0.0766 -2.0028  1.2912
  214MOL    C3417500   6.248   6.596   6.534 -0.5832 -0.5401 -0.3851
  214MOL    O3517501   6.322   6.567   6.422 -0.7102  0.1415 -0.0891
  214MOL    H3617502   6.210   6.503   6.576 -0.0928  1.3699  4.6410
  214MOL    H3717503   6.317   6.657   6.593 -0.4077  1.2758 -2.4264
  214MOL    C3817504   6.362   6.686   6.354 -0.1377 -0.5391 -0.0193
  214MOL    O3917505   6.435   6.654   6.238  0.0871 -0.1763  0.1607
  214MOL    H4017506   6.424   6.743   6.424 -1.7927 -0.8122  1.7043
  214MOL    H4117507   6.281   6.747   6.315 -0.2246 -1.9912 -2.1646
  214MOL    C4217508   6.553   6.589   6.265 -0.5286 -0.3190 -0.2174
  214MOL    O4317509   6.636   6.648   6.367 -0.1162 -0.0630  0.1250
  214MOL    H4417510   6.605   6.573   6.170 -1.4343  0.2282 -0.8199
  214MOL    H4517511   6.533   6.492   6.309 -0.8346 -0.1115  0.1033
  214MOL    C4617512   6.695   6.766   6.324 -0.7534  0.1855  0.0060
  214MOL    O4717513   6.614   6.878   6.330 -0.0549 -0.5388  0.9418
  214MOL    H4817514   6.723   6.764   6.218 -0.2756 -0.8174  0.1431
  214MOL    H4917515   6.791   6.786   6.373 -1.2072 -0.9488  1.3769
  214MOL    C5017516   6.600   6.946   6.456 -0.4568  1.2863 -0.1560
  214MOL    O5117517   6.609   7.085   6.431 -0.4793 -0.2016  0.0193
  214MOL    H5217518   6.685   6.924   6.520 -0.1243  0.7201 -0.7944
  214MOL    H5317519   6.515   6.907   6.513  1.4208 -1.4582  0.8499
  214MOL    C5417520   6.487   7.134   6.400 -0.4223  0.4581  0.4732
  214MOL    O5517521   6.430   7.180   6.519 -0.4344 -0.3061  0.2312
  214MOL    H5617522   6.420   7.058   6.360  1.0950 -0.9794  0.6283
  214MOL    H5717523   6.493   7.218   6.331 -1.6425  1.3751  1.4612
  214MOL    C5817524   6.308   7.248   6.508  0.6951 -0.4879  0.3799
  214MOL    O5917525   6.194   7.181   6.543 -0.2171 -0.0263 -0.6000
  214MOL    H6017526   6.283   7.274   6.405  1.4712 -1.4237 -0.0535
  214MOL    H6117527   6.321   7.336   6.572 -0.3966  0.6114 -0.8745
  214MOL    C6217528   6.204   7.117   6.660 -0.1633  0.5063 -1.0065
  214MOL    O6317529   6.078   7.067   6.704  0.3491 -0.0993 -0.4915
  214MOL    H6417530   6.244   7.181   6.739  0.3336 -0.4320 -0.4856
  214MOL    H6517531   6.279   7.038   6.656 -0.8131 -0.1827  0.0335
  214MOL    C6617532   6.034   6.960   6.631 -0.2061  0.4236 -0.4466
  214MOL    O6717533   5.988   6.988   6.505  0.1647  0.1458  0.5199
  214MOL    H6817534   5.965   6.908   6.697 -2.5647  2.3988 -1.3052
  214MOL    H6917535   6.120   6.893   6.618 -0.3995  0.1136 -0.1206
  214MOL    C7017536   5.867   7.049   6.501  0.0175  0.0292  0.1542
  214MOL    O7117537   5.774   6.976   6.428  0.0395  0.7515  0.3335
  214MOL    H7217538   5.874   7.140   6.441  2.9459  0.0688  0.4630
  214MOL    H7317539   5.824   7.084   6.594 -0.7242 -1.3244  0.3304
  214MOL    C7417540   5.714   6.868   6.503 -0.3351  0.0441 -0.1505
  214MOL    O7517541   5.616   6.909   6.593 -1.1026  0.2332 -0.5681
  214MOL    H7617542   5.788   6.821   6.568 -0.3785  0.9072  0.5327
  214MOL    H7717543   5.677   6.788   6.440  0.8613 -0.3182 -0.4194
  214MOL    C7817544   5.498   6.927   6.527  0.3656 -0.2786  0.1065
  214MOL    O7917545   5.398   6.933   6.625  0.2773 -0.4742 -0.0608
  214MOL    H8017546   5.467   6.851   6.456 -2.7659  0.2702  0.8009
  214MOL    H8117547   5.503   7.020   6.470 -1.6728 -0.2469 -0.0665
  214MOL    H8217548   5.400   6.859   6.683 -3.7443 -0.1557  0.6173
  215MOL     C117549   1.596   6.743   5.859 -0.4972  0.4135  0.0132
  215MOL     O217550   1.675   6.716   5.973 -0.3274  0.8267  0.0009
  215MOL     H317551   1.558   6.845   5.862 -2.4716 -0.1918 -2.4432
  215MOL     H417552   1.666   6.750   5.776  0.6279 -0.1409  0.8994
  215MOL     H517553   1.517   6.672   5.833  0.3384 -0.0772 -1.2621
  215MOL     C617554   1.597   6.709   6.089 -0.8464 -0.0012 -0.5272
  215MOL     O717555   1.608   6.582   6.149  0.6930 -0.3447  0.2494
  215MOL     H817556   1.490   6.725   6.075 -0.9540 -1.0580 -0.9874
  215MOL     H917557   1.635   6.788   6.153 -0.6375 -0.2034 -0.4019
  215MOL    C1017558   1.722   6.555   6.222  0.3714 -0.0709  0.0079
  215MOL    O1117559   1.708   6.425   6.267 -0.1663 -0.5854 -0.1716
  215MOL    H1217560   1.737   6.626   6.304 -0.9698 -1.4977  1.5163
  215MOL    H1317561   1.815   6.571   6.167 -2.2971  2.4668 -4.0101
  215MOL    C1417562   1.620   6.417   6.376 -0.1919  0.4292 -0.3244
  215MOL    O1517563   1.695   6.442   6.489 -0.9398 -0.2742 -0.4860
  215MOL    H1617564   1.572   6.320   6.385  0.1967  0.2751  0.0732
  215MOL    H1717565   1.534   6.483   6.367 -0.0042  1.1417  2.6436
  215MOL    C1817566   1.780   6.346   6.534  0.2680  0.0852  0.4514
  215MOL    O1917567   1.725   6.259   6.626 -0.0808  0.0709 -0.0363
  215MOL    H2017568   1.868   6.398   6.571 -0.0567  1.4442 -0.6228
  215MOL    H2117569   1.813   6.281   6.452  1.1725  0.4223  0.5432
  215MOL    C2217570   1.712   6.324   6.747  0.2398 -0.2712  0.8667
  215MOL    O2317571   1.836   6.307   6.808 -0.0218  0.2176 -0.2730
  215MOL    H2417572   1.648   6.256   6.803  0.5657  0.4734  2.1680
  215MOL    H2517573   1.676   6.427   6.745  2.1204  0.4297  1.7909
  215MOL    C2617574   1.862   6.404   6.906  0.1367 -0.0570 -0.5945
  215MOL    O2717575   1.904   6.527   6.845  0.3703  0.1814 -0.5163
  215MOL    H2817576   1.948   6.381   6.969 -0.6273 -0.0497  0.4593
  215MOL    H2917577   1.774   6.417   6.967 -1.8328 -2.6989 -2.7470
  215MOL    C3017578   2.040   6.527   6.805  0.2370  0.2534  0.5072
  215MOL    O3117579   2.115   6.554   6.921  0.3027  0.2123  0.4434
  215MOL    H3217580   2.060   6.605   6.731  0.0670  1.0589  1.2949
  215MOL    H3317581   2.056   6.432   6.756 -0.4283  0.0329  0.7067
  215MOL    C3417582   2.096   6.683   6.961  0.9185  0.3641 -0.8196
  215MOL    O3517583   2.165   6.773   6.879  0.7364 -0.1737  0.3989
  215MOL    H3617584   2.127   6.695   7.065 -0.3043  0.0599 -0.4080
  215MOL    H3717585   1.989   6.705   6.963  0.9882  0.6072  1.3653
  215MOL    C3817586   2.303   6.782   6.890  1.2927  0.3882 -0.0575
  215MOL    O3917587   2.341   6.877   6.805 -0.6812 -0.5764  0.3759
  215MOL    H4017588   2.340   6.686   6.852  0.7911  0.3841 -0.5549
  215MOL    H4117589   2.342   6.796   6.990  0.4160 -1.3264  0.5454
  215MOL    C4217590   2.339   6.843   6.666 -0.5413 -0.3920 -0.4867
  215MOL    O4317591   2.455   6.758   6.636 -0.0727 -0.4631 -0.7131
  215MOL    H4417592   2.336   6.924   6.594 -2.5735  0.8107  0.8851
  215MOL    H4517593   2.257   6.776   6.638 -0.2045 -0.8579 -0.3730
  215MOL    C4617594   2.567   6.824   6.598 -0.3123 -0.3523 -0.1265
  215MOL    O4717595   2.636   6.893   6.702 -0.5258  0.5720 -0.0588
  215MOL    H4817596   2.538   6.891   6.516  0.7894 -0.7566 -0.8553
  215MOL    H4917597   2.632   6.754   6.546  1.1157 -0.6468  2.0164
  215MOL    C5017598   2.660   6.819   6.822  0.7428 -0.1007 -0.1050
  215MOL    O5117599   2.756   6.885   6.906 -0.4536 -0.4395 -0.3195
  215MOL    H5217600   2.704   6.721   6.802 -0.3500 -0.5852 -0.1743
  215MOL    H5317601   2.577   6.788   6.886 -0.8749  0.0047 -2.0957
  215MOL    C5417602   2.693   6.991   6.976  0.2981  0.0194 -0.8242
  215MOL    O5517603   2.587   6.959   7.072 -0.3957  0.3461  0.1979
  215MOL    H5617604   2.656   7.070   6.911 -1.1072 -1.1707 -1.4838
  215MOL    H5717605   2.762   7.040   7.045 -2.7194  0.2052  2.1893
  215MOL    C5817606   2.633   6.884   7.180 -0.1146 -0.3599 -0.5598
  215MOL    O5917607   2.708   6.961   7.271 -0.4225  0.3956 -0.4037
  215MOL    H6017608   2.699   6.807   7.140  2.5345  2.0071 -0.9326
  215MOL    H6117609   2.538   6.849   7.220  0.6019  1.0694  2.5471
  215MOL    C6217610   2.746   6.886   7.387 -0.4152 -0.7656 -0.2192
  215MOL    O6317611   2.819   6.767   7.352  0.0931 -0.6176 -0.3754
  215MOL    H6417612   2.655   6.855   7.439 -2.0156  1.9042 -1.3235
  215MOL    H6517613   2.809   6.949   7.450  0.1077  0.5040 -1.9861
  215MOL    C6617614   2.954   6.789   7.314  0.4163  0.2989 -0.2745
  215MOL    O6717615   3.031   6.795   7.427  0.0964 -0.1771 -0.3798
  215MOL    H6817616   2.951   6.881   7.255  1.2057 -0.9255 -2.2465
  215MOL    H6917617   2.985   6.713   7.243 -1.0201 -0.0644 -0.5141
  215MOL    C7017618   3.162   6.839   7.407 -0.2591  0.5413 -0.0762
  215MOL    O7117619   3.158   6.975   7.372 -0.0909  0.1836 -0.2277
  215MOL    H7217620   3.203   6.777   7.326 -2.1395  1.4676 -1.7912
  215MOL    H7317621   3.223   6.824   7.496  0.4635  0.2034 -0.6243
  215MOL    C7417622   3.126   7.061   7.477 -0.4152  0.5869 -0.4353
  215MOL    O7517623   3.107   7.189   7.425  0.1064 -0.3352 -0.3227
  215MOL    H7617624   3.205   7.063   7.552  0.0941 -1.3513 -0.9122
  215MOL    H7717625   3.031   7.042   7.528 -0.6132  1.6231 -0.4042
  215MOL    C7817626   2.988   7.206   7.360  0.1232 -0.4907 -0.1272
  215MOL    O7917627   2.974   7.346   7.334  0.1688 -0.8017  0.3577
  215MOL    H8017628   2.904   7.172   7.421 -0.2439 -0.4271 -0.5994
  215MOL    H8117629   2.987   7.151   7.266  1.2620  0.2589 -0.6030
  215MOL    H8217630   3.037   7.359   7.264  1.6664  0.3189  1.8812
  216MOL     C117631   2.143   0.295   6.185 -0.9438 -0.4085 -0.1838
  216MOL     O217632   2.193   0.166   6.203 -0.0260  0.6567 -0.0047
  216MOL     H317633   2.036   0.296   6.164 -0.4776 -0.2909 -2.8139
  216MOL     H417634   2.155   0.362   6.270  0.3901  1.2129 -1.6003
  216MOL     H517635   2.198   0.338   6.101  0.7972 -0.9637  0.6485
  216MOL     C617636   2.323   0.160   6.239  0.1621 -0.1748 -0.0323
  216MOL     O717637   2.330   0.183   6.382  0.1578 -0.1200 -0.3872
  216MOL     H817638   2.389   0.218   6.175  1.1351 -1.3116 -0.0690
  216MOL     H917639   2.339   0.056   6.211 -0.0910 -0.8727  2.3106
  216MOL    C1017640   2.379   0.301   6.420 -0.7289 -0.6370  0.0252
  216MOL    O1117641   2.359   0.331   6.553  0.4399  0.4057 -0.1372
  216MOL    H1217642   2.345   0.386   6.360 -3.4444 -0.7144  1.3953
  216MOL    H1317643   2.487   0.298   6.407 -0.6487  2.1408 -0.2858
  216MOL    C1417644   2.235   0.364   6.588 -0.8219  0.8541  0.4710
  216MOL    O1517645   2.218   0.502   6.588 -0.5664 -0.0648  0.2771
  216MOL    H1617646   2.209   0.324   6.686  1.3874  1.6345  1.4140
  216MOL    H1717647   2.165   0.321   6.517 -0.7074 -1.7539  1.8811
  216MOL    C1817648   2.087   0.535   6.599  0.3668  0.6204  0.2528
  216MOL    O1917649   2.017   0.486   6.711  0.9071 -0.1213  0.1987
  216MOL    H2017650   2.030   0.499   6.513  1.9161  0.7209 -0.8416
  216MOL    H2117651   2.090   0.644   6.597  0.6138  0.6096 -2.7192
  216MOL    C2217652   2.055   0.546   6.825  0.6416 -0.0706 -0.0289
  216MOL    O2317653   2.040   0.685   6.825  0.9118  0.1996 -0.0491
  216MOL    H2417654   2.156   0.511   6.849 -0.5295 -0.5124  4.5807
  216MOL    H2517655   1.988   0.510   6.903  1.0697  0.3833  0.5532
  216MOL    C2617656   1.905   0.726   6.816  0.2544 -0.8445  0.6792
  216MOL    O2717657   1.895   0.868   6.818  0.0697  0.5603  0.4533
  216MOL    H2817658   1.840   0.687   6.894 -0.7604 -1.0361 -0.2545
  216MOL    H2917659   1.856   0.682   6.730 -0.7555 -0.4924  1.0680
  216MOL    C3017660   1.964   0.935   6.713 -0.4387  0.2168 -0.5836
  216MOL    O3117661   1.902   0.920   6.586  0.0282 -0.4857 -0.5446
  216MOL    H3217662   2.066   0.900   6.696  0.1023  1.1606  0.6185
  216MOL    H3317663   1.972   1.039   6.747  1.0012 -0.1748  0.3189
  216MOL    C3417664   1.987   0.942   6.475  0.3742  0.6226 -0.1638
  216MOL    O3517665   2.054   1.070   6.479 -0.0889  0.3935  0.7089
  216MOL    H3617666   1.922   0.925   6.389  0.6810  2.6385 -0.8405
  216MOL    H3717667   2.060   0.861   6.479 -0.9995 -0.6177  0.2593
  216MOL    C3817668   1.966   1.181   6.455 -0.2911 -0.3449  0.4642
  216MOL    O3917669   1.954   1.189   6.316 -0.5470  0.4385  0.1337
  216MOL    H4017670   2.008   1.269   6.504  0.3615 -0.7983  0.7265
  216MOL    H4117671   1.870   1.167   6.505  0.7447 -1.3267  2.2133
  216MOL    C4217672   1.848   1.265   6.269  0.1151  0.5828  0.0320
  216MOL    O4317673   1.728   1.187   6.290 -0.1256  0.6207 -0.1479
  216MOL    H4417674   1.873   1.283   6.165  0.4661  1.2397  0.2177
  216MOL    H4517675   1.842   1.362   6.319 -1.5553  1.1672 -1.2770
  216MOL    C4617676   1.720   1.069   6.211 -0.0443  0.4072 -0.6723
  216MOL    O4717677   1.734   1.101   6.076  0.1706 -0.3031  0.3932
  216MOL    H4817678   1.628   1.013   6.228 -0.1141  0.0152 -2.2079
  216MOL    H4917679   1.802   0.999   6.225  0.4772  1.6894  3.2194
  216MOL    C5017680   1.632   1.178   6.013 -0.0716 -0.2304 -1.0349
  216MOL    O5117681   1.665   1.182   5.869  0.2960 -0.0113  0.1666
  216MOL    H5217682   1.629   1.280   6.051 -0.9577 -0.7916  0.4174
  216MOL    H5317683   1.534   1.134   6.030  0.9589 -2.4103 -0.5801
  216MOL    C5417684   1.745   1.291   5.832 -0.2478  0.8134  0.3687
  216MOL    O5517685   1.681   1.397   5.772  0.1870  0.2802  0.3241
  216MOL    H5617686   1.813   1.254   5.756 -0.2187  0.6214  0.4890
  216MOL    H5717687   1.804   1.318   5.919  1.4100 -1.5210 -0.0078
  216MOL    C5817688   1.574   1.451   5.846  0.3667 -0.2376  0.3243
  216MOL    O5917689   1.598   1.502   5.973 -0.4372  0.8073 -0.0785
  216MOL    H6017690   1.494   1.378   5.858  0.5440 -0.6527 -0.9315
  216MOL    H6117691   1.526   1.531   5.789  2.2883  0.5163 -0.2737
  216MOL    C6217692   1.669   1.616   5.969 -0.0736  0.3644 -0.8683
  216MOL    O6317693   1.589   1.722   5.923 -0.0089  0.3986 -0.2769
  216MOL    H6417694   1.755   1.606   5.904  0.2977 -1.1983 -0.1484
  216MOL    H6517695   1.706   1.644   6.068  1.1719  0.4857 -1.3641
  216MOL    C6617696   1.494   1.771   6.022  0.1312 -0.0482  0.2630
  216MOL    O6717697   1.563   1.844   6.120 -0.3994  0.1323  0.3302
  216MOL    H6817698   1.437   1.690   6.068 -1.1779  1.4167  1.2437
  216MOL    H6917699   1.420   1.830   5.970  1.7691  1.9061  0.0834
  216MOL    C7017700   1.497   1.900   6.225  0.1831  0.1604 -0.7932
  216MOL    O7117701   1.399   1.992   6.188  0.5426  0.0677  0.5370
  216MOL    H7217702   1.572   1.934   6.295  0.1764  0.1706 -0.7909
  216MOL    H7317703   1.452   1.820   6.284 -0.9196  1.2852 -0.1106
  216MOL    C7417704   1.456   2.106   6.141 -0.2111 -0.4885 -0.1818
  216MOL    O7517705   1.537   2.177   6.229  0.1019  0.6917 -0.5273
  216MOL    H7617706   1.385   2.170   6.089  2.4731  0.0822 -3.2964
  216MOL    H7717707   1.504   2.083   6.047 -0.1111  1.5712 -0.6698
  216MOL    C7817708   1.459   2.228   6.325 -0.2039  0.3846  0.7063
  216MOL    O7917709   1.540   2.326   6.390  0.4525 -0.5049  0.2123
  216MOL    H8017710   1.421   2.159   6.400 -1.3122  2.5726  2.2246
  216MOL    H8117711   1.381   2.288   6.278 -0.4963 -0.9389 -0.5198
  216MOL    H8217712   1.559   2.394   6.328  2.3957 -0.8275  0.4389
  217MOL     C117713   1.369   5.090   2.831  0.3382 -0.7245 -0.3280
  217MOL     O217714   1.497   5.034   2.800  0.2531 -0.7412 -0.6491
  217MOL     H317715   1.383   5.179   2.893  0.1784  0.4854 -1.9842
  217MOL     H417716   1.317   5.132   2.744 -1.8901  1.0526  1.8002
  217MOL     H517717   1.305   5.015   2.876 -0.6601 -0.5604 -1.4524
  217MOL     C617718   1.560   4.974   2.915  0.0336 -0.5648  0.1068
  217MOL     O717719   1.595   5.057   3.022 -0.0428  0.2898  0.0003
  217MOL     H817720   1.653   4.931   2.877  0.3982  0.5436 -0.2785
  217MOL     H917721   1.489   4.896   2.940  0.3190 -1.0280 -0.5082
  217MOL    C1017722   1.689   5.150   2.976  1.0901  0.4581 -0.2756
  217MOL    O1117723   1.820   5.103   2.956 -0.4887 -0.5307 -0.4870
  217MOL    H1217724   1.690   5.229   3.051  0.1511  0.7497 -0.5555
  217MOL    H1317725   1.665   5.199   2.881  0.8250  2.3105  0.7112
  217MOL    C1417726   1.914   5.193   2.918 -0.1008  0.7897 -0.3981
  217MOL    O1517727   1.959   5.268   3.024 -0.3185 -0.0921  0.4042
  217MOL    H1617728   1.885   5.261   2.838  1.0446  0.9080 -0.7156
  217MOL    H1717729   1.996   5.135   2.877 -0.3634 -1.6218  2.3599
  217MOL    C1817730   2.011   5.191   3.130 -0.1849  0.0976  0.0957
  217MOL    O1917731   2.056   5.269   3.235  0.1712 -0.4461 -0.7567
  217MOL    H2017732   2.091   5.124   3.099 -1.9693 -1.0781 -2.1104
  217MOL    H2117733   1.936   5.120   3.166 -1.7556  1.4459 -0.4353
  217MOL    C2217734   1.966   5.369   3.276  0.4814  0.3711 -0.5811
  217MOL    O2317735   1.855   5.318   3.341  0.3482 -0.0413 -0.2153
  217MOL    H2417736   1.926   5.427   3.193 -0.8477  2.0667  1.1981
  217MOL    H2517737   2.006   5.436   3.352  0.3853 -1.6784  1.3275
  217MOL    C2617738   1.882   5.274   3.467 -0.7716  0.0008  0.1448
  217MOL    O2717739   1.898   5.385   3.556  0.1394  0.1967 -0.1054
  217MOL    H2817740   1.973   5.216   3.479 -1.4088 -0.9818  0.2782
  217MOL    H2917741   1.798   5.211   3.496 -0.6795  0.3597  1.2175
  217MOL    C3017742   1.773   5.426   3.609  0.5164  0.5776  0.4472
  217MOL    O3117743   1.706   5.336   3.681  0.2578  0.2694 -0.1675
  217MOL    H3217744   1.705   5.438   3.524  1.1956  1.1177 -0.0203
  217MOL    H3317745   1.775   5.522   3.661 -1.9235  1.7985 -1.5839
  217MOL    C3417746   1.777   5.311   3.792 -0.1825  0.1713 -0.2721
  217MOL    O3517747   1.788   5.424   3.878  0.0399  0.1873 -0.3965
  217MOL    H3617748   1.879   5.279   3.770 -0.1667 -0.2169  0.3426
  217MOL    H3717749   1.726   5.230   3.844  1.8511 -0.6236  0.5551
  217MOL    C3817750   1.674   5.494   3.914 -0.5855 -0.5898 -0.5953
  217MOL    O3917751   1.590   5.419   3.992 -0.5711 -0.5363  0.5589
  217MOL    H4017752   1.615   5.512   3.824  1.0595 -0.8622 -1.7658
  217MOL    H4117753   1.687   5.590   3.963 -1.9192 -0.2285 -0.9228
  217MOL    C4217754   1.464   5.481   4.003  0.4147 -0.3447 -0.2564
  217MOL    O4317755   1.374   5.393   4.063 -0.1377  0.7152  0.0216
  217MOL    H4417756   1.417   5.524   3.915  0.8367  1.1324  0.2322
  217MOL    H4517757   1.479   5.557   4.080 -0.2647  0.3638 -0.8258
  217MOL    C4617758   1.340   5.287   3.983  0.3986  0.1287 -0.0105
  217MOL    O4717759   1.269   5.327   3.868  0.2439 -0.1576  0.3114
  217MOL    H4817760   1.294   5.213   4.049  1.4656  0.1246  0.7441
  217MOL    H4917761   1.427   5.236   3.941 -0.0646 -0.1431 -0.6311
  217MOL    C5017762   1.143   5.371   3.889 -0.4401 -0.1263  0.4046
  217MOL    O5117763   1.077   5.401   3.769  0.0454 -0.2535 -0.3590
  217MOL    H5217764   1.152   5.465   3.944  0.8300 -0.9720  1.6489
  217MOL    H5317765   1.093   5.298   3.952  0.7307  0.0749  1.5750
  217MOL    C5417766   1.023   5.288   3.713 -0.0265  0.2147 -0.0969
  217MOL    O5517767   0.915   5.234   3.782  0.4747  0.0059  0.2044
  217MOL    H5617768   1.105   5.218   3.700 -0.2665  0.2275 -1.6957
  217MOL    H5717769   0.984   5.307   3.613  0.0721  0.8547 -0.0169
  217MOL    C5817770   0.811   5.327   3.798  0.0175  0.1120  0.5875
  217MOL    O5917771   0.713   5.296   3.892 -0.3070 -0.3393 -0.4074
  217MOL    H6017772   0.773   5.358   3.700 -1.0743  0.3420  1.0831
  217MOL    H6117773   0.860   5.415   3.839  2.3599 -1.6078  1.5904
  217MOL    C6217774   0.622   5.207   3.847 -0.4244 -0.9411  0.4377
  217MOL    O6317775   0.571   5.242   3.722 -0.3339 -0.1444 -0.1400
  217MOL    H6417776   0.547   5.183   3.923 -0.5985  1.3152  1.0121
  217MOL    H6517777   0.660   5.106   3.831 -0.2123 -0.8036  0.0691
  217MOL    C6617778   0.452   5.313   3.735  0.1472  0.2784 -0.6738
  217MOL    O6717779   0.345   5.226   3.757 -0.0012 -0.0628 -0.5267
  217MOL    H6817780   0.426   5.356   3.638 -1.1046  0.0559 -0.4462
  217MOL    H6917781   0.451   5.398   3.803 -3.6049  0.8806 -1.3651
  217MOL    C7017782   0.325   5.147   3.646  0.3609 -1.1909 -0.3461
  217MOL    O7117783   0.230   5.209   3.561 -0.0115  0.5008 -0.1913
  217MOL    H7217784   0.281   5.052   3.675  2.6860 -2.2499 -0.1528
  217MOL    H7317785   0.406   5.110   3.583  1.5902 -0.3080  0.6881
  217MOL    C7417786   0.099   5.180   3.600 -0.3972 -0.4777  0.3299
  217MOL    O7517787   0.057   5.048   3.578 -0.0718  0.0720 -0.3114
  217MOL    H7617788   0.031   5.243   3.542  1.0805 -0.2411 -1.1997
  217MOL    H7717789   0.082   5.219   3.700  0.4680  1.3479 -0.1942
  217MOL    C7817790   0.027   5.012   3.455 -0.0042  0.7608  0.2712
  217MOL    O7917791   7.747   4.880   3.456  0.3809 -0.2502 -0.1814
  217MOL    H8017792   0.119   5.009   3.397  0.4552  0.0556  1.0237
  217MOL    H8117793   7.744   5.075   3.396 -1.1272 -0.7295 -0.0715
  217MOL    H8217794   7.737   4.842   3.370  0.0614  0.1503 -0.3272
  218MOL     C117795   4.112   4.393   7.113 -0.0436  0.0943  0.2824
  218MOL     O217796   4.144   4.435   7.241 -1.2202  0.2530  0.0883
  218MOL     H317797   4.035   4.315   7.118  1.1180 -1.0947 -0.0415
  218MOL     H417798   4.093   4.470   7.038 -0.0625  0.1467  0.3417
  218MOL     H517799   4.198   4.338   7.075 -0.6184 -0.6314  0.0134
  218MOL     C617800   4.036   4.510   7.294  0.0358 -0.2497 -0.3440
  218MOL     O717801   3.908   4.446   7.303 -0.0944  0.1882  0.0692
  218MOL     H817802   4.019   4.585   7.218 -1.6831 -1.1581 -0.8776
  218MOL     H917803   4.057   4.558   7.389 -3.3577  2.4295 -0.8625
  218MOL    C1017804   3.912   4.338   7.395  0.4040 -0.2814  0.0429
  218MOL    O1117805   3.915   4.391   7.515  0.3471  0.0853  0.3653
  218MOL    H1217806   4.002   4.277   7.386 -1.0324 -2.5127  0.6048
  218MOL    H1317807   3.825   4.274   7.384  2.1551 -2.3561 -2.3640
  218MOL    C1417808   3.794   4.428   7.561 -0.2693 -0.4684 -0.0165
  218MOL    O1517809   3.715   4.329   7.610 -0.2425 -0.0516  0.0414
  218MOL    H1617810   3.743   4.476   7.478  0.8154 -1.1819 -1.1134
  218MOL    H1717811   3.817   4.492   7.646 -0.7511  1.3600 -1.2296
  218MOL    C1817812   3.584   4.369   7.628 -0.4098  0.7470  0.0347
  218MOL    O1917813   3.525   4.366   7.503  0.1519  0.0108 -0.0856
  218MOL    H2017814   3.570   4.471   7.665  2.1007  1.2138 -0.2484
  218MOL    H2117815   3.523   4.309   7.695 -0.8682 -0.4250 -1.4060
  218MOL    C2217816   3.493   4.238   7.459 -0.0871  0.1143  0.1580
  218MOL    O2317817   3.379   4.184   7.521 -0.2247  0.3248 -0.1834
  218MOL    H2417818   3.580   4.174   7.472  0.0855  0.8589  2.9119
  218MOL    H2517819   3.479   4.235   7.351  1.7258 -0.5031 -0.0831
  218MOL    C2617820   3.263   4.254   7.486 -0.1920 -0.8818  0.4117
  218MOL    O2717821   3.229   4.236   7.352 -0.1318 -0.2371  0.3435
  218MOL    H2817822   3.283   4.361   7.499 -2.2036 -0.4792  0.4243
  218MOL    H2917823   3.181   4.214   7.546  0.6773 -1.1263  1.4568
  218MOL    C3017824   3.193   4.107   7.320 -1.1009  0.0993  0.4779
  218MOL    O3117825   3.058   4.082   7.339  0.7269 -0.0113  0.2339
  218MOL    H3217826   3.255   4.028   7.363 -0.4994  0.5641  0.4645
  218MOL    H3317827   3.215   4.103   7.213  0.3008 -3.2359  0.8101
  218MOL    C3417828   2.995   4.017   7.235 -0.0261 -0.2811  0.6217
  218MOL    O3517829   2.864   4.004   7.258  0.4994 -0.4597 -0.3072
  218MOL    H3617830   3.044   3.921   7.222  0.4666 -0.4584  3.4796
  218MOL    H3717831   3.002   4.074   7.142 -0.3095 -1.1723  0.0477
  218MOL    C3817832   2.828   3.929   7.365  0.3879 -0.0135 -0.0588
  218MOL    O3917833   2.877   3.804   7.354  0.0882 -0.5466 -0.4432
  218MOL    H4017834   2.720   3.931   7.372  0.3259 -0.4796 -0.8078
  218MOL    H4117835   2.862   3.975   7.458  3.6303 -3.4688  0.5990
  218MOL    C4217836   2.786   3.705   7.318 -0.3965 -0.3082  0.2077
  218MOL    O4317837   2.702   3.673   7.427  0.1646  0.2048 -0.2298
  218MOL    H4417838   2.842   3.619   7.281  1.5537  1.6261 -1.4859
  218MOL    H4517839   2.725   3.739   7.234 -1.1064  1.1505  1.2824
  218MOL    C4617840   2.763   3.594   7.528 -0.3931  0.2899  0.5330
  218MOL    O4717841   2.764   3.456   7.507  0.2766  0.1346  0.3188
  218MOL    H4817842   2.706   3.619   7.617  1.3670  2.4084  1.1112
  218MOL    H4917843   2.867   3.624   7.543 -0.2147 -0.5095  0.9462
  218MOL    C5017844   2.641   3.396   7.501 -0.4642  0.1030 -0.3055
  218MOL    O5117845   2.555   3.407   7.609 -0.3506 -0.2261 -0.1993
  218MOL    H5217846   2.659   3.295   7.464 -0.6622  0.3879 -1.1893
  218MOL    H5317847   2.602   3.434   7.406  1.4447  3.4080  0.1890
  218MOL    C5417848   2.584   3.324   7.714  0.0069 -0.0392 -0.6307
  218MOL    O5517849   2.540   3.194   7.689 -0.5025  0.9282 -0.0614
  218MOL    H5617850   2.547   3.362   0.026  1.5502  0.7859 -0.3436
  218MOL    H5717851   2.690   3.322   7.739 -0.8618 -1.4063  3.3734
  218MOL    C5817852   2.559   3.108   0.014 -0.1389  0.5057  0.6248
  218MOL    O5917853   2.514   3.156   0.139  0.3274  0.1995  0.0618
  218MOL    H6017854   2.663   3.079   0.016  0.6582  3.2415  0.8399
  218MOL    H6117855   2.496   3.027   7.760 -1.6200  1.0306  1.8707
  218MOL    C6217856   2.376   3.180   0.150 -0.2240  0.1069 -0.0301
  218MOL    O6317857   2.314   3.061   0.176  0.0915 -0.5534  0.3065
  218MOL    H6417858   2.351   3.211   0.049  2.1935 -2.4014 -1.4575
  218MOL    H6517859   2.351   3.265   0.215 -0.5538  1.8665 -2.3934
  218MOL    C6617860   2.179   3.077   0.210 -1.2725  0.0824 -0.9461
  218MOL    O6717861   2.110   3.132   0.104 -0.2451 -0.1115  0.4819
  218MOL    H6817862   2.143   3.136   0.295  0.2220 -0.5811  0.1664
  218MOL    H6917863   2.138   2.978   0.229  4.4441 -2.4625 -0.8282
  218MOL    C7017864   2.109   3.058   7.768  0.1357  0.4841 -0.1419
  218MOL    O7117865   2.026   2.942   7.778 -0.1273  0.4346  0.4856
  218MOL    H7217866   2.214   3.035   7.750  0.3369  0.7976  0.5804
  218MOL    H7317867   2.077   3.123   7.687  1.1490 -1.1360 -1.8892
  218MOL    C7417868   1.894   2.974   7.750  0.2461  0.0717 -0.0529
  218MOL    O7517869   1.874   3.011   7.612  0.1688 -0.2842  0.0124
  218MOL    H7617870   1.868   3.061   0.028  0.1573  0.6155 -0.8565
  218MOL    H7717871   1.824   2.895   7.776 -0.3130  0.3531 -0.7058
  218MOL    C7817872   1.880   2.908   7.519  0.1989 -0.0695  0.5232
  218MOL    O7917873   1.842   2.965   7.396  0.0585  0.0807 -0.6496
  218MOL    H8017874   1.814   2.828   7.553 -2.5641  1.3074 -1.4779
  218MOL    H8117875   1.981   2.870   7.509 -0.3359 -0.6313 -3.5138
  218MOL    H8217876   1.917   3.016   7.369  0.1228 -0.7018 -1.9919
  219MOL     C117877   3.025   1.702   2.691  0.3903  0.3378  0.4925
  219MOL     O217878   3.057   1.838   2.650 -0.6245 -0.2750  0.4334
  219MOL     H317879   2.926   1.692   2.734  0.5370 -1.5028  0.4269
  219MOL     H417880   3.017   1.627   2.612 -0.2786 -0.0274  0.9073
  219MOL     H517881   3.094   1.666   2.767  0.0048  0.2957  0.8197
  219MOL     C617882   3.175   1.841   2.575  0.5812 -0.6589  0.0128
  219MOL     O717883   3.289   1.806   2.644  0.2049 -0.4794  0.3068
  219MOL     H817884   3.182   1.947   2.548 -1.4091 -0.4386  0.2369
  219MOL     H917885   3.141   1.782   2.490 -1.0686  0.2262  0.0233
  219MOL    C1017886   3.401   1.805   2.555  0.8754  0.0384 -0.1338
  219MOL    O1117887   3.452   1.930   2.559  0.2620  0.6286  0.3208
  219MOL    H1217888   3.367   1.777   2.455  0.6569 -0.0654 -0.0302
  219MOL    H1317889   3.474   1.727   2.579 -1.5084 -2.5850 -1.0838
  219MOL    C1417890   3.557   1.928   2.655  0.1058 -0.6377  0.1418
  219MOL    O1517891   3.669   1.858   2.621 -0.7252  0.1626 -0.5934
  219MOL    H1617892   3.526   1.887   2.751 -0.8223  2.8980  1.4356
  219MOL    H1717893   3.586   2.028   2.687  2.0122 -0.8872 -0.6986
  219MOL    C1817894   3.735   1.916   2.510 -0.0071  0.6273 -0.8010
  219MOL    O1917895   3.817   2.022   2.555  0.1001  0.2062 -0.1694
  219MOL    H2017896   3.678   1.963   2.430 -1.9583 -0.8221 -0.3114
  219MOL    H2117897   3.793   1.844   2.451  0.9145  0.0128  0.8254
  219MOL    C2217898   3.922   1.963   2.621  0.1961 -0.2167 -0.2230
  219MOL    O2317899   4.025   1.946   2.530  0.2210  0.4943 -0.6942
  219MOL    H2417900   3.908   1.863   2.663  1.4346 -0.3327 -0.0852
  219MOL    H2517901   3.961   2.030   2.697  1.1815 -0.5079 -0.4668
  219MOL    C2617902   4.064   2.073   2.478  0.5423 -0.5926 -0.4905
  219MOL    O2717903   4.134   2.155   2.566  0.0976 -0.2895  0.1647
  219MOL    H2817904   3.979   2.129   2.438  0.4699 -0.9241 -0.7985
  219MOL    H2917905   4.121   2.047   2.388  3.7180  1.7506  0.7375
  219MOL    C3017906   4.264   2.112   2.586 -0.0676  0.4281  0.2478
  219MOL    O3117907   4.333   2.114   2.464 -0.3628 -0.1867  1.1511
  219MOL    H3217908   4.264   2.011   2.628 -1.5638 -0.1641 -1.1342
  219MOL    H3317909   4.315   2.172   2.662  1.6553  1.9479 -2.0588
  219MOL    C3417910   4.446   2.030   2.459 -0.5799 -0.8202  0.5273
  219MOL    O3517911   4.567   2.091   2.494  0.2454  0.4903 -0.0859
  219MOL    H3617912   4.461   1.999   2.355  1.4120 -0.5718  0.7191
  219MOL    H3717913   4.446   1.941   2.521  0.8904 -1.3443 -0.2011
  219MOL    C3817914   4.620   2.178   2.394  0.6334 -0.3423  0.4144
  219MOL    O3917915   4.679   2.118   2.289  0.0709 -0.1460 -0.5137
  219MOL    H4017916   4.695   2.240   2.442 -0.5495  0.2287  1.5599
  219MOL    H4117917   4.544   2.252   2.369  1.6758  0.1609 -1.4110
  219MOL    C4217918   4.820   2.104   2.303  0.2117  0.9741 -0.2623
  219MOL    O4317919   4.858   2.005   2.399  0.4915  0.4826  0.6878
  219MOL    H4417920   4.864   2.202   2.323 -1.0556  1.3930  0.4996
  219MOL    H4517921   4.860   2.065   2.210 -0.1455  0.7735 -0.3302
  219MOL    C4617922   4.864   1.874   2.340  0.0713  0.4289  1.1575
  219MOL    O4717923   4.913   1.782   2.433  0.0009 -0.3462  0.3821
  219MOL    H4817924   4.931   1.877   2.255 -1.9657 -3.2138 -0.6694
  219MOL    H4917925   4.772   1.843   2.291  2.3368 -2.7662 -1.2350
  219MOL    C5017926   4.826   1.761   2.533 -0.9395  0.2096 -0.0110
  219MOL    O5117927   4.884   1.673   2.627  0.4699 -0.1765 -0.1053
  219MOL    H5217928   4.729   1.720   2.504 -0.7797 -2.3274  2.7710
  219MOL    H5317929   4.799   1.856   2.580 -2.0577 -0.7957  1.4233
  219MOL    C5417930   4.965   1.745   2.724  0.3180 -0.2755 -0.0692
  219MOL    O5517931   5.014   1.655   2.823  0.3471  0.0332 -0.7447
  219MOL    H5617932   4.919   1.834   2.767  0.8587  0.3632 -0.7786
  219MOL    H5717933   5.052   1.791   2.676  0.5386 -0.9850 -0.3667
  219MOL    C5817934   5.126   1.587   2.779  0.9985  0.1667  0.3782
  219MOL    O5917935   5.235   1.668   2.766 -0.2365 -0.2354  0.5131
  219MOL    H6017936   5.106   1.551   2.678  1.9721  0.9328 -0.1001
  219MOL    H6117937   5.148   1.509   2.852 -2.8138 -2.6172 -1.2774
  219MOL    C6217938   5.265   1.719   2.891 -0.9341  0.2443 -0.1418
  219MOL    O6317939   5.381   1.792   2.879  0.5130 -0.4018 -0.9593
  219MOL    H6417940   5.284   1.638   2.961 -1.7126  0.3860  0.2342
  219MOL    H6517941   5.187   1.782   2.932 -0.2499  0.7942  0.3333
  219MOL    C6617942   5.364   1.891   2.782 -0.1571 -0.8174 -0.8574
  219MOL    O6717943   5.471   1.982   2.790 -0.2012  0.2642 -0.2669
  219MOL    H6817944   5.272   1.950   2.784 -0.6942 -1.6956  0.7861
  219MOL    H6917945   5.369   1.842   2.685 -1.1165  2.4577 -2.6449
  219MOL    C7017946   5.445   2.092   2.863  0.2463 -0.1362 -0.1217
  219MOL    O7117947   5.552   2.171   2.867 -0.2065 -0.4686  0.3715
  219MOL    H7217948   5.427   2.064   2.967 -2.0289  2.7699  0.3366
  219MOL    H7317949   5.357   2.149   2.834 -1.6072 -1.7337  2.1776
  219MOL    C7417950   5.557   2.248   2.746  0.2987 -0.3160  0.4921
  219MOL    O7517951   5.452   2.337   2.734  0.2299 -0.2261 -0.2005
  219MOL    H7617952   5.545   2.179   2.663 -0.9538 -0.7957  1.0506
  219MOL    H7717953   5.652   2.301   2.752  0.4827 -0.5067 -0.6977
  219MOL    C7817954   5.474   2.437   2.634  0.2873  0.1200 -0.0735
  219MOL    O7917955   5.367   2.522   2.608 -0.0051  0.1324  0.2305
  219MOL    H8017956   5.497   2.386   2.541 -2.6683  0.4612 -1.0391
  219MOL    H8117957   5.556   2.501   2.668 -0.4410 -0.0492  2.1131
  219MOL    H8217958   5.371   2.581   2.681  3.2121 -0.3812  0.5474
  220MOL     C117959   6.291   7.058   4.743 -0.0524 -0.3506 -0.4988
  220MOL     O217960   6.249   7.184   4.690 -0.1910 -1.0074  0.1827
  220MOL     H317961   6.307   6.988   4.661 -2.8789 -0.1053 -1.3311
  220MOL     H417962   6.386   7.077   4.793 -1.4850  1.9258  1.4420
  220MOL     H517963   6.228   7.021   4.824  0.1833 -1.1412 -0.6663
  220MOL     C617964   6.118   7.177   4.637 -0.2882  0.5878  0.2781
  220MOL     O717965   6.021   7.153   4.734  0.5883  0.3095 -0.6336
  220MOL     H817966   6.123   7.085   4.578  1.2355  0.8861 -0.0676
  220MOL     H917967   6.098   7.264   4.574  0.6512  1.2943  0.9644
  220MOL    C1017968   5.985   7.267   4.811 -0.1073  0.1219  0.3026
  220MOL    O1117969   5.889   7.236   4.912  0.7022 -0.4133  0.4734
  220MOL    H1217970   5.935   7.327   4.736 -3.4946 -3.1371 -0.2258
  220MOL    H1317971   6.070   7.318   4.856  0.5424  1.7261 -2.6642
  220MOL    C1417972   5.937   7.154   5.016  0.2670  0.3843  0.1945
  220MOL    O1517973   6.017   7.227   5.099  0.1156 -0.4903  0.0915
  220MOL    H1617974   5.988   7.060   4.992  0.7977  0.0386  2.5485
  220MOL    H1717975   5.850   7.119   5.072  1.7818  0.8363  2.9547
  220MOL    C1817976   6.023   7.182   5.234 -0.1009 -0.0150 -0.2268
  220MOL    O1917977   6.060   7.047   5.250 -0.0150 -0.0263 -0.0450
  220MOL    H2017978   5.929   7.190   5.288 -0.3374  0.6212 -0.7271
  220MOL    H2117979   6.090   7.251   5.284  0.5190  0.7615 -2.0982
  220MOL    C2217980   6.201   7.020   5.237  0.4104 -0.3047 -0.1628
  220MOL    O2317981   6.228   6.979   5.117  0.1337 -0.1067 -0.6829
  220MOL    H2417982   6.234   6.952   5.315 -1.5912 -1.9402 -0.7007
  220MOL    H2517983   6.253   7.114   5.258 -0.5673  0.3353 -0.5714
  220MOL    C2617984   6.196   6.843   5.089 -1.0767 -0.5740  0.4509
  220MOL    O2717985   6.301   6.759   5.118 -0.3001 -0.1002 -0.7676
  220MOL    H2817986   6.153   6.838   4.989 -2.1320  1.3377  0.7910
  220MOL    H2917987   6.113   6.821   5.156 -0.5801 -2.2899  0.5256
  220MOL    C3017988   6.412   6.775   5.037 -0.0173 -0.8995 -0.1875
  220MOL    O3117989   6.391   6.774   4.900  1.3030  0.1089 -0.2238
  220MOL    H3217990   6.465   6.683   5.063  1.1747 -0.6586 -1.6479
  220MOL    H3317991   6.477   6.853   5.078  0.3258 -1.4689  0.3476
  220MOL    C3417992   6.523   6.779   4.832  0.7527  0.3305  0.0434
  220MOL    O3517993   6.513   6.836   4.708  0.4508 -0.1210  0.7484
  220MOL    H3617994   6.571   6.681   4.832  1.5376  0.7094  0.6325
  220MOL    H3717995   6.586   6.848   4.887 -0.2396  3.1392 -2.1753
  220MOL    C3817996   6.503   6.738   4.609  0.5226  0.1653 -0.5024
  220MOL    O3917997   6.625   6.672   4.594  0.0580  0.5446  0.1729
  220MOL    H4017998   6.460   6.782   4.519 -0.1232 -0.8281 -0.6840
  220MOL    H4117999   6.437   6.659   4.645  1.3685 -1.0426 -1.5543
  220MOL    C4218000   6.720   6.754   4.529  0.1703 -0.5398  0.5852
  220MOL    O4318001   6.845   6.687   4.519  0.3550 -0.2901  0.0498
  220MOL    H4418002   6.739   6.849   4.580  0.6120  0.0101 -0.5961
  220MOL    H4518003   6.672   6.779   4.435  0.3462 -2.8018 -0.1432
  220MOL    C4618004   6.839   6.576   4.433 -0.0622 -0.6900 -0.7318
  220MOL    O4718005   6.805   6.612   4.301 -0.4517  0.0328  0.2521
  220MOL    H4818006   6.760   6.505   4.455 -1.1507  0.6373 -0.2852
  220MOL    H4918007   6.940   6.534   4.442  0.0795  0.0786  1.9602
  220MOL    C5018008   6.870   6.719   4.247  0.5857  0.2502 -0.7359
  220MOL    O5118009   7.002   6.689   4.210 -0.2980  0.7003  0.4530
  220MOL    H5218010   6.867   6.804   4.315  0.2468 -1.5888  1.6599
  220MOL    H5318011   6.812   6.737   4.157  0.6714  0.6196 -0.7179
  220MOL    C5418012   7.030   6.733   4.073 -0.1641 -0.8647 -0.1185
  220MOL    O5518013   6.957   6.657   3.979  0.5864 -0.1374 -0.3069
  220MOL    H5618014   7.137   6.712   4.066 -0.4192 -1.8863 -0.9714
  220MOL    H5718015   7.013   6.841   4.071 -1.2353 -1.0179  0.1229
  220MOL    C5818016   6.985   6.520   3.982  0.0120 -0.2473 -0.2458
  220MOL    O5918017   7.103   6.490   3.915  0.1400 -0.7421 -1.1465
  220MOL    H6018018   6.900   6.461   3.947  0.6271  0.1054 -2.4161
  220MOL    H6118019   6.991   6.502   4.089  1.6894 -1.0124 -0.4457
  220MOL    C6218020   7.077   6.440   3.789  0.2749 -0.9613 -0.2140
  220MOL    O6318021   7.037   6.308   3.803  0.1140 -0.2590  0.2355
  220MOL    H6418022   7.172   6.442   3.735  1.0424  0.7689  1.1568
  220MOL    H6518023   6.995   6.489   3.735 -1.3244 -1.5010  1.6608
  220MOL    C6618024   7.136   6.227   3.845 -0.2140  0.0563  0.0868
  220MOL    O6718025   7.219   6.189   3.741  0.1701  0.2875  0.2685
  220MOL    H6818026   7.097   6.142   3.902 -2.0395  0.8587  0.0597
  220MOL    H6918027   7.206   6.268   3.918 -1.6788  1.6104  0.6341
  220MOL    C7018028   7.156   6.082   3.663  0.0546  0.3593 -0.2058
  220MOL    O7118029   7.153   5.963   3.728 -0.3717  0.7335 -0.1204
  220MOL    H7218030   7.209   6.070   3.568 -1.5622 -3.6384 -0.6949
  220MOL    H7318031   7.053   6.109   3.640 -0.4710 -0.5246  1.1062
  220MOL    C7418032   7.279   5.899   3.740  0.6675 -0.2525  0.5185
  220MOL    O7518033   7.313   5.829   3.620 -0.5474  0.3689  0.0034
  220MOL    H7618034   7.262   5.830   3.822 -1.5795  0.7589  0.9525
  220MOL    H7718035   7.356   5.974   3.757 -1.4895  2.2278 -0.3893
  220MOL    C7818036   7.220   5.731   3.584 -0.0023  0.1337 -0.1827
  220MOL    O7918037   7.275   5.632   3.500 -0.5790  0.6772 -0.0981
  220MOL    H8018038   7.137   5.778   3.531 -0.2925  1.1037  1.1121
  220MOL    H8118039   7.167   5.682   3.666 -0.3548 -0.2301 -0.6225
  220MOL    H8218040   7.210   5.571   3.468  0.7250 -1.2070  0.7557
  221MOL     C118041   6.421   7.217   2.822  0.3990  0.3614  0.4542
  221MOL     O218042   6.391   7.183   2.688  0.0845 -0.6021 -0.0614
  221MOL     H318043   6.423   7.123   2.877  0.4718 -0.7469 -1.4099
  221MOL     H418044   6.525   7.248   2.835  0.2629  0.1814  1.9977
  221MOL     H518045   6.351   7.283   2.873 -1.7452 -2.0866  0.7429
  221MOL     C618046   6.264   7.142   2.671  0.6475 -0.5330  0.2635
  221MOL     O718047   6.164   7.228   2.698  0.0582  0.0840 -0.3498
  221MOL     H818048   6.258   7.046   2.723 -0.8860 -0.8460 -0.4629
  221MOL     H918049   6.251   7.116   2.566  1.2656  0.5573 -0.0868
  221MOL    C1018050   6.139   7.334   2.617 -0.4950  0.7279 -0.1150
  221MOL    O1118051   6.019   7.398   2.645 -0.1611  0.4532 -0.2899
  221MOL    H1218052   6.142   7.302   2.512 -1.3414 -0.4627  0.2111
  221MOL    H1318053   6.223   7.404   2.622 -0.2994  0.4122  1.0143
  221MOL    C1418054   5.906   7.323   2.602 -1.0899  0.3965 -0.2654
  221MOL    O1518055   5.892   7.308   2.463 -0.3058  0.4042  0.5947
  221MOL    H1618056   5.810   7.359   2.640 -2.6112 -3.0666 -0.5721
  221MOL    H1718057   5.909   7.225   2.649 -1.7646  0.6458  0.3085
  221MOL    C1818058   5.760   7.289   2.415  1.3353 -0.8270  0.4765
  221MOL    O1918059   5.689   7.193   2.488 -0.5613 -0.0726 -0.0947
  221MOL    H2018060   5.756   7.280   2.307  0.3535 -0.0001  0.4314
  221MOL    H2118061   5.710   7.385   2.432 -0.8184 -1.8602  0.0812
  221MOL    C2218062   5.719   7.065   2.442  0.1544  0.3865 -0.2746
  221MOL    O2318063   5.658   7.044   2.316  0.0966 -0.6030 -0.4606
  221MOL    H2418064   5.671   6.989   2.504 -0.3957  0.9158 -0.0377
  221MOL    H2518065   5.826   7.050   2.439  0.2218  0.9185 -0.5940
  221MOL    C2618066   5.723   6.948   2.238  0.2228  0.1508 -0.4634
  221MOL    O2718067   5.840   6.993   2.176  0.6698  0.4462 -0.2199
  221MOL    H2818068   5.659   6.903   2.163  2.4012  1.2488 -3.0484
  221MOL    H2918069   5.740   6.859   2.300 -0.2610  0.5929  0.3083
  221MOL    C3018070   5.816   7.038   2.045 -0.7535  0.1362  0.1960
  221MOL    O3118071   5.786   6.931   1.954  0.6831 -0.6953 -0.6337
  221MOL    H3218072   5.896   7.097   2.001 -0.3974  1.1889  2.1721
  221MOL    H3318073   5.732   7.107   2.053 -1.1063 -0.2699 -0.0004
  221MOL    C3418074   5.750   6.975   1.824 -0.6000 -0.0237  0.6134
  221MOL    O3518075   5.623   7.042   1.832 -0.2243  0.1005  0.0024
  221MOL    H3618076   5.745   6.890   1.756 -0.4902  1.8151 -1.7896
  221MOL    H3718077   5.831   7.042   1.796 -1.4444  1.0887  0.7991
  221MOL    C3818078   5.522   6.950   1.858  0.0808 -0.1397 -0.0438
  221MOL    O3918079   5.517   6.850   1.765 -0.4586 -0.3814  0.3239
  221MOL    H4018080   5.426   7.002   1.865  1.1177  1.6597  1.2025
  221MOL    H4118081   5.539   6.902   1.954  1.2649 -2.2615 -1.2810
  221MOL    C4218082   5.387   6.836   1.709 -0.4589 -0.0509 -0.1467
  221MOL    O4318083   5.276   6.799   1.798  0.5045 -0.2151 -0.1026
  221MOL    H4418084   5.410   6.763   1.632  2.2356  2.1210 -1.4373
  221MOL    H4518085   5.350   6.930   1.668 -0.2100  0.9288  1.8269
  221MOL    C4618086   5.271   6.657   1.814 -0.3221  0.4007 -0.1117
  221MOL    O4718087   5.184   6.624   1.917  0.2132 -0.1278  0.0581
  221MOL    H4818088   5.366   6.606   1.831 -2.1017 -2.2898  2.0820
  221MOL    H4918089   5.225   6.614   1.725 -1.0224 -0.9507  0.8844
  221MOL    C5018090   5.231   6.659   2.039 -0.2223  0.9594 -0.1843
  221MOL    O5118091   5.338   6.582   2.075 -0.5803 -0.5007  0.5168
  221MOL    H5218092   5.158   6.658   2.119 -1.5204 -0.6703 -1.3338
  221MOL    H5318093   5.258   6.764   2.044  1.3507  0.5295  0.6805
  221MOL    C5418094   5.298   6.463   2.131  0.0456 -0.5444  0.6231
  221MOL    O5518095   5.232   6.479   2.253 -0.2622  0.2594  0.8047
  221MOL    H5618096   5.391   6.407   2.148  1.2084  0.9152 -0.7578
  221MOL    H5718097   5.237   6.410   2.058 -1.9132  0.6637  1.3682
  221MOL    C5818098   5.181   6.358   2.296  0.6401  0.7539 -0.3374
  221MOL    O5918099   5.265   6.272   2.373 -0.3044 -0.2290  0.1846
  221MOL    H6018100   5.123   6.306   2.220  1.3965  1.2446 -1.2466
  221MOL    H6118101   5.100   6.396   2.359  1.2308  0.3418  0.6824
  221MOL    C6218102   5.304   6.313   2.502 -0.3664 -0.2382  0.0002
  221MOL    O6318103   5.196   6.298   2.593 -0.0867 -0.2586  0.0791
  221MOL    H6418104   5.337   6.417   2.502 -0.4074 -0.2231  1.4782
  221MOL    H6518105   5.387   6.254   2.542 -0.8807  0.0394  1.4917
  221MOL    C6618106   5.176   6.167   2.622 -0.5828 -0.0860 -0.0639
  221MOL    O6718107   5.254   6.114   2.730  0.7009 -0.1680 -0.8136
  221MOL    H6818108   5.188   6.100   2.538  1.8480 -1.7201  1.5162
  221MOL    H6918109   5.072   6.164   2.655  0.2654 -0.2153  2.7505
  221MOL    C7018110   5.211   6.161   2.857 -0.0720 -0.2881  0.1008
  221MOL    O7118111   5.092   6.105   2.910  0.5580 -0.1695 -0.0824
  221MOL    H7218112   5.201   6.269   2.850  1.4285 -0.0769  0.9355
  221MOL    H7318113   5.288   6.143   2.932  0.2729  0.5564 -0.0501
  221MOL    C7418114   5.091   5.970   2.927 -0.4885  0.5065 -0.5834
  221MOL    O7518115   5.182   5.937   3.027  0.4288 -0.2710  0.5041
  221MOL    H7618116   5.118   5.920   2.834 -0.2005 -0.7631  0.1776
  221MOL    H7718117   4.989   5.942   2.956 -0.4757  0.9024 -0.1468
  221MOL    C7818118   5.156   5.814   3.076  0.0053 -0.0296 -0.2165
  221MOL    O7918119   5.240   5.775   3.174  0.4313  0.1743  0.4325
  221MOL    H8018120   5.182   5.746   2.995  1.8414  1.1799 -0.6682
  221MOL    H8118121   5.053   5.793   3.104 -0.3267  1.2238 -0.4679
  221MOL    H8218122   5.218   5.826   3.251 -1.7901 -1.2141  0.7557
  222MOL     C118123   1.055   3.134   3.545 -0.3313 -0.4603  0.1247
  222MOL     O218124   1.091   3.219   3.438 -0.6941 -0.9578 -0.4917
  222MOL     H318125   1.032   3.035   3.506  0.2335  0.5706 -2.9907
  222MOL     H418126   1.122   3.142   3.631 -0.0013  0.5495 -0.2140
  222MOL     H518127   0.965   3.175   3.590 -0.0943  0.6072 -0.3375
  222MOL     C618128   1.012   3.206   3.324 -0.0849 -0.3786  0.1288
  222MOL     O718129   0.878   3.248   3.357  0.2167 -0.0144 -0.7978
  222MOL     H818130   1.031   3.105   3.287 -0.4576 -0.5658  0.4428
  222MOL     H918131   1.043   3.278   3.249  0.3247 -0.4433  0.2326
  222MOL    C1018132   0.786   3.217   3.257 -0.6013 -0.2336  0.0335
  222MOL    O1118133   0.759   3.078   3.251 -0.7257 -0.0860 -0.1604
  222MOL    H1218134   0.818   3.265   3.165 -0.9994  1.6986  0.8734
  222MOL    H1318135   0.691   3.265   3.281 -1.2493 -2.0451  1.2631
  222MOL    C1418136   0.682   3.034   3.358 -0.2144  0.2228  0.2286
  222MOL    O1518137   0.646   2.896   3.339  0.3794 -0.1819 -0.3966
  222MOL    H1618138   0.590   3.092   3.362  2.1290  4.0678  1.3609
  222MOL    H1718139   0.741   3.051   3.448 -1.5808 -0.0350  1.1905
  222MOL    C1818140   0.758   2.818   3.310  0.0109  0.4919  0.1488
  222MOL    O1918141   0.717   2.682   3.308 -0.3628 -0.4685 -0.1273
  222MOL    H2018142   0.825   2.840   3.394 -0.8638 -1.3338  1.3586
  222MOL    H2118143   0.783   2.851   3.210 -0.0691  3.1315  0.9507
  222MOL    C2218144   0.681   2.629   3.429 -0.3966  0.6984  0.3276
  222MOL    O2318145   0.796   2.603   3.504 -0.1048 -0.4279  0.3699
  222MOL    H2418146   0.618   2.542   3.414 -0.4770  0.3101  2.7219
  222MOL    H2518147   0.624   2.707   3.480 -0.1720  1.4380 -0.5209
  222MOL    C2618148   0.768   2.543   3.630 -0.4320  1.0002  0.9433
  222MOL    O2718149   0.707   2.632   3.721 -0.2402 -0.1370  0.7134
  222MOL    H2818150   0.866   2.512   3.667  0.3224  1.9826 -0.2231
  222MOL    H2918151   0.697   2.461   3.619  0.1536 -0.0618  4.3555
  222MOL    C3018152   0.799   2.731   3.772 -0.0201  0.3718  0.8429
  222MOL    O3118153   0.734   2.823   3.853 -0.1140  0.0764 -0.3309
  222MOL    H3218154   0.848   2.791   3.694 -0.9366 -0.4880 -0.4135
  222MOL    H3318155   0.882   2.689   3.829 -0.2533  1.2302  1.8351
  222MOL    C3418156   0.623   2.882   3.789  0.1807  0.5167 -0.6184
  222MOL    O3518157   0.676   2.972   3.697  0.0871 -0.2478 -0.5800
  222MOL    H3618158   0.566   2.929   3.869  0.7484 -0.5861  0.4453
  222MOL    H3718159   0.558   2.808   3.742  2.8441  0.0281 -3.7689
  222MOL    C3818160   0.682   3.100   3.749  0.2039 -0.1425  0.0536
  222MOL    O3918161   0.556   3.155   3.745 -0.3721 -0.0465 -0.5450
  222MOL    H4018162   0.731   3.171   3.683  0.8157  1.7923  2.5185
  222MOL    H4118163   0.730   3.107   3.847  1.4395 -0.1309 -0.5390
  222MOL    C4218164   0.482   3.153   3.630  0.3338  0.2645  0.3942
  222MOL    O4318165   0.540   3.241   3.538  0.4685  0.1200 -0.4806
  222MOL    H4418166   0.384   3.195   3.653 -0.4348 -0.7536 -0.9573
  222MOL    H4518167   0.473   3.053   3.589 -2.7355  0.5173  0.3655
  222MOL    C4618168   0.533   3.374   3.580 -0.1921  0.0675 -0.2064
  222MOL    O4718169   0.610   3.463   3.499  0.2593  0.3441  0.0315
  222MOL    H4818170   0.571   3.382   3.682 -0.0161 -0.2604 -0.2462
  222MOL    H4918171   0.430   3.410   3.575 -0.1110  0.0824 -2.2864
  222MOL    C5018172   0.744   3.456   3.529  0.5604 -0.1612  0.1238
  222MOL    O5118173   0.776   3.524   3.649  0.0721 -0.3171 -0.2954
  222MOL    H5218174   0.790   3.513   3.448 -0.8449 -0.4258 -0.8747
  222MOL    H5318175   0.773   3.354   3.550 -2.1115 -0.3679  3.2796
  222MOL    C5418176   0.745   3.659   3.643  0.5802 -0.1552  0.7436
  222MOL    O5518177   0.749   3.716   3.768  0.1316  0.0845  0.0035
  222MOL    H5618178   0.644   3.682   3.611  0.4540  0.8187  1.8113
  222MOL    H5718179   0.811   3.702   3.567  1.8938  1.0348  2.5105
  222MOL    C5818180   0.874   3.758   3.803 -0.6849 -0.6130  0.4146
  222MOL    O5918181   0.918   3.868   3.723 -0.0673 -0.4991 -0.3304
  222MOL    H6018182   0.949   3.680   3.799  2.4546  2.2299  1.3652
  222MOL    H6118183   0.873   3.780   3.910  1.6310  0.0818  0.3289
  222MOL    C6218184   0.846   3.981   3.754  0.1126  0.0732  0.7469
  222MOL    O6318185   0.887   4.034   3.872 -0.3254 -1.0344 -0.7029
  222MOL    H6418186   0.740   3.955   3.756 -0.1567  1.1657  1.1951
  222MOL    H6518187   0.857   4.056   3.676 -0.5921  2.1359  2.5866
  222MOL    C6618188   0.811   4.140   3.922  0.0688 -0.5220  0.2486
  222MOL    O6718189   0.683   4.096   3.966  0.1611 -0.0753  0.3319
  222MOL    H6818190   0.809   4.215   3.843  0.4068  0.7943  1.4766
  222MOL    H6918191   0.860   4.190   4.005  0.0081  1.7312 -1.0208
  222MOL    C7018192   0.695   4.011   4.075 -0.2047  0.2354 -0.7430
  222MOL    O7118193   0.734   4.075   4.194  0.3234  0.5641 -0.0689
  222MOL    H7218194   0.769   3.939   4.041  0.0800  0.3774 -0.4205
  222MOL    H7318195   0.599   3.960   4.089 -0.2439  0.9569  1.8110
  222MOL    C7418196   0.638   4.159   4.242  0.0210 -0.0317 -0.2252
  222MOL    O7518197   0.515   4.101   4.270 -0.1698 -0.0653 -0.2290
  222MOL    H7618198   0.622   4.240   4.171 -1.1611  1.2551  1.4359
  222MOL    H7718199   0.681   4.206   4.331  0.0895  1.4489 -1.0246
  222MOL    C7818200   0.495   4.063   4.402 -0.1480  0.1186 -0.1605
  222MOL    O7918201   0.365   4.024   4.419 -0.7552 -0.2293  0.3373
  222MOL    H8018202   0.508   4.144   4.474 -1.0310 -0.3609  0.5510
  222MOL    H8118203   0.551   3.979   4.443 -3.2173 -1.9288  0.0894
  222MOL    H8218204   0.351   3.963   4.347 -1.6975  1.0156 -0.5775
  223MOL     C118205   6.989   6.400   2.177 -0.3741  0.5925  0.4855
  223MOL     O218206   7.084   6.498   2.210 -0.0368 -0.3643 -0.0226
  223MOL     H318207   7.043   6.316   2.134 -2.9120 -0.6393 -0.3623
  223MOL     H418208   6.944   6.370   2.272  3.0609  0.2291  2.0875
  223MOL     H518209   6.911   6.429   2.107  0.4522  1.2634 -0.1666
  223MOL     C618210   7.098   6.604   2.122 -0.2075  0.1587  0.0442
  223MOL     O718211   7.128   6.573   1.996  0.6117  0.8964 -0.3366
  223MOL     H818212   7.163   6.677   2.170 -0.6552 -0.7476  2.0629
  223MOL     H918213   7.005   6.660   2.113 -0.5738 -0.5381 -0.6775
  223MOL    C1018214   7.156   6.690   1.912 -0.1623 -0.2457  0.4469
  223MOL    O1118215   7.283   6.748   1.935 -0.4100  0.2597  0.2574
  223MOL    H1218216   7.083   6.767   1.935 -1.7478 -1.2879 -0.9861
  223MOL    H1318217   7.144   6.657   1.809 -1.4647 -0.4566  0.6553
  223MOL    C1418218   7.391   6.662   1.903  0.2206  0.2613  0.9989
  223MOL    O1518219   7.406   6.642   1.764  0.7747  0.3485 -0.3455
  223MOL    H1618220   7.380   6.571   1.962  3.0071 -0.4320  0.5065
  223MOL    H1718221   7.476   6.716   1.944 -0.0270  0.8039  0.8008
  223MOL    C1818222   7.519   6.560   1.736  0.4614  0.3770 -0.2871
  223MOL    O1918223   7.497   6.424   1.779 -0.2001  0.0736  0.0334
  223MOL    H2018224   7.599   6.605   1.795  2.1738 -2.2483 -0.4771
  223MOL    H2118225   7.532   6.556   1.627 -1.6190  0.3156 -0.5437
  223MOL    C2218226   7.612   6.345   1.762 -0.9367 -0.0474 -0.7118
  223MOL    O2318227   7.712   6.389   1.850  0.6025 -0.6179 -0.5094
  223MOL    H2418228   7.645   6.341   1.658  2.6780  1.4403  0.3291
  223MOL    H2518229   7.586   6.240   1.774 -0.8027 -0.1996 -1.6425
  223MOL    C2618230   0.055   6.336   1.826  0.1276 -0.0428  0.8064
  223MOL    O2718231   0.095   6.397   1.715 -0.4573  0.3863 -0.4130
  223MOL    H2818232   0.053   6.230   1.802  0.8788  0.5586 -2.1383
  223MOL    H2918233   0.115   6.370   1.910  3.5945  1.1105 -2.0347
  223MOL    C3018234   0.150   6.527   1.734 -0.3612 -0.2700 -0.7267
  223MOL    O3118235   0.281   6.527   1.776  0.0193  0.4132  0.9143
  223MOL    H3218236   0.085   6.575   1.808 -1.0762 -0.0996 -1.4598
  223MOL    H3318237   0.150   6.586   1.642 -0.9228 -0.8998 -1.1292
  223MOL    C3418238   0.369   6.442   1.700 -0.1903 -0.8131 -0.1254
  223MOL    O3518239   0.485   6.429   1.768  0.1809 -0.1669 -0.3816
  223MOL    H3618240   0.393   6.490   1.605  2.9597  1.5497  1.8013
  223MOL    H3718241   0.326   6.343   1.679 -2.5582  0.4340 -1.4081
  223MOL    C3818242   0.477   6.330   1.867 -0.8657 -0.0187  0.2281
  223MOL    O3918243   0.497   6.200   1.811 -0.6398 -0.5133 -0.0106
  223MOL    H4018244   0.377   6.336   1.911 -1.2325  0.9524 -0.7144
  223MOL    H4118245   0.554   6.345   1.942 -0.6689 -1.6778  0.3773
  223MOL    C4218246   0.628   6.186   1.762  0.8430  0.2602  0.4803
  223MOL    O4318247   0.711   6.145   1.869  0.1342  0.2145  0.1039
  223MOL    H4418248   0.672   6.278   1.722  0.6999 -0.0150 -0.3033
  223MOL    H4518249   0.629   6.110   1.684 -0.2538  0.3066  0.4176
  223MOL    C4618250   0.839   6.120   1.828  0.5131  0.1252  0.4393
  223MOL    O4718251   0.863   5.988   1.801  0.1433  0.5899  0.1310
  223MOL    H4818252   0.914   6.162   1.895  0.7128  1.2197 -0.4701
  223MOL    H4918253   0.859   6.164   1.731  0.9821  0.4057  0.6641
  223MOL    C5018254   0.870   5.909   1.914 -0.0894 -0.5958 -0.9343
  223MOL    O5118255   0.989   5.943   1.966 -0.0833 -0.6799 -0.2622
  223MOL    H5218256   0.866   5.801   1.899 -1.0587 -1.1675  2.8715
  223MOL    H5318257   0.786   5.929   1.981  0.6231  1.8347 -0.7042
  223MOL    C5418258   1.029   5.857   2.069  0.2198 -0.2829 -0.8972
  223MOL    O5518259   1.161   5.895   2.104 -0.3853  0.2008  0.4131
  223MOL    H5618260   1.042   5.754   2.037 -1.3260 -0.4636 -0.9983
  223MOL    H5718261   0.958   5.867   2.151  0.2543 -2.1523 -0.6261
  223MOL    C5818262   1.219   5.804   2.193  0.3810 -0.5945  0.3784
  223MOL    O5918263   1.171   5.820   2.321 -0.7439 -0.1580  0.6130
  223MOL    H6018264   1.326   5.821   2.201  0.1453  0.2100  1.9729
  223MOL    H6118265   1.209   5.699   2.166  1.6761 -0.6778  0.1883
  223MOL    C6218266   1.223   5.936   2.383 -0.5712  0.7508 -0.0979
  223MOL    O6318267   1.358   5.924   2.417  0.2232  0.3641 -0.3465
  223MOL    H6418268   1.161   5.943   2.472 -1.2523  0.7828 -0.5701
  223MOL    H6518269   1.207   6.024   2.320  1.9212 -0.0805 -1.9406
  223MOL    C6618270   1.383   5.840   2.528 -0.2817 -0.7670 -0.3135
  223MOL    O6718271   1.331   5.888   2.654  0.0896 -0.3538  0.4703
  223MOL    H6818272   1.491   5.835   2.542 -0.2095 -0.7420 -0.8720
  223MOL    H6918273   1.348   5.741   2.501  0.7379 -0.3941 -3.1198
  223MOL    C7018274   1.240   5.792   2.708  0.8248  0.1978 -0.2436
  223MOL    O7118275   1.217   5.812   2.846 -0.4080  0.1929 -0.2406
  223MOL    H7218276   1.289   5.695   2.717 -2.2927 -1.4090  0.2377
  223MOL    H7318277   1.161   5.788   2.633 -0.1827 -1.3866  0.8651
  223MOL    C7418278   1.103   5.893   2.853 -0.7047 -0.0399 -0.3418
  223MOL    O7518279   0.977   5.841   2.857 -0.1166 -0.9715  0.4784
  223MOL    H7618280   1.099   5.974   2.780 -0.8614  1.0027  0.8135
  223MOL    H7718281   1.116   5.938   2.951 -1.0627 -1.1584  0.2272
  223MOL    C7818282   0.947   5.766   2.971  0.5720 -0.6829 -0.7299
  223MOL    O7918283   0.818   5.716   2.977 -0.3852 -0.3202  0.1618
  223MOL    H8018284   0.952   5.835   3.056 -0.3584 -1.3460 -0.1262
  223MOL    H8118285   1.018   5.688   2.997 -0.6236 -1.4805  0.1978
  223MOL    H8218286   0.807   5.651   2.909 -1.2349 -1.5125  1.4065
  224MOL     C118287   5.417   3.385   7.428 -0.0310 -0.0060  0.5931
  224MOL     O218288   5.499   3.464   7.518  0.4365  0.7670  0.4817
  224MOL     H318289   5.333   3.444   7.390  0.5278 -0.7753 -1.9382
  224MOL     H418290   5.468   3.344   7.341  0.8726 -2.1814  2.1070
  224MOL     H518291   5.375   3.304   7.487 -1.1149  1.3186  1.7013
  224MOL     C618292   5.630   3.408   7.535 -0.4851 -0.0267  0.2909
  224MOL     O718293   5.639   3.274   7.584 -0.1595 -0.2935 -0.2510
  224MOL     H818294   5.685   3.486   7.587 -0.0272 -0.0713 -0.1277
  224MOL     H918295   5.672   3.407   7.434 -0.5552  1.2340  0.2408
  224MOL    C1018296   5.587   3.260   7.718  0.6809 -0.3795  0.5432
  224MOL    O1118297   5.675   3.330   0.011  0.0796  0.5837  0.5017
  224MOL    H1218298   5.590   3.152   7.735 -0.6293 -0.3545  0.9486
  224MOL    H1318299   5.487   3.292   7.745  0.6123 -1.2470  1.3307
  224MOL    C1418300   5.657   3.301   0.146  0.1477 -0.2255  0.7750
  224MOL    O1518301   5.550   3.371   0.205 -0.4521 -0.5742 -0.3683
  224MOL    H1618302   5.743   3.316   0.210  0.2219  0.6686  0.4686
  224MOL    H1718303   5.635   3.194   0.155  1.2632 -0.3608  1.9989
  224MOL    C1818304   5.592   3.496   0.241  1.0175 -0.4021  0.6852
  224MOL    O1918305   5.487   3.588   0.211  0.0939 -0.2918 -0.2813
  224MOL    H2018306   5.690   3.527   0.206  0.1020 -1.0995 -2.7031
  224MOL    H2118307   5.598   3.487   0.350 -0.5208  0.1205  0.8264
  224MOL    C2218308   5.496   3.644   0.075 -0.1515 -0.3385 -0.0329
  224MOL    O2318309   5.369   3.697   0.025 -0.2454  0.0935 -0.5010
  224MOL    H2418310   5.546   3.577   0.006 -2.4410 -2.4145  0.2687
  224MOL    H2518311   5.561   3.731   0.086 -1.1769  0.5630 -0.8996
  224MOL    C2618312   5.315   3.803   0.098 -0.6988  0.0299  0.1891
  224MOL    O2718313   5.347   3.931   0.059 -0.0776 -0.2083  0.0430
  224MOL    H2818314   5.329   3.808   0.206 -0.8372  1.3694  0.1596
  224MOL    H2918315   5.207   3.795   0.089 -0.4548 -0.6066 -2.6499
  224MOL    C3018316   5.284   3.958   7.715 -0.6555 -0.0340  0.0879
  224MOL    O3118317   5.145   3.979   7.726  0.0342  0.5596  0.9350
  224MOL    H3218318   5.295   3.875   7.646 -1.1933  1.1380 -1.4263
  224MOL    H3318319   5.325   4.047   7.669 -1.7308  0.3039 -0.2176
  224MOL    C3418320   5.092   4.107   7.760 -0.2948  0.1171 -0.0529
  224MOL    O3518321   5.128   4.203   7.661 -0.4080  0.3627  0.5374
  224MOL    H3618322   5.142   4.143   0.066 -2.8581  1.8778  0.7481
  224MOL    H3718323   4.984   4.122   7.756 -0.3614 -0.7121 -1.7108
  224MOL    C3818324   5.043   4.197   7.547 -0.3339  0.1870 -1.0740
  224MOL    O3918325   5.095   4.269   7.431  0.0810 -0.0549 -0.1465
  224MOL    H4018326   4.938   4.219   7.566 -0.3824 -0.7826 -0.1851
  224MOL    H4118327   5.022   4.095   7.514 -2.7259  0.0974  0.6218
  224MOL    C4218328   5.066   4.405   7.433 -0.8787 -0.0453 -0.1064
  224MOL    O4318329   5.118   4.479   7.327 -0.1950 -0.0145 -0.3453
  224MOL    H4418330   5.100   4.446   7.528 -2.2732 -0.9104  0.7699
  224MOL    H4518331   4.958   4.411   7.436 -0.9556 -1.8823  1.4442
  224MOL    C4618332   5.257   4.483   7.325  0.1340  0.3148  0.0923
  224MOL    O4718333   5.313   4.565   7.422 -0.0479  0.1309  0.7943
  224MOL    H4818334   5.302   4.495   7.227 -0.6487  0.3589 -0.2664
  224MOL    H4918335   5.289   4.381   7.347  1.9864  0.9027  0.2451
  224MOL    C5018336   5.374   4.678   7.368 -0.4757  0.0808 -0.2001
  224MOL    O5118337   5.485   4.644   7.287  0.7191  0.0214  0.2908
  224MOL    H5218338   5.405   4.737   7.455  1.1232 -1.9235  0.6288
  224MOL    H5318339   5.301   4.734   7.310  1.9051  1.9571 -1.4978
  224MOL    C5418340   5.587   4.578   7.354 -0.8741  0.1790  0.2666
  224MOL    O5518341   5.684   4.525   7.274 -0.0893 -0.2207  0.4461
  224MOL    H5618342   5.538   4.491   7.398  0.7725  0.5212  2.9028
  224MOL    H5718343   5.625   4.644   7.432  0.0845 -0.5628  0.4376
  224MOL    C5818344   5.770   4.619   7.218 -0.3039  0.6691 -0.0555
  224MOL    O5918345   5.839   4.691   7.319  0.2066 -0.1778 -0.0401
  224MOL    H6018346   5.722   4.699   7.162  0.1716  0.9844 -0.0246
  224MOL    H6118347   5.843   4.584   7.144 -0.9451  1.9046 -1.2992
  224MOL    C6218348   5.915   4.609   7.396 -0.1477 -0.3735 -0.2959
  224MOL    O6318349   6.040   4.673   7.431 -0.6216 -0.4747 -0.4606
  224MOL    H6418350   5.936   4.509   7.359  0.6346  0.0842 -1.1138
  224MOL    H6518351   5.877   4.584   7.495 -0.4685  2.1354  0.2492
  224MOL    C6618352   6.155   4.634   7.363 -0.5264 -0.3398  0.4149
  224MOL    O6718353   6.195   4.503   7.383  0.3402  0.7640  0.1203
  224MOL    H6818354   6.239   4.700   7.386 -1.5265  1.2573 -0.4141
  224MOL    H6918355   6.141   4.653   7.257 -3.3590 -0.7065  0.6922
  224MOL    C7018356   6.254   4.473   7.505 -0.3963  0.5059  0.8642
  224MOL    O7118357   6.382   4.526   7.508  0.3101 -0.0927 -0.6654
  224MOL    H7218358   6.264   4.364   7.510 -0.3365  0.3394 -2.0939
  224MOL    H7318359   6.190   4.499   7.589  1.1758  0.7093  2.0407
  224MOL    C7418360   6.469   4.458   7.416  0.5275 -0.5496  0.5691
  224MOL    O7518361   6.516   4.333   7.464  0.0409  0.1406 -0.0228
  224MOL    H7618362   6.545   4.522   7.373 -0.7922  0.8473  0.2741
  224MOL    H7718363   6.424   4.442   7.318 -1.0714  1.8010  0.8934
  224MOL    C7818364   6.632   4.338   7.534 -0.5984  0.1899  0.5827
  224MOL    O7918365   6.675   4.209   7.570  0.4362 -0.0140 -0.1385
  224MOL    H8018366   6.625   4.407   7.618  2.1877  1.2296  0.0330
  224MOL    H8118367   6.706   4.377   7.463  0.1480 -1.8454  0.2143
  224MOL    H8218368   6.625   4.171   7.640  0.1390 -0.4640 -0.5908
  225MOL     C118369   1.413   0.441   2.023  0.5279  0.6496  0.1607
  225MOL     O218370   1.399   0.300   1.987  0.6413  0.0809 -0.2397
  225MOL     H318371   1.456   0.452   2.122  1.1845 -2.0098  0.1961
  225MOL     H418372   1.487   0.487   1.958 -0.9654  1.2785 -1.1459
  225MOL     H518373   1.322   0.502   2.017  0.6330  1.0280  2.0157
  225MOL     C618374   1.401   0.284   1.847  0.1765  0.4008  0.3197
  225MOL     O718375   1.287   0.354   1.784 -0.3429  0.4020 -0.0504
  225MOL     H818376   1.399   0.175   1.837  0.4792  0.1207  2.9098
  225MOL     H918377   1.486   0.320   1.790  0.7185 -1.7412 -0.2673
  225MOL    C1018378   1.164   0.278   1.775  0.1530 -0.3673 -0.2207
  225MOL    O1118379   1.173   0.174   1.682 -0.3548 -0.5384 -0.1808
  225MOL    H1218380   1.084   0.349   1.752  1.9370  1.5690 -0.6638
  225MOL    H1318381   1.131   0.221   1.861  0.0284  0.6165  0.3986
  225MOL    C1418382   1.158   0.232   1.552 -0.2597  0.0657  0.3183
  225MOL    O1518383   1.134   0.144   1.448 -0.0667 -0.2848  0.1031
  225MOL    H1618384   1.245   0.290   1.522 -0.0026 -0.3228  0.3056
  225MOL    H1718385   1.079   0.307   1.542 -0.9729 -0.7731 -0.4037
  225MOL    C1818386   1.014   0.078   1.464 -0.0462 -0.1640  0.5986
  225MOL    O1918387   0.901   0.158   1.474 -0.2216  0.5866  0.2654
  225MOL    H2018388   1.022   0.022   1.557  3.8478 -2.0258 -0.7443
  225MOL    H2118389   1.004   0.003   1.385  0.3396 -1.2058  1.5199
  225MOL    C2218390   0.859   0.212   1.349  0.3044  0.1169  0.7318
  225MOL    O2318391   0.742   0.279   1.359  0.0733 -0.8191  0.1071
  225MOL    H2418392   0.847   0.128   1.281  2.0521  0.3275  0.1367
  225MOL    H2518393   0.939   0.276   1.313  0.1654  0.7156  1.4749
  225MOL    C2618394   0.764   0.407   1.394  0.1900  0.3947  0.6470
  225MOL    O2718395   0.781   0.489   1.277 -0.4441 -0.2195  0.1273
  225MOL    H2818396   0.848   0.408   1.463  0.6438  0.9085  0.0876
  225MOL    H2918397   0.678   0.451   1.445 -0.2606  1.6734 -1.1789
  225MOL    C3018398   0.668   0.518   1.210  0.5671  0.1256  0.2486
  225MOL    O3118399   0.700   0.582   1.094  1.2384 -0.1600  0.6040
  225MOL    H3218400   0.605   0.584   1.269  0.7139 -0.8125  1.4788
  225MOL    H3318401   0.624   0.421   1.183  1.4858  0.6149 -3.2604
  225MOL    C3418402   0.589   0.609   1.016  0.1244 -0.4306 -0.5520
  225MOL    O3518403   0.630   0.675   0.899 -0.4204 -0.6137  0.4696
  225MOL    H3618404   0.508   0.653   1.074 -0.2358 -1.8731  0.0649
  225MOL    H3718405   0.550   0.511   0.992 -1.5365  0.4171 -1.3440
  225MOL    C3818406   0.639   0.813   0.921  0.3847  0.4694 -0.6746
  225MOL    O3918407   0.520   0.888   0.903 -0.1598  0.3325  0.0716
  225MOL    H4018408   0.715   0.860   0.860 -0.6568 -0.5962 -2.8318
  225MOL    H4118409   0.664   0.831   1.026  0.4770 -1.6069 -0.3332
  225MOL    C4218410   0.482   0.889   0.768 -0.0090 -0.6109 -0.4962
  225MOL    O4318411   0.404   0.996   0.731 -0.4840  0.1154 -0.1343
  225MOL    H4418412   0.448   0.789   0.740 -0.4391 -1.1430  1.8633
  225MOL    H4518413   0.570   0.900   0.705  0.8902 -3.0952  0.2703
  225MOL    C4618414   0.273   0.995   0.785  0.7358 -0.0489 -0.3323
  225MOL    O4718415   0.188   0.909   0.718 -0.6006  0.1814  0.2390
  225MOL    H4818416   0.229   1.094   0.789 -1.6007 -1.0578  0.0879
  225MOL    H4918417   0.273   0.957   0.888  0.1239 -2.8346 -1.2991
  225MOL    C5018418   0.098   0.973   0.636  0.3029 -0.7862 -0.0491
  225MOL    O5118419   0.047   0.886   0.543 -0.2913  0.2819  0.2164
  225MOL    H5218420   0.123   1.066   0.584 -0.8129 -0.1979  0.4460
  225MOL    H5318421   0.017   1.007   0.699  0.3023  1.4056 -1.1811
  225MOL    C5418422   0.123   0.873   0.422  0.4856 -0.3157 -0.2732
  225MOL    O5518423   0.028   0.822   0.328 -0.1944  0.3470 -0.7639
  225MOL    H5618424   0.194   0.797   0.453  2.1880  1.4354  0.1662
  225MOL    H5718425   0.171   0.966   0.391  1.2870 -0.1341  1.4744
  225MOL    C5818426   7.738   0.915   0.257  0.3053 -0.2855  0.2265
  225MOL    O5918427   0.033   0.994   0.170 -0.6523  0.6963  0.7431
  225MOL    H6018428   7.669   0.976   0.317  0.1130 -1.1085  0.8451
  225MOL    H6118429   7.667   0.860   0.196 -0.6713  0.1681  0.9132
  225MOL    C6218430   0.094   0.920   0.074  0.3922  0.0085 -0.6572
  225MOL    O6318431   0.004   0.869   7.764  0.1705 -0.2408  0.4351
  225MOL    H6418432   0.161   0.843   0.113  0.7512  0.6367 -0.0448
  225MOL    H6518433   0.151   0.996   0.020  0.7506 -0.6688 -1.2475
  225MOL    C6618434   0.056   0.834   7.643 -0.4277  0.0018 -0.4470
  225MOL    O6718435   0.120   0.936   7.579 -0.2259  0.0859  0.2324
  225MOL    H6818436   7.749   0.806   7.591  1.0723 -4.1087 -1.0488
  225MOL    H6918437   0.118   0.745   7.650  1.0394  1.1695  2.3941
  225MOL    C7018438   0.038   1.035   7.521  0.1855 -0.9769  0.2695
  225MOL    O7118439   7.770   0.989   7.402  0.0023  0.2298  0.3833
  225MOL    H7218440   0.102   1.122   7.503  1.1328 -1.8207 -0.4718
  225MOL    H7318441   7.733   1.060   7.579  2.4431  0.9609  3.1000
  225MOL    C7418442   0.055   1.024   7.289 -0.2971 -0.6823 -0.1357
  225MOL    O7518443   0.048   1.157   7.252  0.1648  0.2064  0.4350
  225MOL    H7618444   0.018   0.965   7.205  0.0974 -1.7301  0.4232
  225MOL    H7718445   0.159   1.005   7.314 -0.1771  0.1567  0.0202
  225MOL    C7818446   7.704   1.192   7.205 -0.1783  0.1011  0.3531
  225MOL    O7918447   7.696   1.326   7.162 -0.2937  0.7065  0.3048
  225MOL    H8018448   7.627   1.173   7.280 -0.9456 -0.5078 -0.5761
  225MOL    H8118449   7.673   1.126   7.124  1.7877  0.3419 -0.6459
  225MOL    H8218450   7.717   1.380   7.237 -0.3715  0.7815  0.2729
  226MOL     C118451   6.648   5.318   4.730  0.0449  0.3287 -0.2067
  226MOL     O218452   6.522   5.322   4.667 -0.2962  0.2139 -0.1995
  226MOL     H318453   6.710   5.233   4.703  1.3637  0.9109  0.9205
  226MOL     H418454   6.706   5.406   4.700  0.9363 -0.0883  0.2798
  226MOL     H518455   6.641   5.316   4.839 -0.7408 -2.5091 -0.2686
  226MOL     C618456   6.538   5.308   4.529 -0.4730 -0.1035  0.3106
  226MOL     O718457   6.584   5.185   4.489 -0.5725 -0.4755  0.4535
  226MOL     H818458   6.612   5.377   4.488 -0.7170 -0.0124  0.0219
  226MOL     H918459   6.451   5.336   4.469 -0.5052  0.7988  0.7735
  226MOL    C1018460   6.494   5.083   4.522 -0.4555  0.2410  0.1336
  226MOL    O1118461   6.531   4.960   4.466 -0.3056 -0.6689  0.4975
  226MOL    H1218462   6.394   5.101   4.483  0.5522 -1.2013 -3.2921
  226MOL    H1318463   6.485   5.080   4.630  1.7852  1.3687  0.3818
  226MOL    C1418464   6.651   4.921   4.512  0.0782 -0.6403  0.2417
  226MOL    O1518465   6.666   4.933   4.651 -0.5630  0.0903  0.9044
  226MOL    H1618466   6.732   4.971   4.459 -1.5560 -0.3630 -2.0630
  226MOL    H1718467   6.659   4.817   4.482 -2.4496 -0.9094  0.3626
  226MOL    C1818468   6.585   4.844   4.721  0.4548  0.3882 -0.4193
  226MOL    O1918469   6.626   4.838   4.853 -0.3540 -0.0279  0.1199
  226MOL    H2018470   6.587   4.743   4.679  0.5474  0.0804  0.3231
  226MOL    H2118471   6.480   4.870   4.715  0.7730  2.4946  2.2660
  226MOL    C2218472   6.602   4.961   4.918 -0.0903 -0.5179 -0.0315
  226MOL    O2318473   6.613   4.949   5.054  0.3335  0.0411 -0.1915
  226MOL    H2418474   6.507   5.004   4.886  0.3164 -0.4768 -1.2207
  226MOL    H2518475   6.671   5.036   4.878 -0.4714  0.1165  0.4958
  226MOL    C2618476   6.495   4.906   5.117  0.2818 -0.3135 -0.1321
  226MOL    O2718477   6.414   5.021   5.150  0.6116 -0.8373  0.2162
  226MOL    H2818478   6.506   4.847   5.208 -0.8086 -1.1843 -0.5496
  226MOL    H2918479   6.422   4.850   5.058 -0.3540  1.4332 -1.0753
  226MOL    C3018480   6.458   5.082   5.272  0.8250 -0.1254  0.1377
  226MOL    O3118481   6.436   5.001   5.387  0.2843  0.5012  0.5811
  226MOL    H3218482   6.410   5.179   5.287  1.9001  0.5129 -0.4878
  226MOL    H3318483   6.560   5.117   5.253  1.6818 -2.1691  0.7353
  226MOL    C3418484   6.298   4.967   5.414  0.9530 -0.2519 -0.1188
  226MOL    O3518485   6.265   4.985   5.542  0.4302 -0.4362 -0.0036
  226MOL    H3618486   6.290   4.860   5.392 -0.4718  0.0613 -1.2201
  226MOL    H3718487   6.226   5.016   5.349  1.3926 -0.4072 -0.7240
  226MOL    C3818488   6.255   5.122   5.574 -0.3126  0.0570 -0.0928
  226MOL    O3918489   6.198   5.148   5.702  0.0826 -0.4515 -0.0985
  226MOL    H4018490   6.184   5.168   5.505  0.8251  2.2892  0.1621
  226MOL    H4118491   6.351   5.171   5.557 -0.2524 -0.0388 -0.0199
  226MOL    C4218492   6.284   5.115   5.801  0.0874  0.0439  0.0184
  226MOL    O4318493   6.395   5.194   5.813  0.4115  0.0376  0.2520
  226MOL    H4418494   6.304   5.009   5.791 -0.4068  0.0706 -1.3448
  226MOL    H4518495   6.227   5.120   5.894  1.0696 -1.3178  0.7025
  226MOL    C4618496   6.364   5.312   5.876 -0.0474  0.1439  0.1315
  226MOL    O4718497   6.338   5.291   6.013  0.1457 -0.3659  0.7682
  226MOL    H4818498   6.284   5.361   5.819 -0.2542 -0.6387 -0.2520
  226MOL    H4918499   6.447   5.382   5.874  0.6363 -0.6024  1.9191
  226MOL    C5018500   6.447   5.248   6.087  0.4171  0.8619 -0.2992
  226MOL    O5118501   6.536   5.349   6.119 -0.0471  0.4762 -0.2161
  226MOL    H5218502   6.512   5.175   6.038 -2.9970 -1.5158 -1.3903
  226MOL    H5318503   6.426   5.209   6.187  0.6828  1.2650 -0.0809
  226MOL    C5418504   6.501   5.425   6.227 -0.3912 -0.2012  0.2683
  226MOL    O5518505   6.525   5.361   6.348 -0.2991  0.2563  0.1563
  226MOL    H5618506   6.399   5.459   6.212  0.1375  1.6174  0.6192
  226MOL    H5718507   6.558   5.519   6.228 -2.5053  1.1314 -0.9863
  226MOL    C5818508   6.664   5.357   6.378 -0.6754 -0.6074 -0.7746
  226MOL    O5918509   6.684   5.313   6.510  0.2337  0.2405 -0.4941
  226MOL    H6018510   6.727   5.444   6.359 -1.5683  0.4662  0.9803
  226MOL    H6118511   6.703   5.284   6.308 -1.0412 -0.0457 -1.5649
  226MOL    C6218512   6.814   5.286   6.543  0.4096 -0.3281  0.2312
  226MOL    O6318513   6.887   5.411   6.554 -0.1140 -0.2016 -0.3472
  226MOL    H6418514   6.859   5.222   6.468  0.0772 -0.1989 -0.0846
  226MOL    H6518515   6.822   5.227   6.634  0.1472 -0.1530  0.3686
  226MOL    C6618516   6.842   5.490   6.661 -0.2609  0.4532 -0.0605
  226MOL    O6718517   6.897   5.431   6.779  0.1456  0.2414 -0.4808
  226MOL    H6818518   6.734   5.496   6.672 -0.1924  1.7319 -0.0750
  226MOL    H6918519   6.885   5.590   6.659 -1.0170  0.7735 -0.2613
  226MOL    C7018520   6.862   5.501   6.887 -0.3418 -0.2025 -0.2925
  226MOL    O7118521   6.725   5.477   6.927  0.1462 -0.0628 -0.3199
  226MOL    H7218522   6.871   5.606   6.858 -1.1506 -0.0913 -0.1398
  226MOL    H7318523   6.936   5.481   6.964 -0.3853 -1.8698 -0.6760
  226MOL    C7418524   6.721   5.353   6.995 -0.0017  0.4605  0.6855
  226MOL    O7518525   6.779   5.362   7.124  0.4782  0.3408  0.2638
  226MOL    H7618526   6.779   5.280   6.939 -0.1031  0.8781  0.0339
  226MOL    H7718527   6.619   5.318   7.010  1.3143 -3.8123  0.2896
  226MOL    C7818528   6.727   5.466   7.200 -0.2917  0.1698  0.4165
  226MOL    O7918529   6.810   5.477   7.314  0.1292  0.7451 -0.3613
  226MOL    H8018530   6.628   5.441   7.237  0.1931 -1.7179  0.4523
  226MOL    H8118531   6.725   5.560   7.145  0.0165  0.5508  1.0432
  226MOL    H8218532   6.766   5.439   7.389  2.9863  1.0553  1.5374
  227MOL     C118533   5.756   5.592   6.995  0.0154 -0.5496 -0.6317
  227MOL     O218534   5.840   5.475   6.990 -0.8464 -0.9631 -1.0150
  227MOL     H318535   5.657   5.573   7.037  0.3490  0.3852  0.6147
  227MOL     H418536   5.792   5.672   7.061 -0.6389 -2.6912  2.4340
  227MOL     H518537   5.765   5.641   6.898 -1.2916 -0.3100 -0.6523
  227MOL     C618538   5.781   5.376   6.920 -0.4591 -0.0053  0.0992
  227MOL     O718539   5.650   5.334   6.969  0.0904 -0.0708  0.2685
  227MOL     H818540   5.847   5.290   6.930 -0.5670 -0.3571 -1.9711
  227MOL     H918541   5.767   5.402   6.815 -0.4205  0.3911  0.1924
  227MOL    C1018542   5.661   5.284   7.094  0.1989  0.0629  0.0048
  227MOL    O1118543   5.531   5.282   7.153 -0.2526 -0.1795  0.3648
  227MOL    H1218544   5.729   5.352   7.145  0.7832 -0.6557  0.1909
  227MOL    H1318545   5.702   5.183   7.092  0.0911  0.0340 -1.3745
  227MOL    C1418546   5.465   5.404   7.165 -0.0397  0.2860  0.0401
  227MOL    O1518547   5.523   5.492   7.255  0.6361  0.1092  0.6049
  227MOL    H1618548   5.366   5.376   7.201  0.8733 -3.2002  0.0255
  227MOL    H1718549   5.469   5.442   7.062  0.2410 -1.0853 -0.4656
  227MOL    C1818550   5.526   5.444   7.388  1.1819 -0.4702 -0.3061
  227MOL    O1918551   5.412   5.467   7.456 -0.8217 -0.5062  0.0473
  227MOL    H2018552   5.616   5.490   7.430  1.6014 -2.2841  0.8327
  227MOL    H2118553   5.556   5.339   7.392 -2.8756 -1.6872  0.6009
  227MOL    C2218554   5.380   5.608   7.462 -0.0035  0.6394  0.0575
  227MOL    O2318555   5.465   5.669   7.555  0.0949  0.0353  0.1069
  227MOL    H2418556   5.274   5.611   7.484 -0.1479  0.0613 -0.5171
  227MOL    H2518557   5.393   5.650   7.362  0.1238  1.0766  0.2579
  227MOL    C2618558   5.393   5.701   7.674 -0.4731  0.5273 -0.8488
  227MOL    O2718559   5.303   5.800   7.652 -0.5332 -0.1892  0.1601
  227MOL    H2818560   5.458   5.723   7.759  0.1152 -2.1639 -0.5615
  227MOL    H2918561   5.351   5.607   7.709 -1.9639  1.3911 -0.2846
  227MOL    C3018562   5.363   5.929   7.630  0.8108  0.3571  0.4592
  227MOL    O3118563   5.425   5.978   7.748  0.2655  0.5190 -0.2921
  227MOL    H3218564   5.283   5.995   7.596 -0.7003 -2.2615 -1.1860
  227MOL    H3318565   5.433   5.920   7.548  1.3155 -2.3753  1.1545
  227MOL    C3418566   5.342   5.989   0.066  0.2487 -0.1432  0.0704
  227MOL    O3518567   5.258   6.098   0.065  0.1020 -0.0678  0.6239
  227MOL    H3618568   5.410   6.008   0.149  0.9488  2.8522 -1.1180
  227MOL    H3718569   5.279   5.901   0.079 -2.5698  1.7995  0.1570
  227MOL    C3818570   5.266   6.174   0.181 -0.5176 -0.0094 -0.3778
  227MOL    O3918571   5.194   6.108   0.277  0.2168 -0.5569 -0.3141
  227MOL    H4018572   5.216   6.267   0.155  0.6962  1.2109  1.5004
  227MOL    H4118573   5.367   6.202   0.212  0.1294 -2.1935 -0.4600
  227MOL    C4218574   5.078   6.174   0.311 -0.7462  0.4161 -0.1548
  227MOL    O4318575   5.111   6.289   0.388  0.0558  0.2306 -0.2174
  227MOL    H4418576   5.020   6.106   0.374  1.3907 -1.8072 -0.4989
  227MOL    H4518577   5.012   6.205   0.230  0.0096  1.2935 -0.4385
  227MOL    C4618578   4.996   6.366   0.426 -0.5987 -0.3073 -0.5206
  227MOL    O4718579   4.912   6.289   0.509 -0.1643  0.4519 -1.2783
  227MOL    H4818580   4.942   6.392   0.335  1.8049 -0.9422 -2.1969
  227MOL    H4918581   5.020   6.461   0.473  0.8057 -0.6845 -0.4646
  227MOL    C5018582   4.957   6.292   0.640  0.5700  0.2752  0.0582
  227MOL    O5118583   4.942   6.406   0.709 -0.3328 -0.0277 -0.0922
  227MOL    H5218584   5.064   6.269   0.650  0.5014  0.5467  1.5341
  227MOL    H5318585   4.913   6.210   0.696  0.7262 -0.4870 -0.9047
  227MOL    C5418586   4.813   6.441   0.746  0.3664 -0.8083 -0.8972
  227MOL    O5518587   4.809   6.572   0.793 -0.3586  0.2465 -0.1127
  227MOL    H5618588   4.771   6.366   0.813  0.7973 -0.5267 -0.3047
  227MOL    H5718589   4.754   6.429   0.655 -1.7012 -0.1091  0.3210
  227MOL    C5818590   4.678   6.623   0.792  0.6971 -0.3278 -0.3174
  227MOL    O5918591   4.604   6.553   0.896  0.5185  0.0247  0.0313
  227MOL    H6018592   4.629   6.606   0.696 -0.4083  1.4684 -0.0863
  227MOL    H6118593   4.685   6.730   0.812  1.1518 -0.7040  1.6173
  227MOL    C6218594   4.627   6.587   1.025 -0.3171 -0.0319  0.2350
  227MOL    O6318595   4.593   6.726   1.049 -0.8406 -0.9007 -0.2208
  227MOL    H6418596   4.734   6.576   1.042 -0.6276 -1.2890  1.4642
  227MOL    H6518597   4.570   6.523   1.093 -0.9786  0.6687  0.3443
  227MOL    C6618598   4.461   6.746   1.015 -0.0484 -0.3144  0.6007
  227MOL    O6718599   4.443   6.880   1.020 -0.5606 -0.0633  0.0097
  227MOL    H6818600   4.395   6.691   1.082 -0.9053  1.7143  1.4606
  227MOL    H6918601   4.434   6.711   0.916 -1.3579  0.8267  0.5432
  227MOL    C7018602   4.515   6.928   0.910  0.2394 -0.2590 -0.2592
  227MOL    O7118603   4.468   6.886   0.784  0.3343  0.0072  0.2332
  227MOL    H7218604   4.623   6.913   0.919  0.1844 -0.2004  0.5915
  227MOL    H7318605   4.504   7.036   0.915 -2.7515 -0.5443  0.0251
  227MOL    C7418606   4.513   6.975   0.686  0.5479 -0.5934 -0.1882
  227MOL    O7518607   4.454   7.102   0.687 -0.1525  0.1123  0.1442
  227MOL    H7618608   4.514   6.928   0.587 -0.3345 -1.3201  0.1401
  227MOL    H7718609   4.620   6.993   0.697  0.0689  2.1193  0.5446
  227MOL    C7818610   4.319   7.090   0.644 -0.4157 -0.0565 -0.6654
  227MOL    O7918611   4.252   7.215   0.634  0.6553  0.3360  0.3748
  227MOL    H8018612   4.262   7.026   0.711  1.7155 -1.5004 -0.1836
  227MOL    H8118613   4.307   7.037   0.549 -0.3196 -1.3094  0.0177
  227MOL    H8218614   4.276   7.270   0.707 -0.3590 -0.0050  0.9783
  228MOL     C118615   4.908   5.704   5.070 -0.1168 -0.6316 -0.7072
  228MOL     O218616   4.954   5.706   5.204  0.1078 -0.0420  0.4418
  228MOL     H318617   4.924   5.613   5.012 -0.6168 -0.9026 -0.4209
  228MOL     H418618   4.801   5.724   5.072  0.1561  0.8287 -0.5467
  228MOL     H518619   4.971   5.774   5.016 -1.7228  1.4732  0.0926
  228MOL     C618620   4.938   5.591   5.277  0.2261  0.0807  0.4485
  228MOL     O718621   4.824   5.612   5.358 -0.4127 -0.1603 -0.2570
  228MOL     H818622   5.021   5.583   5.347 -1.2950 -1.5919  2.1278
  228MOL     H918623   4.930   5.499   5.219  1.4264 -0.6919  1.4666
  228MOL    C1018624   4.700   5.553   5.316  0.5838 -0.5954 -0.6949
  228MOL    O1118625   4.719   5.424   5.343  0.1464  0.5664  0.1764
  228MOL    H1218626   4.692   5.568   5.208  2.2466 -2.0045 -1.0494
  228MOL    H1318627   4.618   5.600   5.370  1.6139  1.3595 -0.7926
  228MOL    C1418628   4.671   5.380   5.469 -0.2165 -0.0835  0.1106
  228MOL    O1518629   4.531   5.387   5.478 -0.2030 -0.4518  0.3791
  228MOL    H1618630   4.715   5.446   5.544  2.3330 -1.3885 -0.1663
  228MOL    H1718631   4.697   5.276   5.490  0.7036  0.3953  1.4561
  228MOL    C1818632   4.476   5.373   5.608 -0.3991  0.4487 -0.6542
  228MOL    O1918633   4.503   5.256   5.679 -0.7004  0.5543 -0.5327
  228MOL    H2018634   4.368   5.382   5.605 -0.7769 -2.8901  0.6963
  228MOL    H2118635   4.506   5.455   5.674 -0.7201  1.1307 -1.3489
  228MOL    C2218636   4.424   5.150   5.630  0.5150 -0.1853 -0.2140
  228MOL    O2318637   4.286   5.166   5.654 -0.6422  0.3893  0.3406
  228MOL    H2418638   4.465   5.061   5.679 -0.1056 -0.2340  0.2229
  228MOL    H2518639   4.463   5.146   5.529  0.2580 -1.3280 -0.2772
  228MOL    C2618640   4.264   5.149   5.788  0.1054 -1.2622 -0.2228
  228MOL    O2718641   4.225   5.019   5.808  0.2501  0.2374  0.1430
  228MOL    H2818642   4.178   5.215   5.804  3.2612  3.1822 -0.6726
  228MOL    H2918643   4.338   5.186   5.858 -1.0492 -0.8130  0.7835
  228MOL    C3018644   4.133   5.001   5.919  0.9243 -0.6279 -0.1592
  228MOL    O3118645   4.008   5.049   5.894  0.1566  0.1707 -0.3352
  228MOL    H3218646   4.166   5.049   6.011  1.2872  0.8180 -1.0349
  228MOL    H3318647   4.132   4.895   5.947  1.6649 -1.6760 -3.8493
  228MOL    C3418648   3.944   4.999   5.789 -0.0224  0.2029 -0.2806
  228MOL    O3518649   3.902   4.867   5.809  0.5280 -0.1101 -0.6762
  228MOL    H3618650   4.009   5.003   5.701  1.0488 -1.8826  0.3863
  228MOL    H3718651   3.859   5.064   5.770  1.0511  1.2802 -1.4854
  228MOL    C3818652   3.782   4.861   5.885 -0.3546  0.5028  0.6716
  228MOL    O3918653   3.680   4.898   5.806  0.3387  0.0450 -0.4174
  228MOL    H4018654   3.778   4.923   5.974 -2.2145  0.6949  0.4589
  228MOL    H4118655   3.782   4.758   5.922  0.4623 -0.5138 -2.0277
  228MOL    C4218656   3.631   4.793   5.734  0.0771 -0.2965  0.2284
  228MOL    O4318657   3.535   4.724   5.806 -0.2422 -0.4450 -0.1472
  228MOL    H4418658   3.702   4.716   5.703 -0.7248 -0.7329 -0.5563
  228MOL    H4518659   3.573   4.837   5.653  0.1925 -0.6281 -0.0340
  228MOL    C4618660   3.422   4.807   5.846 -0.5063  0.8384  0.9155
  228MOL    O4718661   3.313   4.783   5.759  0.1987 -0.2206  0.1302
  228MOL    H4818662   3.439   4.914   5.851  1.6935  0.5435  0.2230
  228MOL    H4918663   3.410   4.772   5.948 -0.9727  1.5350  1.0992
  228MOL    C5018664   3.228   4.686   5.805 -0.6340 -0.4617  0.1810
  228MOL    O5118665   3.143   4.738   5.906  0.0915  0.0066  0.9853
  228MOL    H5218666   3.289   4.606   5.848 -0.1113  0.1916  0.6613
  228MOL    H5318667   3.175   4.643   5.720 -0.0364  1.1648 -1.0304
  228MOL    C5418668   3.050   4.824   5.845  0.3383  1.0874 -0.2733
  228MOL    O5518669   2.939   4.757   5.811 -0.0827 -0.0151 -0.9320
  228MOL    H5618670   3.098   4.876   5.762  0.4731  2.4141  0.6273
  228MOL    H5718671   3.035   4.903   5.919 -0.8456  0.7696 -0.1605
  228MOL    C5818672   2.856   4.741   5.924  0.2212 -0.3612  0.2410
  228MOL    O5918673   2.734   4.679   5.896 -0.5042 -0.2994  0.7467
  228MOL    H6018674   2.837   4.843   5.955  0.5053  0.3354 -1.8103
  228MOL    H6118675   2.914   4.687   5.999 -1.4933 -1.1875  1.0118
  228MOL    C6218676   2.649   4.765   5.831 -0.2160 -0.5297 -0.1294
  228MOL    O6318677   2.597   4.870   5.905  0.7311 -0.3980 -0.4380
  228MOL    H6418678   2.565   4.707   5.793 -1.7007  1.6260 -0.2408
  228MOL    H6518679   2.704   4.804   5.745  0.5018 -3.5632 -1.1124
  228MOL    C6618680   2.517   4.821   6.013 -0.1638 -0.1737  0.0879
  228MOL    O6718681   2.397   4.763   5.971  0.9877  0.2753 -0.0301
  228MOL    H6818682   2.491   4.904   6.078 -0.7422 -0.2175 -0.0825
  228MOL    H6918683   2.571   4.758   6.084  0.1163  1.0698  0.9922
  228MOL    C7018684   2.324   4.705   6.075  0.1989 -0.1039  0.4721
  228MOL    O7118685   2.280   4.788   6.174 -0.3454  0.0610 -0.2367
  228MOL    H7218686   2.380   4.627   6.127  1.5061  0.6755  0.2518
  228MOL    H7318687   2.242   4.654   6.023 -0.1004  0.0001  0.8357
  228MOL    C7418688   2.184   4.875   6.136  0.1428 -0.0730  0.2492
  228MOL    O7518689   2.051   4.833   6.169  0.5407 -0.1698 -0.1124
  228MOL    H7618690   2.194   4.896   6.030 -0.4553  0.3092  0.2650
  228MOL    H7718691   2.190   4.973   6.185 -0.5384 -0.3564  0.8991
  228MOL    C7818692   2.035   4.812   6.306 -0.1101 -0.3796  0.4170
  228MOL    O7918693   1.902   4.798   6.352  0.5311 -0.0363  0.0576
  228MOL    H8018694   2.076   4.904   6.350 -1.6581  1.4792 -1.9184
  228MOL    H8118695   2.097   4.730   6.341 -2.0962 -1.4365  1.5271
  228MOL    H8218696   1.889   4.705   6.363  3.4524 -0.5927 -0.6940
  229MOL     C118697   0.319   2.846   0.594 -0.2666  0.6368 -0.3328
  229MOL     O218698   0.429   2.823   0.504 -0.3801 -0.1062 -0.4511
  229MOL     H318699   0.231   2.788   0.565 -0.6370  2.5097 -3.1981
  229MOL     H418700   0.344   2.819   0.697  1.6558 -3.4254 -1.7341
  229MOL     H518701   0.289   2.951   0.590 -0.7292  0.6810  2.8434
  229MOL     C618702   0.390   2.854   0.372  1.0818 -0.5814  0.6561
  229MOL     O718703   0.387   2.995   0.356  0.4644 -0.2449  0.0682
  229MOL     H818704   0.293   2.808   0.353 -0.6904  3.2560 -0.0800
  229MOL     H918705   0.447   2.809   0.291  0.0635 -2.8560  1.1896
  229MOL    C1018706   0.331   3.035   0.229 -0.3685  0.8417  0.6309
  229MOL    O1118707   0.196   3.062   0.246 -0.7315  0.1442 -0.1480
  229MOL    H1218708   0.336   2.950   0.161  0.8439 -0.5035  2.3331
  229MOL    H1318709   0.371   3.130   0.193  1.3037  0.5023  1.5189
  229MOL    C1418710   0.174   3.195   0.292  0.1677  0.0857  0.0405
  229MOL    O1518711   0.117   3.269   0.194 -0.3678  0.3643 -0.0759
  229MOL    H1618712   0.256   3.241   0.348  1.2872 -0.7460 -0.8913
  229MOL    H1718713   0.096   3.177   0.366 -1.7166  0.8066 -1.7248
  229MOL    C1818714   0.210   3.357   0.133  0.4731 -0.5216 -0.4041
  229MOL    O1918715   0.247   3.463   0.220 -0.1863  0.0075  0.2107
  229MOL    H2018716   0.157   3.407   0.051 -1.6492 -0.1345  1.1540
  229MOL    H2118717   0.299   3.306   0.096  0.7578 -0.6940  0.5255
  229MOL    C2218718   0.142   3.552   0.236  0.3054 -0.0079 -0.2956
  229MOL    O2318719   0.147   3.648   0.136 -0.2825 -0.0744  0.2298
  229MOL    H2418720   0.161   3.600   0.331 -1.3342 -1.4688  0.8170
  229MOL    H2518721   0.041   3.510   0.238  0.5640 -0.5859  0.8249
  229MOL    C2618722   0.263   3.728   0.138  1.0502  0.5646  0.3300
  229MOL    O2718723   0.264   3.807   0.253  0.0254 -0.3753  0.0214
  229MOL    H2818724   0.249   3.791   0.050 -1.4893  1.0550  1.0408
  229MOL    H2918725   0.354   3.669   0.128 -0.6950 -1.9796 -1.1174
  229MOL    C3018726   0.348   3.920   0.234 -0.2169 -0.0707 -0.7306
  229MOL    O3118727   0.292   4.024   0.164 -0.0350  0.4133 -0.2351
  229MOL    H3218728   0.437   3.893   0.177  0.4102 -1.0808  0.6765
  229MOL    H3318729   0.369   3.956   0.335 -0.0822  0.9301 -1.1115
  229MOL    C3418730   0.190   4.092   0.230 -0.5345  0.3578 -0.4414
  229MOL    O3518731   0.080   4.013   0.245  0.1267 -0.0674 -0.6106
  229MOL    H3618732   0.160   4.165   0.154 -0.5891  0.3874 -0.3903
  229MOL    H3718733   0.232   4.140   0.318  1.9134  1.3010 -2.0567
  229MOL    C3818734   0.014   3.979   0.127 -0.3916 -0.6915 -0.3603
  229MOL    O3918735   7.668   3.968   0.166 -0.1845 -0.2784  0.7320
  229MOL    H4018736   0.043   3.890   0.072 -3.9991 -2.3732  0.3546
  229MOL    H4118737   0.002   4.059   0.054  0.8170 -0.6250 -0.5018
  229MOL    C4218738   7.636   3.841   0.222 -0.2905  0.2335  0.3884
  229MOL    O4318739   7.593   3.761   0.118  0.1326 -0.5351  0.0488
  229MOL    H4418740   7.562   3.841   0.302 -0.2851  2.1041  0.4215
  229MOL    H4518741   7.728   3.810   0.270 -0.1217 -1.0959 -0.7858
  229MOL    C4618742   7.466   3.793   0.075 -0.2787  0.4376  0.3810
  229MOL    O4718743   7.362   3.767   0.168 -0.6235 -0.6527 -0.9710
  229MOL    H4818744   7.450   3.730   7.771  0.9638  1.9802 -0.9716
  229MOL    H4918745   7.464   3.891   0.028  0.4729  0.3434  0.1418
  229MOL    C5018746   7.376   3.636   0.221 -0.1150 -0.4669  0.6415
  229MOL    O5118747   7.341   3.536   0.137  0.4774 -0.1532  0.1327
  229MOL    H5218748   7.306   3.634   0.305  0.3627  0.0207  1.0467
  229MOL    H5318749   7.474   3.619   0.266 -0.5950  1.4561  2.4852
  229MOL    C5418750   7.205   3.533   0.110  0.0113 -0.3273  0.4133
  229MOL    O5518751   7.138   3.459   0.212 -0.1986 -0.0994  0.7313
  229MOL    H5618752   7.198   3.480   0.015 -1.1043 -0.2326  0.4385
  229MOL    H5718753   7.167   3.632   0.086  0.9906  0.3232  1.5033
  229MOL    C5818754   7.173   3.323   0.225  0.2204  0.2912  0.1601
  229MOL    O5918755   7.123   3.242   0.119  0.1639  0.5340 -0.4622
  229MOL    H6018756   7.143   3.290   0.324 -0.6736  0.0882 -0.1742
  229MOL    H6118757   7.280   3.303   0.229  0.0838  0.0152  3.2473
  229MOL    C6218758   6.985   3.246   0.126  0.3938  0.0280 -0.2648
  229MOL    O6318759   6.933   3.165   0.233 -0.0449  0.5360  0.0243
  229MOL    H6418760   6.948   3.218   0.027  0.2754  0.1545 -0.2560
  229MOL    H6518761   6.945   3.347   0.138 -0.5439 -0.3015 -0.5779
  229MOL    C6618762   6.958   3.030   0.210 -0.2093  0.2756 -0.2799
  229MOL    O6718763   6.879   2.960   0.307 -0.2298 -0.1123  0.0950
  229MOL    H6818764   7.062   3.001   0.227  0.5760  1.3207 -3.1303
  229MOL    H6918765   6.935   3.005   0.107  1.0687 -0.1318 -0.4670
  229MOL    C7018766   6.749   2.951   0.275  0.1269  0.7352 -0.2041
  229MOL    O7118767   6.722   2.906   0.150 -0.5233 -0.3253 -0.9660
  229MOL    H7218768   6.692   3.042   0.289 -1.1103  0.1619 -1.4340
  229MOL    H7318769   6.709   2.882   0.350  1.8768  1.4235  1.3999
  229MOL    C7418770   6.716   2.773   0.131 -0.8620  0.4137 -0.5608
  229MOL    O7518771   6.622   2.700   0.199  0.0959  0.1418  0.2522
  229MOL    H7618772   6.816   2.745   0.164 -0.8091  0.1822 -0.9120
  229MOL    H7718773   6.708   2.743   0.026  0.2248 -1.2092 -0.1982
  229MOL    C7818774   6.493   2.726   0.140  0.3766 -0.2009 -0.1021
  229MOL    O7918775   6.389   2.655   0.187  0.1000  0.0210 -0.2483
  229MOL    H8018776   6.498   2.704   0.033  1.4701 -0.5809  0.0136
  229MOL    H8118777   6.479   2.831   0.165  0.9214 -0.1047 -0.1939
  229MOL    H8218778   6.392   2.564   0.160 -0.5923  1.1815 -4.6112
  230MOL     C118779   2.192   2.230   3.414  0.0930  0.5105 -0.4235
  230MOL     O218780   2.152   2.361   3.457  0.7724  0.3486  0.3455
  230MOL     H318781   2.281   2.241   3.352  0.9517 -1.6698  0.3856
  230MOL     H418782   2.215   2.155   3.490 -0.0961  0.9525  0.0658
  230MOL     H518783   2.126   2.180   3.342 -0.6419 -0.2680  0.7675
  230MOL     C618784   2.088   2.354   3.584  0.2754  0.6793 -0.1505
  230MOL     O718785   2.180   2.316   3.677 -0.6502 -0.3235 -0.3003
  230MOL     H818786   2.018   2.271   3.588  0.2367  0.8214  3.0618
  230MOL     H918787   2.041   2.450   3.606  2.7771  2.1654 -0.9973
  230MOL    C1018788   2.267   2.417   3.724 -0.8431  0.3430 -0.7155
  230MOL    O1118789   2.188   2.499   3.808  0.2217 -0.1583  0.1459
  230MOL    H1218790   2.288   2.475   3.635  0.2857  0.5481 -0.3192
  230MOL    H1318791   2.367   2.387   3.756 -0.6258 -0.2319 -1.8943
  230MOL    C1418792   2.180   2.456   3.938 -0.4945 -0.2900  0.3460
  230MOL    O1518793   2.310   2.475   3.995  0.1115 -0.4681  0.0058
  230MOL    H1618794   2.166   2.348   3.936  1.1404 -0.5794  2.5785
  230MOL    H1718795   2.099   2.503   3.992 -1.8277 -0.6430 -1.3004
  230MOL    C1818796   2.320   2.602   4.058 -0.2655  0.8555 -0.3323
  230MOL    O1918797   2.243   2.606   4.173  0.4887 -0.3533 -0.1062
  230MOL    H2018798   2.296   2.679   3.984 -0.1794  1.4984  0.3004
  230MOL    H2118799   2.427   2.614   4.074 -0.2732 -0.6860  0.9761
  230MOL    C2218800   2.284   2.517   4.271 -0.3356 -0.2762 -0.0743
  230MOL    O2318801   2.416   2.536   4.314  0.1550  0.2177 -0.2308
  230MOL    H2418802   2.294   2.419   4.226 -0.6117  0.6107 -2.1329
  230MOL    H2518803   2.202   2.514   4.343  0.1277  0.3551  0.4934
  230MOL    C2618804   2.450   2.453   4.414 -0.5110  0.2517  0.0706
  230MOL    O2718805   2.386   2.488   4.530  0.2632 -0.2710 -0.2431
  230MOL    H2818806   2.558   2.462   4.414 -0.4584 -0.3091 -2.2530
  230MOL    H2918807   2.430   2.349   4.390  0.6030 -0.1966  1.0293
  230MOL    C3018808   2.421   2.408   4.637 -0.4839 -0.5618  1.1324
  230MOL    O3118809   2.538   2.448   4.704 -0.2579 -0.2078  0.1250
  230MOL    H3218810   2.432   2.307   4.597 -3.5445 -0.8604  0.9181
  230MOL    H3318811   2.340   2.386   4.706 -1.1096 -2.8995 -0.2831
  230MOL    C3418812   2.522   2.566   4.779 -0.6133  0.1408 -0.6902
  230MOL    O3518813   2.457   2.552   4.901 -0.2473 -0.2730 -0.0476
  230MOL    H3618814   2.469   2.642   4.723 -1.0002  0.7807  0.5271
  230MOL    H3718815   2.625   2.602   4.787 -0.1663 -0.5543 -2.8955
  230MOL    C3818816   2.531   2.466   4.987 -0.6468  0.0547 -0.1251
  230MOL    O3918817   2.480   2.472   5.116  1.0561 -0.6107  0.0568
  230MOL    H4018818   2.637   2.490   4.986 -0.6185 -0.0909 -2.0510
  230MOL    H4118819   2.516   2.363   4.956 -3.0439  0.2260  0.4027
  230MOL    C4218820   2.491   2.597   5.175 -0.0664 -0.4913  0.3746
  230MOL    O4318821   2.623   2.597   5.232  0.0107  0.0883 -0.1867
  230MOL    H4418822   2.417   2.593   5.255 -0.4051  1.0131  0.1475
  230MOL    H4518823   2.477   2.678   5.104 -1.3053  0.5941  1.8269
  230MOL    C4618824   2.653   2.724   5.279  0.0914  0.0584  1.5562
  230MOL    O4718825   2.668   2.815   5.181 -0.3345  0.0879 -0.1281
  230MOL    H4818826   2.741   2.733   5.343 -0.7729  1.9904  2.5085
  230MOL    H4918827   2.565   2.760   5.333 -0.3844  1.5996 -0.1629
  230MOL    C5018828   2.782   2.789   5.096  0.2636  0.0748 -0.3519
  230MOL    O5118829   2.899   2.800   5.170  0.4494 -0.4509  0.6777
  230MOL    H5218830   2.794   2.859   5.013  0.7655  1.1328  0.5959
  230MOL    H5318831   2.780   2.685   5.064  1.4955  0.2188 -0.9419
  230MOL    C5418832   2.947   2.929   5.176 -0.4045 -0.2637 -0.1340
  230MOL    O5518833   2.989   2.993   5.056  0.0202 -0.0931  1.0014
  230MOL    H5618834   3.031   2.934   5.245 -0.0950  0.1734 -0.5332
  230MOL    H5718835   2.874   2.993   5.224  1.6038  1.1979  1.0453
  230MOL    C5818836   3.093   2.930   4.993 -0.4995  0.1701 -0.3102
  230MOL    O5918837   3.215   2.965   5.044 -0.5542  0.6425  0.8682
  230MOL    H6018838   3.091   2.945   4.885 -0.0787  1.4807 -0.1412
  230MOL    H6118839   3.081   2.822   5.005 -1.6172  0.4055  0.8479
  230MOL    C6218840   3.322   2.887   5.000  0.5628  0.1332 -0.2491
  230MOL    O6318841   3.326   2.765   5.066 -0.2477 -0.2807 -0.3857
  230MOL    H6418842   3.418   2.938   4.996  0.6716  0.1262  1.9773
  230MOL    H6518843   3.300   2.860   4.896  0.4789  0.3200 -0.2823
  230MOL    C6618844   3.362   2.779   5.196  0.6002  0.0244  0.2559
  230MOL    O6718845   3.495   2.792   5.219  0.1849  0.0983 -0.0218
  230MOL    H6818846   3.325   2.689   5.246  0.2973 -1.0193 -1.8089
  230MOL    H6918847   3.302   2.854   5.248 -1.4639 -0.2763 -1.5969
  230MOL    C7018848   3.565   2.672   5.185  0.7355 -0.1122  0.3606
  230MOL    O7118849   3.510   2.567   5.252 -0.1646  0.5806 -0.7538
  230MOL    H7218850   3.668   2.696   5.212  0.0674  2.1708  1.0756
  230MOL    H7318851   3.567   2.650   5.079  0.5628  0.1952  0.2934
  230MOL    C7418852   3.484   2.457   5.172  0.2141 -0.1848 -0.5904
  230MOL    O7518853   3.599   2.385   5.132 -0.2031 -0.2383  0.8594
  230MOL    H7618854   3.421   2.491   5.089 -1.9273  0.1126  1.1163
  230MOL    H7718855   3.414   2.391   5.224  0.6373 -0.1369  0.0335
  230MOL    C7818856   3.667   2.337   5.242 -0.0823 -0.3724 -0.6529
  230MOL    O7918857   3.748   2.229   5.205  0.2447  0.1584 -0.4573
  230MOL    H8018858   3.595   2.300   5.315  0.8518  0.6506  0.8121
  230MOL    H8118859   3.731   2.414   5.286  1.1166 -1.5082 -0.3526
  230MOL    H8218860   3.826   2.272   5.171  2.0272 -1.2345  1.7194
  231MOL     C118861   5.253   1.516   3.187 -0.1867 -0.0072  0.3806
  231MOL     O218862   5.365   1.431   3.162  0.7779 -0.4467 -0.2289
  231MOL     H318863   5.294   1.617   3.195 -0.0326 -0.0824  0.5115
  231MOL     H418864   5.181   1.525   3.105 -0.3596  0.8895  0.6232
  231MOL     H518865   5.198   1.491   3.278 -1.0327 -3.0436 -0.9158
  231MOL     C618866   5.332   1.299   3.129 -0.2699 -0.1427 -0.8867
  231MOL     O718867   5.253   1.244   3.231  0.5851 -0.3200  0.4254
  231MOL     H818868   5.420   1.240   3.105 -0.1305 -0.5368  0.5231
  231MOL     H918869   5.263   1.310   3.045 -0.8901  0.2412 -0.3424
  231MOL    C1018870   5.322   1.214   3.346 -0.3080 -0.0524 -0.6654
  231MOL    O1118871   5.400   1.100   3.333  0.6644 -0.1991 -0.2812
  231MOL    H1218872   5.250   1.212   3.428 -1.0895 -2.9170 -1.3539
  231MOL    H1318873   5.391   1.296   3.366  0.8191 -1.5694  1.9847
  231MOL    C1418874   5.330   0.983   3.291  0.1377  0.0437  0.2610
  231MOL    O1518875   5.236   0.937   3.388 -0.3613 -0.3910  0.0501
  231MOL    H1618876   5.397   0.903   3.261 -1.3256 -0.1938 -2.5445
  231MOL    H1718877   5.281   1.000   3.195  0.0395 -1.4226  0.0416
  231MOL    C1818878   5.291   0.865   3.499  0.3813  0.2781  0.0439
  231MOL    O1918879   5.206   0.866   3.610 -0.6528 -0.1892 -0.0021
  231MOL    H2018880   5.385   0.916   3.523  0.4592  0.4370 -0.5869
  231MOL    H2118881   5.317   0.765   3.464 -0.4736 -0.2005  0.7678
  231MOL    C2218882   5.097   0.784   3.589 -0.0888  0.3063  0.2895
  231MOL    O2318883   5.149   0.653   3.588  0.1630 -0.2680  0.3065
  231MOL    H2418884   5.029   0.802   3.506 -1.8677  0.2378  1.6975
  231MOL    H2518885   5.034   0.790   3.678 -1.4997 -3.3015 -0.3913
  231MOL    C2618886   5.044   0.563   3.609 -0.3627  0.0317 -0.2005
  231MOL    O2718887   4.995   0.566   3.742  0.5894  0.0676 -0.1888
  231MOL    H2818888   5.087   0.471   3.569 -0.0375  0.3969 -0.6954
  231MOL    H2918889   4.957   0.592   3.550  0.5923  2.5477 -0.4066
  231MOL    C3018890   5.047   0.461   3.815 -0.2338 -0.2648  0.4927
  231MOL    O3118891   4.981   0.343   3.782  0.1792 -0.5740  0.3091
  231MOL    H3218892   5.031   0.480   3.921  0.4653 -2.3076  0.9952
  231MOL    H3318893   5.153   0.451   3.795  0.3061  3.5875  1.1068
  231MOL    C3418894   4.843   0.337   3.826 -0.6254 -0.1894  0.4948
  231MOL    O3518895   4.833   0.370   3.958 -0.7651 -0.0077 -0.0849
  231MOL    H3618896   4.798   0.241   3.802 -0.8498  0.1506 -0.4640
  231MOL    H3718897   4.801   0.418   3.767  1.4383  0.6391  0.1098
  231MOL    C3818898   4.885   0.264   4.041 -0.4307  0.4448 -0.2528
  231MOL    O3918899   4.791   0.164   4.034 -0.0250  0.3445 -0.3773
  231MOL    H4018900   4.910   0.290   4.143 -0.4143 -0.1664 -0.0986
  231MOL    H4118901   4.970   0.218   3.991  1.0841  1.5244  1.2925
  231MOL    C4218902   4.691   0.178   4.125 -0.2145 -0.2242 -0.7661
  231MOL    O4318903   4.733   0.138   4.254  0.0581 -0.0290  0.0528
  231MOL    H4418904   4.600   0.127   4.094 -0.6894 -0.1845  0.5315
  231MOL    H4518905   4.662   0.283   4.131  0.6726 -0.0526  0.8029
  231MOL    C4618906   4.763   7.783   4.256  0.1666  0.2150  0.6849
  231MOL    O4718907   4.773   7.745   4.389  0.4569 -0.8323  0.7332
  231MOL    H4818908   4.861   7.772   4.209 -1.0082  1.5298 -2.2586
  231MOL    H4918909   4.702   7.717   4.195  0.9632  0.7739 -0.7415
  231MOL    C5018910   4.868   0.024   4.472 -0.0891  0.2748 -0.0557
  231MOL    O5118911   4.981   7.730   4.464  0.1950 -0.1231  0.7348
  231MOL    H5218912   4.831   0.019   4.575 -1.0646 -1.3435 -0.4521
  231MOL    H5318913   4.892   0.123   4.435 -0.9618  1.2033  1.8302
  231MOL    C5418914   5.089   7.781   4.541 -0.0829 -0.2340  0.0889
  231MOL    O5518915   5.093   7.728   4.667  0.6269  0.2460 -1.2522
  231MOL    H5618916   5.075   0.103   4.564 -1.7414 -1.1083  3.5171
  231MOL    H5718917   5.183   7.770   4.487 -0.2386 -1.3698  0.0260
  231MOL    C5818918   5.141   7.594   4.671  0.0743 -0.1365 -0.1290
  231MOL    O5918919   5.280   7.589   4.688  0.0485 -0.1482 -0.6632
  231MOL    H6018920   5.108   7.548   4.578 -0.7234 -1.5902  0.8601
  231MOL    H6118921   5.098   7.540   4.756  0.3579  0.3551  0.3328
  231MOL    C6218922   5.311   7.614   4.826  0.1131 -0.0431 -0.1387
  231MOL    O6318923   5.285   7.502   4.909 -0.0400  0.6188  0.1370
  231MOL    H6418924   5.253   7.702   4.856 -0.0480  1.1412 -3.7543
  231MOL    H6518925   5.418   7.635   4.836  0.4325 -1.5865 -0.1570
  231MOL    C6618926   5.373   7.400   4.883 -0.0562 -0.2355 -0.5995
  231MOL    O6718927   5.504   7.432   4.919 -0.6117  0.2809 -0.5226
  231MOL    H6818928   5.362   7.368   4.779  0.5177 -0.6702 -0.5294
  231MOL    H6918929   5.347   7.307   4.933 -2.0078 -0.2967 -1.6625
  231MOL    C7018930   5.512   7.455   5.056  0.2972  0.2983 -0.2472
  231MOL    O7118931   5.641   7.490   5.087 -0.1705 -0.9115 -0.6526
  231MOL    H7218932   5.474   7.369   5.112 -2.0628  1.2415 -0.3164
  231MOL    H7318933   5.455   7.540   5.094  1.1120  0.7988 -0.1333
  231MOL    C7418934   5.718   7.376   5.114 -0.1617  0.3384 -0.0989
  231MOL    O7518935   5.710   7.333   5.248 -0.0324  0.3853 -0.5163
  231MOL    H7618936   5.819   7.412   5.094  0.0657 -0.6514 -0.7410
  231MOL    H7718937   5.698   7.290   5.052  0.5096 -0.3986  0.6904
  231MOL    C7818938   5.721   7.431   5.341 -0.4429 -0.1007  0.4587
  231MOL    O7918939   5.724   7.388   5.470  0.1596 -0.2841 -0.1857
  231MOL    H8018940   5.638   7.502   5.332  2.4200  3.0495 -2.7815
  231MOL    H8118941   5.811   7.488   5.317 -1.6633  1.8284  0.3050
  231MOL    H8218942   5.637   7.368   5.502 -1.4461 -0.3498 -4.3469
  232MOL     C118943   5.579   1.144   0.419  0.5561 -0.3042 -0.1129
  232MOL     O218944   5.640   1.189   0.538  0.1271 -0.0804  0.7663
  232MOL     H318945   5.646   1.147   0.333  1.0063 -0.2312  0.2371
  232MOL     H418946   5.543   1.042   0.427 -2.9191  0.8221 -0.6675
  232MOL     H518947   5.493   1.206   0.394  1.0269  0.6953  0.7139
  232MOL     C618948   5.758   1.111   0.559 -0.3846  0.7395  0.6571
  232MOL     O718949   5.833   1.158   0.669  0.2609  0.4715  0.0368
  232MOL     H818950   5.837   1.119   0.483 -1.2150 -0.4929 -0.3693
  232MOL     H918951   5.734   1.006   0.579  0.2351  0.5117  0.2269
  232MOL    C1018952   5.756   1.143   0.787  0.2904  0.3382 -0.0913
  232MOL    O1118953   5.761   1.010   0.830 -0.2240  0.0313 -0.3251
  232MOL    H1218954   5.657   1.187   0.787 -0.7615 -1.8921  1.5749
  232MOL    H1318955   5.811   1.187   0.870  2.3351 -1.4984 -0.4057
  232MOL    C1418956   5.889   0.966   0.873  0.6195 -0.5585  0.0651
  232MOL    O1518957   5.921   1.005   1.013 -0.1981 -0.0901 -0.9056
  232MOL    H1618958   5.968   0.992   0.803 -1.1912 -0.7490 -2.1074
  232MOL    H1718959   5.876   0.858   0.867  0.6749 -0.5655  0.0677
  232MOL    C1818960   5.821   0.961   1.101  0.9243 -0.1613 -0.5690
  232MOL    O1918961   5.845   1.009   1.225  0.2287  0.1691  0.5964
  232MOL    H2018962   5.803   0.854   1.103  1.8315 -0.3199 -0.2857
  232MOL    H2118963   5.728   1.011   1.074  0.3225 -0.5109  0.8281
  232MOL    C2218964   5.933   0.924   1.292 -0.3011  0.2688 -0.2963
  232MOL    O2318965   5.868   0.803   1.326 -0.0373 -0.3700  0.2242
  232MOL    H2418966   5.971   0.988   1.372 -0.4617  1.5044 -1.1835
  232MOL    H2518967   6.023   0.898   1.237  0.5822 -1.1915  1.8070
  232MOL    C2618968   5.792   0.820   1.437 -0.1677 -0.4971  0.3045
  232MOL    O2718969   5.878   0.840   1.545  0.0277  0.6162 -0.3939
  232MOL    H2818970   5.722   0.737   1.445  0.8662 -1.3671  0.4895
  232MOL    H2918971   5.730   0.908   1.421 -1.0387 -1.3969 -1.3241
  232MOL    C3018972   5.806   0.874   1.655  0.1019 -0.3447  0.3549
  232MOL    O3118973   5.749   0.757   1.714  0.1117 -0.0351 -0.4894
  232MOL    H3218974   5.730   0.945   1.623 -1.3539 -3.0088 -2.3771
  232MOL    H3318975   5.872   0.934   1.718 -0.9258  0.5055  0.6380
  232MOL    C3418976   5.842   0.678   1.779 -0.2926  0.4923 -0.6512
  232MOL    O3518977   5.921   0.607   1.690  0.0258  0.0427 -0.7605
  232MOL    H3618978   5.799   0.613   1.855  1.2844 -1.2464 -1.2150
  232MOL    H3718979   5.916   0.741   1.829 -0.4764 -0.3758  0.7360
  232MOL    C3818980   5.860   0.491   1.638 -0.0248  0.3315 -0.4965
  232MOL    O3918981   5.945   0.427   1.550  0.1716 -0.0264 -0.1473
  232MOL    H4018982   5.768   0.512   1.584 -3.2494 -0.6436  4.2679
  232MOL    H4118983   5.842   0.420   1.719 -0.4560  0.6564 -0.3066
  232MOL    C4218984   5.965   0.496   1.427 -0.1074  0.3609 -0.2749
  232MOL    O4318985   6.104   0.499   1.395 -0.2191  0.0313 -0.0734
  232MOL    H4418986   5.913   0.591   1.418 -0.9117 -0.0836 -0.4042
  232MOL    H4518987   5.909   0.450   1.346  1.1674  0.9368 -1.5015
  232MOL    C4618988   6.164   0.605   1.456 -0.4712 -0.3499  0.3032
  232MOL    O4718989   6.300   0.601   1.438 -0.1559  0.3077 -0.2718
  232MOL    H4818990   6.154   0.589   1.564  2.0977 -1.0296  0.4781
  232MOL    H4918991   6.124   0.701   1.424 -1.3171 -0.8610 -0.1919
  232MOL    C5018992   6.334   0.629   1.307  0.2331  0.1200  0.2072
  232MOL    O5118993   6.297   0.762   1.271 -0.1376  0.6781  0.2353
  232MOL    H5218994   6.279   0.568   1.236 -0.2419  1.3330 -0.4708
  232MOL    H5318995   6.438   0.602   1.289 -0.1085 -1.2508  0.2639
  232MOL    C5418996   6.398   0.845   1.310  0.3900  0.7090 -0.2424
  232MOL    O5518997   6.503   0.830   1.222 -0.2696 -0.4917  0.8764
  232MOL    H5618998   6.425   0.844   1.416 -0.6829 -2.0610  0.0390
  232MOL    H5718999   6.346   0.940   1.297  0.1475  0.4679 -1.0809
  232MOL    C5819000   6.606   0.925   1.242  0.2504  0.3984  0.2767
  232MOL    O5919001   6.586   1.054   1.205 -0.4674  0.2203  0.2458
  232MOL    H6019002   6.700   0.900   1.194 -0.1365  1.5096 -1.0695
  232MOL    H6119003   6.637   0.911   1.346 -1.8051 -0.7717  0.7804
  232MOL    C6219004   6.571   1.070   1.071 -1.4628 -0.0980  0.2664
  232MOL    O6319005   6.693   1.050   0.999  0.1601 -0.2500 -0.2731
  232MOL    H6419006   6.526   1.169   1.067  0.4104  0.8800  2.3389
  232MOL    H6519007   6.498   1.004   1.023 -1.6749  0.8528 -0.7616
  232MOL    C6619008   6.770   1.168   1.003  0.0230  0.3400  0.3222
  232MOL    O6719009   6.733   1.249   0.899 -0.4125  0.2005  0.1891
  232MOL    H6819010   6.875   1.142   0.990 -0.5297 -3.2553  2.1798
  232MOL    H6919011   6.754   1.224   1.095  0.6837 -0.7288  1.1115
  232MOL    C7019012   6.742   1.190   0.774  1.0062 -0.2688  0.1622
  232MOL    O7119013   6.866   1.142   0.739 -0.4537  0.3513 -0.1912
  232MOL    H7219014   6.705   1.262   0.701  1.9430  0.1358  0.0758
  232MOL    H7319015   6.675   1.104   0.767  0.0775  0.5465 -1.2144
  232MOL    C7419016   6.939   1.232   0.667  0.3958 -0.3377  0.1599
  232MOL    O7519017   6.941   1.196   0.529 -0.2814 -0.6670 -0.2576
  232MOL    H7619018   7.036   1.221   0.715 -0.8340  0.3649  2.9257
  232MOL    H7719019   6.916   1.337   0.682 -1.3296 -0.7219  0.2875
  232MOL    C7819020   6.992   1.070   0.502  0.0136  0.9091 -0.6566
  232MOL    O7919021   6.988   1.035   0.367  0.3944 -0.1060 -0.0603
  232MOL    H8019022   6.937   0.994   0.556  0.5551  0.1932 -1.0972
  232MOL    H8119023   7.101   1.067   0.512 -0.0894  1.5479  0.7559
  232MOL    H8219024   6.900   1.031   0.332  0.5468  2.8314 -0.8828
  233MOL     C119025   1.094   3.817   6.887 -0.3182 -0.2163 -0.4783
  233MOL     O219026   0.994   3.772   6.973 -0.1350  0.4905  0.3098
  233MOL     H319027   1.105   3.753   6.800  2.2749 -0.3145 -0.1295
  233MOL     H419028   1.078   3.921   6.856 -0.2498  0.4269  1.5400
  233MOL     H519029   1.188   3.819   6.943 -0.3876  0.3429 -0.3745
  233MOL     C619030   1.014   3.642   7.013 -0.2736  0.2353 -0.3775
  233MOL     O719031   1.105   3.647   7.123 -0.3036  0.8853  0.3075
  233MOL     H819032   1.057   3.589   6.928 -3.2946 -0.0783 -1.7570
  233MOL     H919033   0.932   3.577   7.046  0.5772 -0.0967  1.1351
  233MOL    C1019034   1.210   3.552   7.116 -0.3011 -0.7787  0.0963
  233MOL    O1119035   1.326   3.613   7.063 -0.4636 -0.6442 -0.2270
  233MOL    H1219036   1.194   3.459   7.062 -1.4128 -0.6957  0.2866
  233MOL    H1319037   1.225   3.518   7.218 -0.2072  0.0802  0.3747
  233MOL    C1419038   1.428   3.512   7.057  0.3436 -0.1001 -0.4851
  233MOL    O1519039   1.425   3.448   6.932  0.6369 -0.0618 -0.0442
  233MOL    H1619040   1.423   3.428   7.127  0.4849  0.1406 -0.1855
  233MOL    H1719041   1.526   3.554   7.079 -0.1996 -0.1564  2.1715
  233MOL    C1819042   1.440   3.543   6.834 -0.3437  0.2697  0.1735
  233MOL    O1919043   1.573   3.578   6.838 -0.2759  0.5068  0.0811
  233MOL    H2019044   1.374   3.630   6.834  1.6487  1.8159  0.1364
  233MOL    H2119045   1.416   3.486   6.745  0.9209  1.2513 -0.8124
  233MOL    C2219046   1.605   3.659   6.733  0.0654 -0.1391 -0.1512
  233MOL    O2319047   1.571   3.607   6.618 -0.1797  0.2175 -0.0393
  233MOL    H2419048   1.712   3.681   6.728  0.3186 -1.6266 -1.7004
  233MOL    H2519049   1.557   3.756   6.743  0.0179 -0.0307 -1.3348
  233MOL    C2619050   1.663   3.505   6.580  0.3916 -0.0052 -0.1986
  233MOL    O2719051   1.619   3.462   6.454  0.0645 -0.1990 -0.2685
  233MOL    H2819052   1.679   3.429   6.657 -2.7874 -0.4798  0.0490
  233MOL    H2919053   1.754   3.555   6.546  0.3500 -0.0296 -0.3471
  233MOL    C3019054   1.533   3.350   6.457  0.0702 -0.1917 -0.8731
  233MOL    O3119055   1.600   3.237   6.523 -0.4362 -0.3184  0.1879
  233MOL    H3219056   1.515   3.333   6.351 -0.4948  1.3828 -1.0470
  233MOL    H3319057   1.446   3.384   6.514 -0.0173 -0.5063 -0.8209
  233MOL    C3419058   1.716   3.212   6.455 -0.2407  0.0938  0.5349
  233MOL    O3519059   1.778   3.096   6.493 -0.0919  0.1668 -0.1000
  233MOL    H3619060   1.787   3.295   6.462 -0.2992  0.4733 -2.7671
  233MOL    H3719061   1.696   3.214   6.348  1.5058  2.0698  0.1922
  233MOL    C3819062   1.828   3.110   6.618 -1.1464  0.9503 -0.5146
  233MOL    O3919063   1.923   3.208   6.628 -0.3240  0.2720  0.0026
  233MOL    H4019064   1.875   3.014   6.636 -1.8331  0.6342 -0.4003
  233MOL    H4119065   1.769   3.139   6.705 -2.0192 -3.7877  0.5716
  233MOL    C4219066   2.038   3.176   6.552 -0.2292  0.8423  0.1721
  233MOL    O4319067   2.110   3.077   6.617  0.1215 -0.2887 -0.7785
  233MOL    H4419068   2.102   3.261   6.528  1.6093 -0.3780  0.5719
  233MOL    H4519069   2.014   3.136   6.453 -1.1232  1.6617  0.0586
  233MOL    C4619070   2.194   3.124   6.719  0.0643  0.7661  0.1903
  233MOL    O4719071   2.247   3.015   6.774  0.3085 -0.5696 -0.3053
  233MOL    H4819072   2.135   3.179   6.792 -1.0954 -1.5775  1.0991
  233MOL    H4919073   2.266   3.190   6.670  1.5995 -0.5469  0.6395
  233MOL    C5019074   2.334   3.044   6.877  0.6327 -0.6119 -0.1258
  233MOL    O5119075   2.452   3.092   6.828  0.3148 -0.3911  0.5302
  233MOL    H5219076   2.343   2.947   6.927 -1.7851 -1.0047 -0.4007
  233MOL    H5319077   2.292   3.124   6.936  1.8433 -0.0015 -0.0735
  233MOL    C5419078   2.533   2.991   6.784  0.2005  0.0007 -1.1663
  233MOL    O5519079   2.570   2.903   6.889  0.5005  0.4271 -0.3917
  233MOL    H5619080   2.621   3.039   6.741  2.5500  0.0396  3.3805
  233MOL    H5719081   2.484   2.939   6.701 -1.4821  0.0261 -0.2038
  233MOL    C5819082   2.685   2.944   6.952  0.5336 -0.1412 -0.7244
  233MOL    O5919083   2.725   2.849   7.053  1.3023  0.4240  0.0301
  233MOL    H6019084   2.663   3.043   6.993  2.4480  0.5042 -1.2147
  233MOL    H6119085   2.774   2.960   6.891 -1.0224 -0.9272 -3.3167
  233MOL    C6219086   2.662   2.872   7.174 -0.2926  0.4659 -0.8038
  233MOL    O6319087   2.685   3.007   7.227 -0.1156 -0.4490  0.3723
  233MOL    H6419088   2.698   2.809   7.255 -0.3441  1.8770  0.3405
  233MOL    H6519089   2.554   2.854   7.169 -0.2064  0.3955 -2.6143
  233MOL    C6619090   2.817   3.026   7.272  0.0172 -0.3769 -0.3225
  233MOL    O6719091   2.848   2.941   7.387  0.2654  0.3621 -0.2249
  233MOL    H6819092   2.835   3.131   7.295  3.4827 -1.3901  2.0175
  233MOL    H6919093   2.877   2.992   7.188  1.1666 -3.5079  1.6901
  233MOL    C7019094   2.778   2.977   7.499  0.5271 -0.2214  0.4614
  233MOL    O7119095   2.825   3.105   7.539  0.7059  0.4182  0.4353
  233MOL    H7219096   2.792   2.899   7.573 -2.4888 -0.3739  0.9423
  233MOL    H7319097   2.672   2.985   7.472  0.1541  1.2099  2.1990
  233MOL    C7419098   2.949   3.104   7.603  0.2627  0.7697  0.0562
  233MOL    O7519099   2.938   3.085   7.739 -0.2433 -0.3280 -0.1778
  233MOL    H7619100   3.001   3.199   7.592  0.7839  0.6300  1.3120
  233MOL    H7719101   3.017   3.042   7.544  1.3459  2.0732 -0.0899
  233MOL    C7819102   3.056   3.076   0.019 -0.3346 -0.0822  1.0454
  233MOL    O7919103   3.032   3.075   0.153 -0.0100  0.0761 -0.1132
  233MOL    H8019104   3.124   3.156   7.773  0.0154 -0.5577  0.5562
  233MOL    H8119105   3.100   2.981   7.772 -1.1837  0.0636 -0.6667
  233MOL    H8219106   2.999   2.987   0.161 -0.6803  0.3225 -0.1749
  234MOL     C119107   1.201   7.288   0.115  0.2882  0.2449 -0.3471
  234MOL     O219108   1.123   7.195   0.187  0.1062  0.1651  0.2266
  234MOL     H319109   1.135   7.337   0.044  0.8795  0.2828 -0.8765
  234MOL     H419110   1.247   7.364   0.177 -1.0487  0.7281  0.0708
  234MOL     H519111   1.276   7.226   0.065  0.7624  1.1474 -0.7626
  234MOL     C619112   1.004   7.243   0.248 -0.7704 -0.5891  0.1102
  234MOL     O719113   0.896   7.194   0.182  0.1197 -0.3244 -0.2353
  234MOL     H819114   1.026   7.350   0.253  0.2207 -0.7605 -0.3970
  234MOL     H919115   1.002   7.207   0.351  3.6911 -1.1319  0.1089
  234MOL    C1019116   0.877   7.053   0.187 -0.7371 -0.0254  0.3832
  234MOL    O1119117   0.832   7.018   0.313 -0.7576  0.1638 -0.4320
  234MOL    H1219118   0.972   7.004   0.163  0.8441  2.2807  1.6623
  234MOL    H1319119   0.797   7.027   0.118 -1.7230  1.1184  1.0789
  234MOL    C1419120   0.821   6.879   0.326  0.4712  0.2585 -0.2154
  234MOL    O1519121   0.732   6.823   0.232 -0.6302 -0.0212 -0.3490
  234MOL    H1619122   0.775   6.857   0.422 -1.0685  1.4838 -0.6561
  234MOL    H1719123   0.916   6.825   0.318  1.1666  1.2023  1.4038
  234MOL    C1819124   0.598   6.817   0.272  0.2696  0.1241 -0.7923
  234MOL    O1919125   0.528   6.765   0.160  0.4149  0.5666 -0.0778
  234MOL    H2019126   0.555   6.912   0.303  1.4928  1.4397 -3.0167
  234MOL    H2119127   0.592   6.749   0.357  0.0817  0.1683 -0.7687
  234MOL    C2219128   0.523   6.867   0.059 -0.3491  0.2933 -0.3567
  234MOL    O2319129   0.426   6.967   0.090 -0.4454  0.0075 -0.7067
  234MOL    H2419130   0.479   6.807   7.763  3.0202 -2.1855 -0.4833
  234MOL    H2519131   0.621   6.895   0.020 -0.3088  1.0172  0.2578
  234MOL    C2619132   0.429   7.065   7.776 -0.3903 -0.2263  0.5628
  234MOL    O2719133   0.401   7.020   7.644 -0.4675  0.0844 -0.1494
  234MOL    H2819134   0.527   7.113   7.777 -1.3935  1.8941  3.3681
  234MOL    H2919135   0.356   7.134   0.034  0.5548  0.3083  1.3789
  234MOL    C3019136   0.269   6.995   7.623 -0.3722  0.8928  0.4620
  234MOL    O3119137   0.254   6.915   7.517 -0.5449 -0.0099  0.3031
  234MOL    H3219138   0.224   7.090   7.596 -0.9597 -0.0164 -1.9001
  234MOL    H3319139   0.215   6.943   7.702  1.0094 -1.7439 -0.2750
  234MOL    C3419140   0.318   6.792   7.537  0.3956 -0.4901 -0.0761
  234MOL    O3519141   0.243   6.714   7.623 -0.1796  0.1913  0.7099
  234MOL    H3619142   0.422   6.799   7.569 -0.1030 -0.1581  1.5526
  234MOL    H3719143   0.322   6.732   7.446  3.0578 -1.1749  0.4308
  234MOL    C3819144   0.145   6.639   7.562 -0.2074  0.4864 -0.4496
  234MOL    O3919145   0.078   6.561   7.660 -0.6261 -0.7328  0.5560
  234MOL    H4019146   0.199   6.569   7.497  0.9273 -1.4306  2.4273
  234MOL    H4119147   0.066   6.706   7.528 -1.8939 -0.8304  0.7799
  234MOL    C4219148   7.752   6.504   7.615  0.8561  0.5970  0.0388
  234MOL    O4319149   7.776   6.378   7.554 -0.0519  0.0093 -0.9717
  234MOL    H4419150   7.685   6.567   7.556 -1.3677  0.5036  2.4028
  234MOL    H4519151   7.690   6.485   7.703  1.1149  0.3638  0.1700
  234MOL    C4619152   0.043   6.280   7.644 -0.7187 -0.0466  0.6904
  234MOL    O4719153   0.128   6.191   7.578  0.2747  0.7770 -0.2071
  234MOL    H4819154   7.733   6.234   7.676 -0.5007 -0.5868  0.5575
  234MOL    H4919155   0.086   6.336   7.727  0.0124  1.2618 -0.5450
  234MOL    C5019156   0.146   6.074   7.651  0.4003  0.6672 -0.2585
  234MOL    O5119157   0.197   6.103   7.781 -0.4519  0.0523  0.1313
  234MOL    H5219158   0.221   6.020   7.593 -2.2675 -1.7294 -1.6189
  234MOL    H5319159   0.053   6.019   7.664  0.0349  0.7947 -2.2571
  234MOL    C5419160   0.179   5.986   0.086 -0.1333  0.1449  0.6587
  234MOL    O5519161   0.218   5.866   0.027  0.2765 -0.5996  0.0178
  234MOL    H5619162   0.082   5.967   0.131  0.3558  0.3040  1.7785
  234MOL    H5719163   0.241   6.007   0.173 -1.3483 -0.2671  1.6350
  234MOL    C5819164   0.358   5.853   0.022  0.4380  0.1692 -0.1952
  234MOL    O5919165   0.399   5.818   0.150 -0.5793 -0.0975  0.3540
  234MOL    H6019166   0.411   5.942   7.771  3.9546 -1.1132  1.6750
  234MOL    H6119167   0.373   5.774   7.733 -0.8197  0.1450 -0.4512
  234MOL    C6219168   0.525   5.763   0.149  0.2656 -0.5021 -0.4490
  234MOL    O6319169   0.546   5.675   0.256  0.5823 -0.0419  0.0950
  234MOL    H6419170   0.596   5.845   0.166  1.6723 -1.3709 -1.9565
  234MOL    H6519171   0.565   5.715   0.060  0.6831  1.7710 -1.5317
  234MOL    C6619172   0.472   5.554   0.248 -0.2425  0.0183 -0.1370
  234MOL    O6719173   0.532   5.466   0.162  0.2408 -0.5339 -0.3660
  234MOL    H6819174   0.370   5.583   0.224 -0.8703 -3.4531 -1.9264
  234MOL    H6919175   0.475   5.516   0.350  2.9883  0.6476  0.0724
  234MOL    C7019176   0.648   5.410   0.209  0.8820 -0.4427  0.7730
  234MOL    O7119177   0.621   5.291   0.282  0.3414 -0.3909  0.0481
  234MOL    H7219178   0.714   5.479   0.263  0.4605  0.8665 -0.3658
  234MOL    H7319179   0.714   5.381   0.126  0.9170  0.1446  0.5968
  234MOL    C7419180   0.744   5.232   0.319  0.0989 -0.3001  0.2856
  234MOL    O7519181   0.826   5.314   0.393  0.1235 -0.4345  0.3428
  234MOL    H7619182   0.803   5.198   0.233  0.2585  2.3294 -0.6994
  234MOL    H7719183   0.708   5.145   0.374 -3.5942  1.9275  1.5841
  234MOL    C7819184   0.874   5.259   0.511  0.6552 -0.6239  0.5427
  234MOL    O7919185   0.927   5.369   0.577  0.4371 -0.0719 -0.1265
  234MOL    H8019186   0.960   5.195   0.495  1.5701  0.8850 -0.7886
  234MOL    H8119187   0.794   5.228   0.578 -0.9183 -0.4471 -1.1894
  234MOL    H8219188   0.983   5.401   0.508 -0.8952 -0.1849 -1.2776
  235MOL     C119189   0.679   4.061   1.086 -0.6411 -0.0489  0.2912
  235MOL     O219190   0.814   4.013   1.063  0.1720 -0.4182 -0.5354
  235MOL     H319191   0.600   3.986   1.080 -1.1333  0.4917 -0.2273
  235MOL     H419192   0.653   4.111   1.179 -1.6746 -0.1296  0.0555
  235MOL     H519193   0.656   4.127   1.002 -2.9512 -2.3548 -0.9755
  235MOL     C619194   0.831   3.941   0.945 -0.2494 -0.3896  0.0674
  235MOL     O719195   0.753   3.825   0.949  0.4583  0.2087 -0.3164
  235MOL     H819196   0.936   3.920   0.924  0.0690 -0.1319  1.3559
  235MOL     H919197   0.787   3.990   0.858 -2.0728 -1.5487  0.3082
  235MOL    C1019198   0.809   3.722   1.016 -0.4659  0.1941 -0.1113
  235MOL    O1119199   0.729   3.606   1.011  0.5994  0.1660  0.2880
  235MOL    H1219200   0.814   3.759   1.118 -1.1246 -0.1514  0.0466
  235MOL    H1319201   0.911   3.708   0.979 -0.4490 -0.0252  0.0165
  235MOL    C1419202   0.738   3.542   0.887  0.1935  0.0836 -0.7870
  235MOL    O1519203   0.832   3.441   0.901  0.0879  0.4222  0.2426
  235MOL    H1619204   0.745   3.613   0.804  1.8792 -1.7852 -2.3155
  235MOL    H1719205   0.642   3.492   0.883  0.8057 -1.0377 -1.9660
  235MOL    C1819206   0.836   3.352   0.792  0.2023 -0.0814  0.6152
  235MOL    O1919207   0.846   3.413   0.666  0.1712 -0.1349 -0.0047
  235MOL    H2019208   0.745   3.298   0.820 -0.0980 -0.0363 -0.2624
  235MOL    H2119209   0.914   3.275   0.799  1.4262  1.2439  1.8721
  235MOL    C2219210   0.966   3.484   0.645  0.4173 -0.3870  0.2562
  235MOL    O2319211   1.079   3.411   0.631 -0.5849 -0.4838 -0.1498
  235MOL    H2419212   0.985   3.558   0.723  0.1740 -0.3427  0.2750
  235MOL    H2519213   0.942   3.560   0.571 -2.5487 -0.0403  1.4747
  235MOL    C2619214   1.064   3.319   0.521 -0.0627  0.0089 -0.5976
  235MOL    O2719215   1.103   3.375   0.400 -0.5971 -0.2043 -0.4196
  235MOL    H2819216   0.968   3.270   0.513  0.5951 -1.7370  1.7881
  235MOL    H2919217   1.129   3.235   0.543  0.6147  1.0063  1.2877
  235MOL    C3019218   1.236   3.411   0.405  0.5125 -0.5888 -0.0715
  235MOL    O3119219   1.291   3.453   0.281  0.2272  0.4986 -0.0479
  235MOL    H3219220   1.303   3.342   0.457  0.6751 -1.3736 -1.2974
  235MOL    H3319221   1.239   3.498   0.470 -2.3849 -0.2572 -0.3546
  235MOL    C3419222   1.227   3.559   0.225 -0.2510 -0.4982 -0.1788
  235MOL    O3519223   1.228   3.674   0.306 -0.0658 -0.4575  0.0467
  235MOL    H3619224   1.121   3.535   0.217 -0.8332  0.6318  3.2026
  235MOL    H3719225   1.274   3.564   0.127 -0.7791 -0.5374 -0.4326
  235MOL    C3819226   1.348   3.729   0.334 -0.5802  0.5613 -0.0523
  235MOL    O3919227   1.386   3.698   0.462  0.2112  0.4713 -0.3280
  235MOL    H4019228   1.339   3.836   0.315 -1.8950  0.4295 -0.2161
  235MOL    H4119229   1.420   3.691   0.262 -3.4551 -1.0696 -2.1747
  235MOL    C4219230   1.511   3.741   0.496  0.0220 -0.1533 -0.1945
  235MOL    O4319231   1.623   3.691   0.425 -0.1045 -0.5107 -0.3803
  235MOL    H4419232   1.528   3.713   0.600  0.5806 -1.7870 -0.7026
  235MOL    H4519233   1.510   3.850   0.485 -0.2476 -0.0475  0.8119
  235MOL    C4619234   1.640   3.550   0.443  0.4120  0.3614 -0.3506
  235MOL    O4719235   1.721   3.522   0.548  0.4196 -0.4411 -0.4580
  235MOL    H4819236   1.697   3.519   0.355 -0.9306 -0.5857 -0.8974
  235MOL    H4919237   1.550   3.489   0.448  0.1165  0.8289  0.1396
  235MOL    C5019238   1.657   3.490   0.669 -0.0881  0.4876 -0.0042
  235MOL    O5119239   1.619   3.355   0.666  0.8585  1.1555 -0.3925
  235MOL    H5219240   1.563   3.546   0.675 -0.3948 -0.0688  0.4773
  235MOL    H5319241   1.711   3.523   0.757 -1.5935  1.4245  0.5885
  235MOL    C5419242   1.719   3.273   0.713 -0.0468  0.1808  0.5176
  235MOL    O5519243   1.732   3.262   0.851 -0.2357 -0.6322 -0.8619
  235MOL    H5619244   1.813   3.318   0.681 -1.7684  2.4492 -1.4970
  235MOL    H5719245   1.722   3.170   0.676 -0.8617  0.5665 -0.6312
  235MOL    C5819246   1.619   3.219   0.917  0.0033 -0.1701  0.0733
  235MOL    O5919247   1.619   3.247   1.051 -0.2952  0.3496 -0.2297
  235MOL    H6019248   1.591   3.118   0.887  2.5136 -0.9776  0.3234
  235MOL    H6119249   1.536   3.289   0.903  0.8334  0.5930 -1.1669
  235MOL    C6219250   1.706   3.156   1.123  0.3502  0.3553  0.8110
  235MOL    O6319251   1.648   3.034   1.143  0.2326  0.4282  0.0650
  235MOL    H6419252   1.726   3.208   1.217  0.6989 -0.4112  1.1713
  235MOL    H6519253   1.804   3.140   1.078  0.6937  2.2495  0.8712
  235MOL    C6619254   1.556   3.031   1.254  0.7722  0.8166 -0.2841
  235MOL    O6719255   1.613   3.030   1.382  0.2688 -0.2750  0.6328
  235MOL    H6819256   1.478   2.958   1.233  0.4108  0.0690  3.2436
  235MOL    H6919257   1.508   3.128   1.261 -4.3631 -1.6450  0.4200
  235MOL    C7019258   1.616   2.900   1.427  0.1112  0.0821 -0.3276
  235MOL    O7119259   1.486   2.847   1.455 -0.3210 -0.0799  0.9492
  235MOL    H7219260   1.672   2.908   1.520 -2.3868 -1.7014  1.4024
  235MOL    H7319261   1.679   2.837   1.364  0.9728  0.7599 -0.1472
  235MOL    C7419262   1.424   2.929   1.559  0.3698 -0.1236 -0.4788
  235MOL    O7519263   1.367   3.050   1.507 -0.2400 -0.2699 -0.2637
  235MOL    H7619264   1.506   2.948   1.628 -0.7540 -0.1963  0.8936
  235MOL    H7719265   1.343   2.867   1.597 -0.5150 -0.0648 -2.2087
  235MOL    C7819266   1.260   3.028   1.416  0.3912 -0.0811  0.2550
  235MOL    O7919267   1.203   3.146   1.369  0.8158 -0.4432 -0.5785
  235MOL    H8019268   1.180   2.979   1.473  0.6087  0.6616  1.2077
  235MOL    H8119269   1.289   2.975   1.325  0.9258  2.1542 -0.8906
  235MOL    H8219270   1.240   3.223   1.410 -0.5835 -0.5955  1.0193
  236MOL     C119271   2.938   0.355   1.954  0.2126 -0.0316  0.3654
  236MOL     O219272   2.971   0.459   1.852 -0.4111  0.4430 -0.1889
  236MOL     H319273   2.934   0.262   1.896 -0.9994 -1.1728  2.2273
  236MOL     H419274   3.019   0.360   2.027 -0.2603  2.8263  0.7318
  236MOL     H519275   2.837   0.372   1.990 -0.2530 -3.6703  0.9875
  236MOL     C619276   2.922   0.444   1.720 -0.2074 -0.4581 -0.0823
  236MOL     O719277   2.994   0.340   1.655 -0.1064 -0.6804 -0.2826
  236MOL     H819278   2.930   0.533   1.658  1.1667 -1.8082 -1.8778
  236MOL     H919279   2.816   0.419   1.729 -0.5899  0.7865 -0.9306
  236MOL    C1019280   2.921   0.278   1.554 -0.1449  0.0642 -0.5172
  236MOL    O1119281   2.832   0.191   1.606 -0.1433  0.3552  0.4382
  236MOL    H1219282   2.982   0.226   1.481  1.7775  0.4990  0.7624
  236MOL    H1319283   2.857   0.350   1.501  0.3982  0.8538 -0.1113
  236MOL    C1419284   2.888   0.080   1.659 -0.3145  0.0902 -0.5686
  236MOL    O1519285   2.939   7.777   1.562  0.5967  0.2988 -0.4211
  236MOL    H1619286   2.819   0.029   1.727  1.1334 -2.5736 -1.0084
  236MOL    H1719287   2.970   0.111   1.723 -0.6163  0.3228 -0.2908
  236MOL    C1819288   2.842   7.696   1.499  0.4343  0.5712  0.0785
  236MOL    O1919289   2.750   7.765   1.415 -0.3135 -0.1898  0.2630
  236MOL    H2019290   2.787   7.652   1.582  2.5934 -0.0729  1.2182
  236MOL    H2119291   2.893   7.620   1.440 -0.5040  1.3157 -1.7328
  236MOL    C2219292   2.811   0.023   1.292  0.1329 -0.4276  0.3059
  236MOL    O2319293   2.846   7.706   1.204  0.4018  0.2452 -0.3458
  236MOL    H2419294   2.900   0.077   1.325 -1.9147  1.9866  2.1825
  236MOL    H2519295   2.745   0.099   1.249 -1.8898 -2.2404  0.1362
  236MOL    C2619296   2.730   7.644   1.148 -0.5358 -0.1635  0.3645
  236MOL    O2719297   2.698   7.539   1.228 -0.1259 -0.2111  0.3372
  236MOL    H2819298   2.753   7.586   1.059  2.5033 -0.3166  1.1851
  236MOL    H2919299   2.653   7.717   1.123  0.0302  1.3502  2.8689
  236MOL    C3019300   2.560   7.543   1.258 -0.2363  0.4578  1.0907
  236MOL    O3119301   2.482   7.510   1.149 -0.3559 -0.6022  0.4048
  236MOL    H3219302   2.534   7.643   1.296 -0.0171  1.4277 -1.2644
  236MOL    H3319303   2.546   7.475   1.342  0.0255 -1.3988 -0.3474
  236MOL    C3419304   2.487   7.375   1.119  0.9308 -0.2692  0.3831
  236MOL    O3519305   2.450   7.351   0.990 -0.2831  0.4538  0.0235
  236MOL    H3619306   2.418   7.333   1.192  1.8866 -1.5652  0.5715
  236MOL    H3719307   2.590   7.339   1.132  1.4192  0.7955 -0.4879
  236MOL    C3819308   2.378   7.234   0.968  0.7823 -0.0833  0.6522
  236MOL    O3919309   2.251   7.242   1.022  0.4707 -0.2001 -0.2786
  236MOL    H4019310   2.425   7.144   1.008 -2.1979 -0.1477  4.2562
  236MOL    H4119311   2.356   7.216   0.862 -0.7610  1.9959  0.5941
  236MOL    C4219312   2.179   7.351   0.991  0.5472 -1.2376 -0.1620
  236MOL    O4319313   2.068   7.362   1.071 -0.4160  0.1336  0.3043
  236MOL    H4419314   2.147   7.347   0.887  0.8037  0.2631 -0.3112
  236MOL    H4519315   2.234   7.445   0.999  1.0557 -1.4238 -1.2965
  236MOL    C4619316   1.961   7.281   1.038 -0.4365 -0.1360 -0.1230
  236MOL    O4719317   1.912   7.302   0.912 -0.2116  0.0803  0.3362
  236MOL    H4819318   1.880   7.317   1.101 -0.4228 -1.5497  0.7203
  236MOL    H4919319   1.995   7.180   1.058  1.6743 -0.0788 -3.0875
  236MOL    C5019320   1.820   7.202   0.886 -0.5138 -0.6231  0.3384
  236MOL    O5119321   1.706   7.224   0.958 -0.6036 -0.5016  0.0472
  236MOL    H5219322   1.867   7.105   0.900  1.5868  0.4864  1.1667
  236MOL    H5319323   1.783   7.207   0.783 -1.6444  1.6182  0.8144
  236MOL    C5419324   1.641   7.338   0.908  0.0477 -1.2748 -0.3451
  236MOL    O5519325   1.582   7.322   0.783 -0.1562 -0.0979 -0.3401
  236MOL    H5619326   1.715   7.417   0.895  0.0392 -0.9878  1.2278
  236MOL    H5719327   1.577   7.384   0.984  2.0100  0.9661  0.0081
  236MOL    C5819328   1.444   7.292   0.797  0.5850 -0.5047 -0.3703
  236MOL    O5919329   1.369   7.409   0.835 -0.3209  0.2003  0.1528
  236MOL    H6019330   1.437   7.217   0.876  1.4782  1.7660  1.9256
  236MOL    H6119331   1.402   7.240   0.711  1.3084 -0.2928 -0.8467
  236MOL    C6219332   1.241   7.371   0.880 -0.1607 -0.6383  0.1749
  236MOL    O6319333   1.233   7.320   1.005  0.0464  0.6120  0.5407
  236MOL    H6419334   1.204   7.309   0.799  3.8226 -2.2232 -0.5269
  236MOL    H6519335   1.188   7.466   0.872  0.9804 -0.0883 -0.9365
  236MOL    C6619336   1.175   7.403   1.097  0.0470 -0.4853 -0.4017
  236MOL    O6719337   1.038   7.442   1.075 -0.6326 -0.4620 -0.4780
  236MOL    H6819338   1.242   7.487   1.115 -1.8454  1.1160 -0.6614
  236MOL    H6919339   1.176   7.351   1.193  3.2313  0.0692 -0.0862
  236MOL    C7019340   0.955   7.330   1.060  0.0096 -1.0753  0.3510
  236MOL    O7119341   0.931   7.263   1.181 -0.2904 -0.4052  0.3635
  236MOL    H7219342   1.006   7.266   0.987  0.4808  0.6123 -0.8362
  236MOL    H7319343   0.860   7.365   1.020  0.6856  1.9364  1.2343
  236MOL    C7419344   0.863   7.343   1.270 -0.1025  0.9181  0.1362
  236MOL    O7519345   0.734   7.364   1.226  0.1854  0.0378 -0.2523
  236MOL    H7619346   0.913   7.439   1.277 -1.6356  1.7116  0.5196
  236MOL    H7719347   0.867   7.296   1.369 -0.9235 -1.9366 -1.1420
  236MOL    C7819348   0.656   7.242   1.236 -0.5028  0.2262 -0.0827
  236MOL    O7919349   0.520   7.272   1.207 -0.5275  0.5391 -0.2381
  236MOL    H8019350   0.647   7.219   1.343 -1.9969 -0.9903 -0.4633
  236MOL    H8119351   0.698   7.162   1.176 -2.6456 -1.8773  1.1344
  236MOL    H8219352   0.477   7.263   1.291 -0.1026 -2.0706 -0.2764
  237MOL     C119353   6.789   6.939   3.804  0.7858 -0.1192 -0.0589
  237MOL     O219354   6.677   6.996   3.751 -0.0616  0.4160 -0.3861
  237MOL     H319355   6.813   6.834   3.786  1.0344 -0.1468  0.4279
  237MOL     H419356   6.875   6.998   3.772 -0.3893  1.0386 -1.0913
  237MOL     H519357   6.777   6.950   3.912  0.6333  0.4799 -0.1326
  237MOL     C619358   6.561   6.936   3.807  0.0537 -0.6040  0.3881
  237MOL     O719359   6.555   6.802   3.773  0.4533 -0.0787  0.4157
  237MOL     H819360   6.463   6.973   3.776  0.8327 -0.2860 -1.7426
  237MOL     H919361   6.552   6.953   3.914 -2.2366  0.6018  0.0351
  237MOL    C1019362   6.449   6.732   3.834 -0.1266  0.4127  0.2764
  237MOL    O1119363   6.479   6.705   3.966 -0.5243  0.1917  0.3769
  237MOL    H1219364   6.442   6.643   3.770  3.1016 -1.2588  2.1255
  237MOL    H1319365   6.350   6.774   3.822 -0.3974 -0.5722 -1.0762
  237MOL    C1419366   6.576   6.607   3.975  0.1166  0.2458  0.4739
  237MOL    O1519367   6.519   6.481   3.947  0.2175  0.2018  0.0351
  237MOL    H1619368   6.613   6.599   4.077 -1.7466  0.7351  1.2089
  237MOL    H1719369   6.661   6.627   3.910 -0.2596 -0.3659 -0.2270
  237MOL    C1819370   6.449   6.420   4.049  0.1851  0.1221  0.0595
  237MOL    O1919371   6.520   6.310   4.087 -0.0672 -0.0712 -0.2709
  237MOL    H2019372   6.344   6.408   4.022  1.1595 -1.4392 -3.3323
  237MOL    H2119373   6.463   6.473   4.143  1.1844  2.0699 -1.1438
  237MOL    C2219374   6.496   6.201   3.994  0.1414  0.2590  0.1619
  237MOL    O2319375   6.366   6.143   4.013  0.1848 -0.4361  0.3489
  237MOL    H2419376   6.571   6.123   4.009 -0.4191 -1.3090 -4.4233
  237MOL    H2519377   6.506   6.243   3.894  0.5238 -0.2334 -0.0090
  237MOL    C2619378   6.334   6.031   3.928  0.4460  0.1822  0.5715
  237MOL    O2719379   6.403   5.923   3.979 -0.3774 -0.5510 -0.1388
  237MOL    H2819380   6.369   6.060   3.829 -1.0678  4.4373  1.1667
  237MOL    H2919381   6.226   6.024   3.929  0.3614  1.1552 -0.1425
  237MOL    C3019382   6.357   5.872   4.096  0.4317 -0.2130 -0.3046
  237MOL    O3119383   6.223   5.829   4.089 -0.2504  0.1553 -0.5338
  237MOL    H3219384   6.341   5.950   4.172 -0.2839  2.2324 -2.8865
  237MOL    H3319385   6.410   5.785   4.134  1.1426 -0.4564 -1.8211
  237MOL    C3419386   6.211   5.711   4.020  0.4015 -0.3973 -0.2049
  237MOL    O3519387   6.129   5.627   4.093  0.3982 -0.5717 -0.3954
  237MOL    H3619388   6.303   5.653   4.012  0.9223  0.4222 -0.2104
  237MOL    H3719389   6.183   5.737   3.917  1.2603 -0.1901 -0.3914
  237MOL    C3819390   6.000   5.680   4.104  0.5466  0.8946 -0.6974
  237MOL    O3919391   5.919   5.694   3.984 -0.0850  0.8900 -0.1168
  237MOL    H4019392   6.002   5.774   4.161  0.4459  1.0395 -0.9341
  237MOL    H4119393   5.940   5.621   4.173 -0.1460  2.0347 -0.3120
  237MOL    C4219394   5.806   5.767   4.001 -0.0026  0.2687  0.8579
  237MOL    O4319395   5.710   5.697   4.077 -0.2398 -0.0599 -0.3912
  237MOL    H4419396   5.758   5.789   3.906  1.5432 -0.2915 -0.0714
  237MOL    H4519397   5.838   5.857   4.053  0.7924 -0.0904  0.9984
  237MOL    C4619398   5.668   5.581   4.013 -0.0274 -0.0578 -0.3952
  237MOL    O4719399   5.726   5.464   4.063 -0.0171 -0.2019  0.1427
  237MOL    H4819400   5.676   5.575   3.904  0.5000 -0.8137 -0.3193
  237MOL    H4919401   5.563   5.564   4.040  0.1898 -1.6147 -0.4938
  237MOL    C5019402   5.714   5.442   4.196 -0.6988  0.7706  0.1566
  237MOL    O5119403   5.583   5.406   4.229 -0.0575 -0.0082  0.8763
  237MOL    H5219404   5.749   5.521   4.262 -0.0446 -1.0049  1.9911
  237MOL    H5319405   5.775   5.354   4.219  1.5941  2.5896  1.2056
  237MOL    C5419406   5.547   5.283   4.190 -0.2646  0.1188  0.0155
  237MOL    O5519407   5.596   5.179   4.266  0.3416  0.2699 -0.0696
  237MOL    H5619408   5.574   5.263   4.086 -1.2310  0.9162 -0.4026
  237MOL    H5719409   5.438   5.287   4.196 -0.3083  0.2189 -0.7887
  237MOL    C5819410   5.497   5.132   4.353 -0.3740 -0.2423 -0.4990
  237MOL    O5919411   5.402   5.055   4.289 -0.4954  0.2691  0.0665
  237MOL    H6019412   5.439   5.217   4.388  0.4161  0.0643  0.0985
  237MOL    H6119413   5.541   5.092   4.445  0.6122  3.0307  0.5467
  237MOL    C6219414   5.287   5.019   4.360  0.9001 -0.1282 -0.0996
  237MOL    O6319415   5.321   4.948   4.475  0.1099 -0.0414  0.0723
  237MOL    H6419416   5.204   4.988   4.297 -1.6876  0.2675  3.0095
  237MOL    H6519417   5.256   5.116   4.400  2.2923  0.4586 -0.3921
  237MOL    C6619418   5.354   4.824   4.437  0.6947 -0.1359 -0.1566
  237MOL    O6719419   5.414   4.755   4.536 -0.2195  0.0512 -0.1933
  237MOL    H6819420   5.416   4.816   4.348  3.4383  1.0261  1.5807
  237MOL    H6919421   5.257   4.780   4.412  0.1270  1.5022 -0.8869
  237MOL    C7019422   5.322   4.698   4.620 -0.0873  0.4663 -0.0766
  237MOL    O7119423   5.304   4.565   4.595  0.4655 -0.1181  0.3587
  237MOL    H7219424   5.226   4.749   4.622 -0.4904 -0.2898 -0.2773
  237MOL    H7319425   5.350   4.713   4.725 -2.1059 -0.4985  0.6143
  237MOL    C7419426   5.400   4.482   4.657  0.2969 -0.3506 -0.2040
  237MOL    O7519427   5.398   4.496   4.797 -0.9556  0.0186  0.4400
  237MOL    H7619428   5.500   4.504   4.620  0.2707 -1.6964 -1.1177
  237MOL    H7719429   5.374   4.379   4.632 -0.7601  0.2128 -1.5016
  237MOL    C7819430   5.290   4.430   4.852 -0.1137 -0.6506 -0.5295
  237MOL    O7919431   5.305   4.437   4.992 -0.3206  0.5065 -0.4069
  237MOL    H8019432   5.282   4.324   4.831  0.5254 -0.4098 -2.0740
  237MOL    H8119433   5.199   4.483   4.824  0.3535  0.7589  0.5499
  237MOL    H8219434   5.272   4.518   5.029 -1.2363  0.4891 -1.1728
  238MOL     C119435   2.630   7.115   3.739 -0.7443 -0.6045 -0.3542
  238MOL     O219436   2.739   7.203   3.722  0.0994  0.3915  0.4907
  238MOL     H319437   2.537   7.163   3.768  0.0832 -1.5471  4.2642
  238MOL     H419438   2.626   7.051   3.651 -0.0999 -3.7850  1.8279
  238MOL     H519439   2.661   7.058   3.827  0.7514 -0.6898 -0.9358
  238MOL     C619440   2.728   7.290   3.618  0.5132  0.3728 -0.6361
  238MOL     O719441   2.741   7.231   3.494 -0.2806  0.2184  0.0303
  238MOL     H819442   2.797   7.374   3.623 -0.1221  0.8041  1.3530
  238MOL     H919443   2.626   7.328   3.631  0.4942  0.5654 -1.2987
  238MOL    C1019444   2.869   7.180   3.471 -0.2434 -0.1474 -0.0015
  238MOL    O1119445   2.865   7.094   3.354  0.6787 -0.1722  0.2874
  238MOL    H1219446   2.900   7.122   3.558 -0.9429 -2.8053 -1.4573
  238MOL    H1319447   2.943   7.259   3.466 -1.0877  0.5521 -1.9626
  238MOL    C1419448   2.810   7.156   3.243 -0.3100 -0.4321  0.8913
  238MOL    O1519449   2.833   7.080   3.128  0.5649  0.0744  0.3674
  238MOL    H1619450   2.858   7.254   3.233 -1.6601  0.0849 -0.9202
  238MOL    H1719451   2.704   7.176   3.259 -1.2077 -3.5242 -0.8200
  238MOL    C1819452   2.966   7.097   3.083  0.1318  0.0368 -0.2819
  238MOL    O1919453   2.992   7.230   3.043  0.4152 -0.6556 -0.0414
  238MOL    H2019454   2.991   7.025   3.005  1.7407  0.8436 -0.5330
  238MOL    H2119455   3.031   7.074   3.167 -0.2316 -0.7460 -0.2164
  238MOL    C2219456   2.913   7.276   2.941 -0.4094  0.8467 -1.5598
  238MOL    O2319457   2.939   7.403   2.890  0.0582  0.1267  0.0220
  238MOL    H2419458   2.812   7.288   2.982  0.7906  3.1987  0.8758
  238MOL    H2519459   2.918   7.203   2.860  0.4949 -2.6350  1.5116
  238MOL    C2619460   2.932   7.509   2.978 -0.0558 -0.7076 -0.3668
  238MOL    O2719461   2.795   7.547   2.991  0.3948 -0.6055 -0.0007
  238MOL    H2819462   2.993   7.589   2.936 -2.4795  1.9518  0.9951
  238MOL    H2919463   2.975   7.493   3.077 -0.0862  0.3289 -0.1802
  238MOL    C3019464   2.776   7.684   3.014 -0.5200  1.3126 -0.2014
  238MOL    O3119465   2.817   7.750   2.895 -0.1146 -0.4509  0.4854
  238MOL    H3219466   2.824   7.728   3.101 -0.2287 -0.2893  0.4585
  238MOL    H3319467   2.671   7.700   3.038 -0.9564  2.2629 -2.5452
  238MOL    C3419468   2.709   7.771   2.806 -0.1046  0.3286 -0.3055
  238MOL    O3519469   2.633   0.100   2.845  0.2002  0.2552 -0.0315
  238MOL    H3619470   2.669   7.670   2.807 -1.1669  0.6865 -2.3280
  238MOL    H3719471   2.749   7.777   2.704  2.4628  0.2594  0.6727
  238MOL    C3819472   2.704   0.215   2.810 -0.3032  0.6080 -0.2489
  238MOL    O3919473   2.640   0.327   2.862  0.4902 -0.5480 -0.1897
  238MOL    H4019474   2.695   0.218   2.701 -1.9108  0.7141 -0.1228
  238MOL    H4119475   2.810   0.215   2.836 -0.5834  1.9748  0.9427
  238MOL    C4219476   2.647   0.333   3.006 -0.1752 -0.7775 -0.7748
  238MOL    O4319477   2.770   0.371   3.044 -0.1250  0.4145  0.1883
  238MOL    H4419478   2.630   0.235   3.051  0.5279  0.5585  2.4680
  238MOL    H4519479   2.572   0.406   3.036 -0.5215 -2.1195  1.7628
  238MOL    C4619480   2.805   0.493   2.995  0.6695  0.1654 -0.0969
  238MOL    O4719481   2.888   0.557   3.085 -0.4777  0.2882 -0.1048
  238MOL    H4819482   2.719   0.558   2.983 -0.0299 -0.7324  0.0669
  238MOL    H4919483   2.867   0.479   2.906 -1.0690 -0.0691 -1.3030
  238MOL    C5019484   2.827   0.595   3.202 -0.0312 -0.1865 -0.1619
  238MOL    O5119485   2.727   0.690   3.183  0.2698 -0.7152 -0.4460
  238MOL    H5219486   2.904   0.643   3.262  0.1250 -0.2940 -0.2762
  238MOL    H5319487   2.770   0.522   3.259 -0.7748  0.2401 -0.3558
  238MOL    C5419488   2.773   0.814   3.181  0.0158  0.2423 -0.0062
  238MOL    O5519489   2.692   0.894   3.112  0.2278  1.0766  0.3144
  238MOL    H5619490   2.871   0.823   3.132 -0.4803  0.3371 -0.9924
  238MOL    H5719491   2.784   0.834   3.287  0.4418 -0.4565  0.0882
  238MOL    C5819492   2.684   0.877   2.977 -0.5180  0.1959  0.5044
  238MOL    O5919493   2.603   0.766   2.940 -0.2355 -0.2317 -0.7054
  238MOL    H6019494   2.783   0.866   2.932 -0.8218 -3.1264  0.4852
  238MOL    H6119495   2.633   0.964   2.935 -2.5632 -0.2608  1.9608
  238MOL    C6219496   2.628   0.725   2.811  0.6092 -0.0157 -0.2563
  238MOL    O6319497   2.595   0.817   2.716  0.1625  0.5191 -0.7619
  238MOL    H6419498   2.571   0.633   2.794 -0.3149  0.3338  0.9323
  238MOL    H6519499   2.730   0.693   2.787 -0.2358 -1.7911 -1.6269
  238MOL    C6619500   2.454   0.848   2.721 -0.1648  0.0415  0.3498
  238MOL    O6719501   2.412   0.938   2.625  0.1646 -0.6923  0.1106
  238MOL    H6819502   2.433   0.895   2.816 -0.3757  0.0052  0.3201
  238MOL    H6919503   2.399   0.754   2.713 -2.3622  1.3635 -0.3211
  238MOL    C7019504   2.393   0.881   2.496  0.6066 -0.1422 -0.7291
  238MOL    O7119505   2.270   0.810   2.489  0.3112  0.4039 -0.2537
  238MOL    H7219506   2.468   0.806   2.473  1.0696 -1.1867  3.7155
  238MOL    H7319507   2.396   0.971   2.435 -0.7546  0.3692 -0.0562
  238MOL    C7419508   2.265   0.729   2.366 -0.4862  0.5125  0.2595
  238MOL    O7519509   2.339   0.612   2.371 -0.1194 -0.3035 -0.0044
  238MOL    H7619510   2.299   0.778   2.274  0.3552 -2.0274 -0.8286
  238MOL    H7719511   2.161   0.713   2.339  0.5543 -2.3896 -2.2753
  238MOL    C7819512   2.306   0.529   2.476 -0.2450  0.6905 -0.3149
  238MOL    O7919513   2.370   0.403   2.478 -0.0450  0.4227 -0.3914
  238MOL    H8019514   2.200   0.512   2.493 -0.7711  2.6773 -1.4273
  238MOL    H8119515   2.338   0.580   2.566 -1.9337 -0.3420  0.8943
  238MOL    H8219516   2.331   0.344   2.415  0.3261 -2.5996  2.0927
  239MOL     C119517   5.452   3.489   1.799 -0.1176 -0.3011  0.1640
  239MOL     O219518   5.364   3.564   1.721 -0.1986 -0.2902  0.1455
  239MOL     H319519   5.434   3.382   1.794 -3.0338  0.1809 -0.5620
  239MOL     H419520   5.553   3.504   1.760  0.0402 -0.6067  0.4576
  239MOL     H519521   5.452   3.525   1.902 -0.0598  1.6214 -0.4914
  239MOL     C619522   5.402   3.699   1.697 -0.3325  0.0831 -0.1048
  239MOL     O719523   5.443   3.767   1.809 -0.1133 -0.3270  0.4253
  239MOL     H819524   5.327   3.746   1.634  0.3257  2.0339  0.5048
  239MOL     H919525   5.486   3.700   1.628 -0.1965 -1.1978  0.0291
  239MOL    C1019526   5.339   3.811   1.894 -0.2914 -0.0907 -0.5722
  239MOL    O1119527   5.393   3.847   2.022 -0.2656 -0.4165  0.6124
  239MOL    H1219528   5.272   3.729   1.922 -0.4813 -0.1076 -1.0835
  239MOL    H1319529   5.278   3.885   1.843 -1.5079  0.6361  1.8645
  239MOL    C1419530   5.411   3.981   2.038  0.0389 -0.8486  0.1251
  239MOL    O1519531   5.289   4.045   2.065  0.0790  0.3194  0.0322
  239MOL    H1619532   5.450   4.030   1.949 -2.9854 -1.2202 -1.4802
  239MOL    H1719533   5.488   3.990   2.115  0.0149  0.1366  0.0440
  239MOL    C1819534   5.245   4.006   2.191  0.1154  0.3852 -0.7382
  239MOL    O1919535   5.115   4.050   2.212 -0.1131  0.2378 -0.1005
  239MOL    H2019536   5.303   4.054   2.270  0.6637 -2.4086  0.5865
  239MOL    H2119537   5.245   3.899   2.209 -1.2838  0.6497  0.9324
  239MOL    C2219538   5.099   4.191   2.200  0.2621 -0.7708 -0.3762
  239MOL    O2319539   5.118   4.263   2.316  0.0720  0.6103 -0.1199
  239MOL    H2419540   4.999   4.190   2.157  1.4842 -1.6551 -3.2720
  239MOL    H2519541   5.173   4.240   2.137  0.2128  1.5061  1.2607
  239MOL    C2619542   5.036   4.227   2.424 -0.3625 -0.4346 -0.1775
  239MOL    O2719543   4.906   4.252   2.400  0.2785  0.6152 -0.0202
  239MOL    H2819544   5.072   4.272   2.517 -0.5963 -1.5879  0.4703
  239MOL    H2919545   5.039   4.119   2.434  0.5468 -0.2562  1.7985
  239MOL    C3019546   4.862   4.371   2.459  0.0845 -0.0810  0.8783
  239MOL    O3119547   4.850   4.370   2.597 -0.5252  0.6039  0.1540
  239MOL    H3219548   4.761   4.385   2.419 -0.2473  2.3885  2.4703
  239MOL    H3319549   4.922   4.451   2.417  1.3096 -1.2233  0.4287
  239MOL    C3419550   4.761   4.278   2.644 -0.1948  0.2116  0.3025
  239MOL    O3519551   4.626   4.305   2.612  0.5145 -0.6387  0.5436
  239MOL    H3619552   4.772   4.292   2.752  2.0621  0.0826  0.1121
  239MOL    H3719553   4.787   4.175   2.618 -1.1365  0.3450 -1.1973
  239MOL    C3819554   4.533   4.222   2.678  0.0249 -0.1000 -0.1457
  239MOL    O3919555   4.404   4.259   2.637  0.1913  0.9384  0.3571
  239MOL    H4019556   4.538   4.245   2.785  0.6156 -0.2174 -0.1466
  239MOL    H4119557   4.557   4.116   2.674 -0.5175 -0.3445  2.1180
  239MOL    C4219558   4.370   4.203   2.508  0.2668 -0.2760 -0.4457
  239MOL    O4319559   4.360   4.059   2.518  0.6818 -0.1932  0.6163
  239MOL    H4419560   4.442   4.228   2.431 -0.5084  1.4143 -0.6447
  239MOL    H4519561   4.275   4.247   2.479  1.4127  1.3960 -1.7138
  239MOL    C4619562   4.245   4.020   2.583 -0.4174 -0.7046  0.8449
  239MOL    O4719563   4.135   4.034   2.497 -0.4077  0.5667  0.1735
  239MOL    H4819564   4.229   4.069   2.678 -0.0483 -0.1309  0.6114
  239MOL    H4919565   4.261   3.915   2.608  1.4378 -0.0980  2.2866
  239MOL    C5019566   4.118   3.928   2.405  0.1658 -0.1821  0.1309
  239MOL    O5119567   4.061   3.809   2.462  0.0948 -0.4150 -0.0196
  239MOL    H5219568   4.213   3.903   2.357 -0.7570 -0.2928 -1.6446
  239MOL    H5319569   4.052   3.966   2.327 -0.3897  2.6884  1.9001
  239MOL    C5419570   3.915   3.814   2.480 -0.1531  0.2390  0.3404
  239MOL    O5519571   3.851   3.760   2.364  0.3429 -0.7633 -0.4597
  239MOL    H5619572   3.894   3.921   2.490 -0.2851  0.2458  0.0050
  239MOL    H5719573   3.905   3.748   2.566 -2.2111  0.0086 -0.0369
  239MOL    C5819574   3.836   3.618   2.368 -0.2810  0.1444 -0.0126
  239MOL    O5919575   3.805   3.565   2.241  0.4189  0.1619  0.2120
  239MOL    H6019576   3.768   3.586   2.446 -0.6371  1.2845  0.1495
  239MOL    H6119577   3.937   3.581   2.385  0.1997  1.4566  0.0692
  239MOL    C6219578   3.911   3.566   2.150 -0.3668 -0.2496  0.3992
  239MOL    O6319579   4.004   3.472   2.185  0.8780  0.2596  0.2596
  239MOL    H6419580   3.943   3.668   2.132  1.3875 -1.4507 -4.1456
  239MOL    H6519581   3.878   3.532   2.052  0.7885  1.8979 -0.7688
  239MOL    C6619582   3.966   3.339   2.159 -0.1604  0.2245  0.3294
  239MOL    O6719583   3.962   3.311   2.029 -0.2369  0.2004  0.5863
  239MOL    H6819584   3.871   3.312   2.203 -0.9209  0.3322 -1.2353
  239MOL    H6919585   4.037   3.279   2.216 -0.7104  0.8202  1.6463
  239MOL    C7019586   3.937   3.184   2.000 -0.4692  0.5662  0.1419
  239MOL    O7119587   3.939   3.165   1.860  0.4678 -0.0740  0.6405
  239MOL    H7219588   3.835   3.167   2.034 -0.1205 -1.7463  0.1245
  239MOL    H7319589   4.001   3.115   2.054 -2.2596 -0.6691  0.7410
  239MOL    C7419590   4.066   3.176   1.803  0.5405 -0.8430  0.2543
  239MOL    O7519591   4.059   3.164   1.666 -0.3977 -0.0256  0.2392
  239MOL    H7619592   4.132   3.102   1.848  2.8344  0.7944 -0.3040
  239MOL    H7719593   4.113   3.270   1.831 -2.3825  1.0529 -0.9928
  239MOL    C7819594   3.987   3.060   1.620 -0.3475  0.1146 -1.0808
  239MOL    O7919595   3.989   3.057   1.481 -0.1421 -0.4419  0.2423
  239MOL    H8019596   3.881   3.053   1.642 -0.5261  1.5766 -1.4797
  239MOL    H8119597   4.041   2.968   1.646 -0.1397 -0.2579 -2.7960
  239MOL    H8219598   3.925   3.116   1.443 -0.9810 -2.1122 -1.0148
  240MOL     C119599   0.470   6.154   6.895 -0.4229  0.1219 -0.1598
  240MOL     O219600   0.368   6.086   6.973  0.3075 -0.3487  0.0471
  240MOL     H319601   0.569   6.113   6.915  0.2897  2.2907  0.8665
  240MOL     H419602   0.437   6.145   6.791 -1.0519  3.4043 -0.3090
  240MOL     H519603   0.474   6.260   6.922  1.9240 -0.1194  0.5801
  240MOL     C619604   0.395   6.095   7.108  1.1354 -0.3562 -0.2228
  240MOL     O719605   0.486   6.004   7.160  0.0523  0.2088 -0.1849
  240MOL     H819606   0.298   6.080   7.156  1.0961  1.5985  0.3423
  240MOL     H919607   0.434   6.191   7.141 -0.5388 -0.2352  1.5109
  240MOL    C1019608   0.445   5.870   7.130  0.2371 -0.5720 -0.2522
  240MOL    O1119609   0.488   5.785   7.227  0.3433  0.4211 -0.2887
  240MOL    H1219610   0.463   5.847   7.025  0.8414  2.2741 -0.8155
  240MOL    H1319611   0.336   5.861   7.138 -0.0912  1.4763 -2.0275
  240MOL    C1419612   0.610   5.717   7.191 -0.0447 -0.8901 -0.0035
  240MOL    O1519613   0.608   5.655   7.068  0.4063 -0.0821  0.2200
  240MOL    H1619614   0.643   5.639   7.259  1.1912  0.0960  0.5600
  240MOL    H1719615   0.688   5.793   7.203 -0.5945 -0.6533  2.3713
  240MOL    C1819616   0.513   5.553   7.068  0.0116 -0.4444 -0.1229
  240MOL    O1919617   0.506   5.505   6.938  0.2239  0.1605  0.3157
  240MOL    H2019618   0.415   5.597   7.088 -0.1557 -1.1365  0.6025
  240MOL    H2119619   0.530   5.471   7.137  1.2356  0.3312  0.5151
  240MOL    C2219620   0.613   5.433   6.888 -0.1392 -0.3244 -0.1079
  240MOL    O2319621   0.557   5.371   6.772  0.3074 -0.1026 -0.0539
  240MOL    H2419622   0.643   5.352   6.954  0.9440  0.9120  0.9560
  240MOL    H2519623   0.699   5.498   6.870  0.3262 -0.1842  2.4753
  240MOL    C2619624   0.655   5.298   6.712 -0.2196 -0.1994  0.9194
  240MOL    O2719625   0.673   5.184   6.791 -0.5862  0.5795  0.1450
  240MOL    H2819626   0.740   5.367   6.712 -0.1319 -0.3066  0.8211
  240MOL    H2919627   0.624   5.272   6.610  0.4358  0.0139  0.6601
  240MOL    C3019628   0.779   5.098   6.748 -0.1962 -0.1578  1.1187
  240MOL    O3119629   0.901   5.170   6.742  0.1660  0.5094 -0.3120
  240MOL    H3219630   0.761   5.075   6.644  4.4427 -3.3081  0.8296
  240MOL    H3319631   0.784   5.004   6.803  0.9987  1.1923  3.4090
  240MOL    C3419632   0.969   5.189   6.859  0.0634 -0.2067 -0.6624
  240MOL    O3519633   1.034   5.074   6.914  0.1947  0.1509 -0.5492
  240MOL    H3619634   0.893   5.225   6.929  1.9700 -1.1155  1.9506
  240MOL    H3719635   1.046   5.260   6.831  0.6508  0.0678  1.5852
  240MOL    C3819636   1.047   5.077   7.055  0.1947 -0.1553 -0.4335
  240MOL    O3919637   1.137   5.175   7.113  0.8219 -0.0252  0.3264
  240MOL    H4019638   1.070   4.979   7.099 -0.8399 -0.1361  0.1592
  240MOL    H4119639   0.948   5.099   7.095  0.2691 -0.4581 -0.0741
  240MOL    C4219640   1.271   5.140   7.106  0.6047  0.4643 -0.0022
  240MOL    O4319641   1.353   5.228   7.170  0.3986  0.1886 -0.2235
  240MOL    H4419642   1.294   5.135   7.000  1.6723 -1.7737  0.2988
  240MOL    H4519643   1.283   5.041   7.151 -3.5594 -1.5880 -3.0646
  240MOL    C4619644   1.371   5.344   7.097  0.4778  0.0852  0.9165
  240MOL    O4719645   1.469   5.322   6.999 -0.0041 -0.3231 -0.4422
  240MOL    H4819646   1.403   5.412   7.176 -0.6003  2.1252 -0.3883
  240MOL    H4919647   1.276   5.379   7.057  1.2175 -0.0665 -1.0487
  240MOL    C5019648   1.481   5.441   6.939  0.1773  1.3035  0.5832
  240MOL    O5119649   1.380   5.462   6.838 -0.1775 -0.1104 -0.4794
  240MOL    H5219650   1.576   5.420   6.888  1.0052 -1.4427  3.1110
  240MOL    H5319651   1.509   5.520   7.008 -0.9265  0.2604  2.2594
  240MOL    C5419652   1.356   5.351   6.753  0.1705  0.6930  0.0304
  240MOL    O5519653   1.242   5.369   6.669  0.0465 -0.2515 -0.3528
  240MOL    H5619654   1.348   5.261   6.812 -0.3425  0.7312  0.0150
  240MOL    H5719655   1.438   5.333   6.682  1.3896  2.1746  1.0116
  240MOL    C5819656   1.256   5.479   6.578 -0.1007 -0.5296  0.2423
  240MOL    O5919657   1.355   5.457   6.478  0.4038  0.4377 -0.5893
  240MOL    H6019658   1.275   5.570   6.636 -1.0204 -0.5945  0.6584
  240MOL    H6119659   1.159   5.489   6.528  0.3620 -0.0607 -0.5882
  240MOL    C6219660   1.301   5.445   6.351  0.3914  0.1547  0.1386
  240MOL    O6319661   1.388   5.416   6.246  0.2205  0.0560  0.1782
  240MOL    H6419662   1.246   5.536   6.324  0.6171 -0.4132 -2.3863
  240MOL    H6519663   1.226   5.365   6.355  2.8704 -2.2085  0.5828
  240MOL    C6619664   1.417   5.284   6.257 -0.5593 -0.5861  0.2289
  240MOL    O6719665   1.307   5.202   6.216  0.1874 -0.0267  0.0240
  240MOL    H6819666   1.463   5.268   6.354 -0.0535 -1.3943 -0.1424
  240MOL    H6919667   1.497   5.267   6.185 -0.3156 -2.0243  0.8399
  240MOL    C7019668   1.271   5.217   6.082  0.1797  0.7924  0.2137
  240MOL    O7119669   1.369   5.167   5.995 -0.3167 -0.1827  0.2928
  240MOL    H7219670   1.252   5.323   6.063  0.2166  0.7450 -0.0825
  240MOL    H7319671   1.179   5.160   6.075  0.9028 -0.5837  1.6235
  240MOL    C7419672   1.363   5.026   5.969 -0.0916 -0.4818 -0.4313
  240MOL    O7519673   1.242   5.011   5.909  0.0109  0.1539  0.2703
  240MOL    H7619674   1.354   4.981   6.068  2.1877 -1.5291 -0.6658
  240MOL    H7719675   1.451   4.992   5.914  0.5739 -0.5520  0.6446
  240MOL    C7819676   1.240   5.050   5.777  0.3870 -0.0216 -0.2932
  240MOL    O7919677   1.125   5.000   5.717  0.3071  0.1094 -0.5930
  240MOL    H8019678   1.327   5.018   5.719 -0.3927 -0.8383 -1.0315
  240MOL    H8119679   1.237   5.158   5.767  1.1264 -0.1165 -1.6647
  240MOL    H8219680   1.057   5.050   5.760  1.2135  0.0576  0.9619
  241MOL     C119681   3.860   1.459   1.454  0.6089 -0.1541  0.1460
  241MOL     O219682   3.879   1.528   1.576  0.3522  0.7368 -1.0056
  241MOL     H319683   3.760   1.416   1.447  0.8693 -0.8166  0.4505
  241MOL     H419684   3.872   1.535   1.377 -2.5139  2.0065  1.6593
  241MOL     H519685   3.940   1.386   1.443  1.1376  0.6428 -1.4131
  241MOL     C619686   3.765   1.585   1.639 -0.2223 -0.5442  0.1826
  241MOL     O719687   3.796   1.640   1.766  0.2509 -0.4229 -0.0056
  241MOL     H819688   3.694   1.503   1.648  1.3416 -2.2743 -2.6687
  241MOL     H919689   3.720   1.655   1.569  2.3191 -0.0635 -1.0218
  241MOL    C1019690   3.860   1.763   1.755 -0.0789  0.0378  0.3110
  241MOL    O1119691   3.781   1.862   1.699 -0.5016  0.7518  0.5348
  241MOL    H1219692   3.947   1.745   1.691 -0.8873  2.2858 -1.5150
  241MOL    H1319693   3.902   1.791   1.851 -0.8895  2.2884  0.0226
  241MOL    C1419694   3.666   1.880   1.779 -0.2161  0.3527  0.1242
  241MOL    O1519695   3.595   1.994   1.736  0.2938 -0.8034  0.3588
  241MOL    H1619696   3.690   1.901   1.883  1.9938 -0.2660 -0.2522
  241MOL    H1719697   3.597   1.795   1.777  1.0181 -0.6651  0.6016
  241MOL    C1819698   3.491   1.968   1.651  0.5987 -0.7373 -0.4692
  241MOL    O1919699   3.400   1.878   1.700  0.7344  0.2586  0.1560
  241MOL    H2019700   3.522   1.919   1.558  0.5198 -0.3138 -0.7222
  241MOL    H2119701   3.458   2.066   1.615  3.1002 -0.5202 -2.3729
  241MOL    C2219702   3.318   1.923   1.805 -1.3230  0.1663  0.2076
  241MOL    O2319703   3.217   2.009   1.773  0.1309  0.0613  0.6810
  241MOL    H2419704   3.374   1.980   1.879  1.0495 -1.0631 -0.5795
  241MOL    H2519705   3.267   1.840   1.854 -3.4034  1.2516 -0.0479
  241MOL    C2619706   3.120   1.959   1.686 -0.1740  0.3095 -0.0072
  241MOL    O2719707   3.018   1.885   1.753  0.5184  0.5792  0.4255
  241MOL    H2819708   3.158   1.892   1.609 -0.4875 -0.6082  0.6267
  241MOL    H2919709   3.069   2.036   1.628  0.5316  0.2654 -0.6884
  241MOL    C3019710   2.940   1.963   1.839  0.2230 -0.3007 -1.2757
  241MOL    O3119711   2.858   2.044   1.771 -0.2379  0.6248  0.0043
  241MOL    H3219712   2.998   2.038   1.894  1.0102 -0.4545 -1.8889
  241MOL    H3319713   2.894   1.900   1.915 -0.4111  3.5952  1.7823
  241MOL    C3419714   2.745   1.983   1.732  0.6303 -0.0996 -0.4327
  241MOL    O3519715   2.667   1.965   1.848 -0.6315  0.0405  0.0987
  241MOL    H3619716   2.768   1.880   1.706 -0.2731 -0.8666  1.6238
  241MOL    H3719717   2.695   2.035   1.651  0.3127 -1.7772 -1.3267
  241MOL    C3819718   2.618   2.083   1.903  0.2814  0.7371 -0.1791
  241MOL    O3919719   2.507   2.128   1.838 -0.2732 -0.2109 -0.0380
  241MOL    H4019720   2.696   2.158   1.917  0.3007  0.4892  1.1392
  241MOL    H4119721   2.588   2.046   2.001 -0.5691 -1.1209 -1.1270
  241MOL    C4219722   2.466   2.248   1.897  0.4768  0.3545 -0.1838
  241MOL    O4319723   2.542   2.355   1.856 -0.0450  0.5300 -0.6869
  241MOL    H4419724   2.474   2.232   2.005  0.2960  0.2638 -0.1824
  241MOL    H4519725   2.359   2.257   1.878 -0.4377 -1.2148  3.5655
  241MOL    C4619726   2.502   2.403   1.734 -0.0669  0.2396  0.7303
  241MOL    O4719727   2.377   2.447   1.725 -0.0056 -0.0723 -0.0538
  241MOL    H4819728   2.525   2.320   1.666 -0.8480 -1.3483  2.3487
  241MOL    H4919729   2.577   2.475   1.703 -1.5622  2.1789  1.5515
  241MOL    C5019730   2.353   2.563   1.798 -0.1608 -0.2046 -0.0207
  241MOL    O5119731   2.385   2.680   1.717 -0.2220  0.2400  0.4065
  241MOL    H5219732   2.406   2.570   1.892  1.4797 -2.1985 -0.7664
  241MOL    H5319733   2.248   2.559   1.827 -0.3040  0.4900 -0.4342
  241MOL    C5419734   2.312   2.795   1.762  0.4996  0.1647 -0.2026
  241MOL    O5519735   2.353   2.845   1.889 -0.5404  0.4935  0.3780
  241MOL    H5619736   2.208   2.764   1.771  0.4941  0.1257 -0.3903
  241MOL    H5719737   2.320   2.865   1.679 -1.9114  0.5918 -0.1055
  241MOL    C5819738   2.470   2.916   1.889 -0.0236 -1.0610  0.5712
  241MOL    O5919739   2.449   3.027   1.815 -0.6664  0.4307  0.2415
  241MOL    H6019740   2.547   2.846   1.856  0.9563 -0.6895  2.0288
  241MOL    H6119741   2.481   2.956   1.990 -0.8237  0.6165  0.0116
  241MOL    C6219742   2.564   3.091   1.785 -0.6590 -0.4883 -0.5793
  241MOL    O6319743   2.629   3.149   1.892  0.9006 -0.0390  0.1091
  241MOL    H6419744   2.537   3.169   1.714  0.9060 -0.8217 -1.5679
  241MOL    H6519745   2.629   3.022   1.732  0.2765 -1.2739  1.5230
  241MOL    C6619746   2.755   3.212   1.861  1.2198  0.0649 -0.2701
  241MOL    O6719747   2.853   3.121   1.830 -0.1285  0.1679  0.5742
  241MOL    H6819748   2.792   3.267   1.948 -0.3598 -3.6033  2.9312
  241MOL    H6919749   2.746   3.282   1.778  1.9274  2.0008  1.2463
  241MOL    C7019750   2.888   3.043   1.939  0.4678  0.4377  0.6695
  241MOL    O7119751   2.972   3.117   2.022  0.2425  0.0456 -0.0270
  241MOL    H7219752   2.931   2.952   1.897  0.7196 -0.2811  2.4297
  241MOL    H7319753   2.798   3.013   1.992 -0.8342  0.0986 -1.6610
  241MOL    C7419754   3.111   3.088   1.996  0.3075 -0.0733 -0.2299
  241MOL    O7519755   3.138   2.945   1.992 -0.3904 -0.3292  0.0769
  241MOL    H7619756   3.175   3.138   2.069  0.0628 -0.0169 -0.0534
  241MOL    H7719757   3.138   3.116   1.894 -0.3687 -1.0228 -0.6813
  241MOL    C7819758   3.130   2.889   2.117 -0.4030  0.7198 -0.3691
  241MOL    O7919759   3.149   2.746   2.107 -0.4221 -0.0058 -0.2722
  241MOL    H8019760   3.036   2.911   2.168  0.7536 -0.5684  2.4692
  241MOL    H8119761   3.206   2.926   2.186  0.4036 -2.2559  0.4166
  241MOL    H8219762   3.241   2.735   2.124 -0.6636  1.5651  2.3393
  242MOL     C119763   6.185   0.961   1.587  0.2641 -0.5657  0.7061
  242MOL     O219764   6.179   1.079   1.663  0.2924  0.1352  0.5165
  242MOL     H319765   6.122   0.887   1.635 -2.3564  1.7857  1.0059
  242MOL     H419766   6.167   0.982   1.482  0.0264  0.1780  0.8876
  242MOL     H519767   6.291   0.935   1.582  0.7556  1.5031 -0.6044
  242MOL     C619768   6.081   1.174   1.627 -0.3825 -0.3159 -0.2575
  242MOL     O719769   6.097   1.222   1.503 -0.5901 -0.2795  0.6386
  242MOL     H819770   6.091   1.259   1.695  1.0046 -0.1619 -0.6519
  242MOL     H919771   5.985   1.125   1.646  0.2238 -0.5396  2.5600
  242MOL    C1019772   6.213   1.304   1.482 -0.0129 -0.2930 -0.4156
  242MOL    O1119773   6.206   1.395   1.376 -0.1354 -0.1721  0.3640
  242MOL    H1219774   6.295   1.234   1.470  0.3947 -0.3587  2.4093
  242MOL    H1319775   6.229   1.370   1.568 -1.1103 -2.3298  1.4028
  242MOL    C1419776   6.174   1.338   1.258  0.3100  0.1675 -0.2429
  242MOL    O1519777   6.266   1.244   1.220  0.5107  0.1317 -0.2373
  242MOL    H1619778   6.166   1.417   1.184  1.0415  1.8613  1.4503
  242MOL    H1719779   6.075   1.296   1.273  0.7593 -0.6617  0.4758
  242MOL    C1819780   6.220   1.172   1.111  0.1954  0.8765  0.2110
  242MOL    O1919781   6.240   1.252   1.001 -0.4449  0.2799 -0.7555
  242MOL    H2019782   6.118   1.138   1.131  0.0911  1.0340 -0.0587
  242MOL    H2119783   6.288   1.088   1.096  0.1873  0.5182  2.0136
  242MOL    C2219784   6.205   1.196   0.881  0.7354 -0.6169  0.7286
  242MOL    O2319785   6.289   1.092   0.837 -0.1614  0.5422  0.3279
  242MOL    H2419786   6.202   1.276   0.807  2.7129 -1.0375  0.1624
  242MOL    H2519787   6.102   1.162   0.887  0.9771 -1.5541 -0.4399
  242MOL    C2619788   6.407   1.132   0.768 -0.0328  0.0653 -0.1311
  242MOL    O2719789   6.382   1.154   0.633 -0.5404  0.1418 -0.6050
  242MOL    H2819790   6.473   1.047   0.785 -2.2485 -1.0616  3.3741
  242MOL    H2919791   6.450   1.220   0.816  1.0994  0.0766 -1.1393
  242MOL    C3019792   6.400   1.039   0.550 -0.6930  0.5541  0.8911
  242MOL    O3119793   6.534   1.006   0.525  0.2474  0.4711 -0.0094
  242MOL    H3219794   6.349   1.055   0.455  0.5800  0.5126  0.1962
  242MOL    H3319795   6.349   0.953   0.594  2.0734 -1.1133  0.9553
  242MOL    C3419796   6.601   1.101   0.456 -0.4459 -0.1623  0.3490
  242MOL    O3519797   6.567   1.101   0.317 -0.3020  0.5323  0.2294
  242MOL    H3619798   6.704   1.075   0.478 -0.2653  1.1156  1.0362
  242MOL    H3719799   6.587   1.203   0.492  2.6404  0.1292  0.8696
  242MOL    C3819800   6.635   1.018   0.240 -0.1168  0.2685  0.3744
  242MOL    O3919801   6.768   1.066   0.228 -0.5828  0.3928  0.0494
  242MOL    H4019802   6.593   1.023   0.139 -0.0120  1.9549  0.4001
  242MOL    H4119803   6.638   0.913   0.270  1.1198  0.6309  1.5599
  242MOL    C4219804   6.791   1.182   0.154 -0.8161  0.1054  0.8452
  242MOL    O4319805   6.778   1.153   0.014  0.1881 -0.0749  0.4444
  242MOL    H4419806   6.893   1.221   0.164  0.1270 -1.6456 -1.5342
  242MOL    H4519807   6.715   1.256   0.178  0.4030  1.7151 -0.1194
  242MOL    C4619808   6.879   1.070   7.741  0.0869 -0.3338  0.8287
  242MOL    O4719809   7.004   1.135   7.732 -0.0394  0.2048 -0.5895
  242MOL    H4819810   6.847   1.037   7.642 -1.2358 -0.6506  1.3561
  242MOL    H4919811   6.893   0.983   0.021 -0.0908 -1.0229 -0.0633
  242MOL    C5019812   7.105   1.076   0.032 -0.0043 -0.9302 -0.0894
  242MOL    O5119813   7.139   0.947   7.779  0.0993  0.3725  0.2856
  242MOL    H5219814   7.063   1.088   0.132 -0.4875 -1.2784 -0.2490
  242MOL    H5319815   7.196   1.136   0.033 -0.7192  0.1813  2.0388
  242MOL    C5419816   7.185   0.872   0.109 -0.2684  0.0415 -0.1391
  242MOL    O5519817   7.316   0.908   0.150 -0.0940 -0.2333 -0.8752
  242MOL    H5619818   7.172   0.765   0.097  1.1013 -0.2119  0.5719
  242MOL    H5719819   7.117   0.901   0.190 -1.3737 -1.8249 -0.3857
  242MOL    C5819820   7.417   0.836   0.078 -0.8017  0.0111  0.2525
  242MOL    O5919821   7.437   0.711   0.135 -0.2911  0.6281 -0.7952
  242MOL    H6019822   7.503   0.904   0.080  0.0352 -1.0336  0.0718
  242MOL    H6119823   7.397   0.831   7.755 -1.1350  1.6774  0.2278
  242MOL    C6219824   7.506   0.620   0.051  0.1284 -0.8769  0.0296
  242MOL    O6319825   7.439   0.582   7.721  0.6586  0.1497  0.0766
  242MOL    H6419826   7.508   0.536   0.120 -1.1256 -1.5403 -0.7119
  242MOL    H6519827   7.605   0.654   0.021  0.4148 -0.7082  1.1712
  242MOL    C6619828   7.326   0.500   7.731  0.4970 -0.0376 -0.4325
  242MOL    O6719829   7.348   0.365   7.710  0.1246  0.1376 -0.4896
  242MOL    H6819830   7.266   0.537   7.648  2.6414  0.4958 -1.7843
  242MOL    H6919831   7.269   0.511   0.040  1.0728 -1.2022  0.0737
  242MOL    C7019832   7.239   0.282   7.721  0.4805  0.0751 -0.0524
  242MOL    O7119833   7.185   0.270   0.063 -0.4656  0.5034 -0.4012
  242MOL    H7219834   7.265   0.185   7.680  2.9249  1.0968 -0.9789
  242MOL    H7319835   7.168   0.328   7.652 -0.2709 -0.9956  0.0063
  242MOL    C7419836   7.267   0.223   0.168  0.4012  0.5325 -0.0261
  242MOL    O7519837   7.295   0.081   0.153  0.0401  0.4879  0.3289
  242MOL    H7619838   7.206   0.236   0.258  0.7294 -2.7204  0.7186
  242MOL    H7719839   7.358   0.282   0.166  0.9872 -0.3726 -0.3840
  242MOL    C7819840   7.179   0.004   0.159 -1.0355 -0.5922 -0.1942
  242MOL    O7919841   7.214   7.650   0.133  0.2557  0.3366  0.5279
  242MOL    H8019842   7.116   0.039   0.077  3.1919  0.3125 -3.2182
  242MOL    H8119843   7.123   0.019   0.251  0.8086 -0.4825  0.9294
  242MOL    H8219844   7.278   7.625   0.198 -1.1892 -1.5490  1.2685
  243MOL     C119845   1.893   4.599   1.740 -0.0853 -0.5007 -0.7036
  243MOL     O219846   1.960   4.521   1.842  0.9028 -0.2283  0.1868
  243MOL     H319847   1.962   4.642   1.667  1.5336 -1.4078  0.2619
  243MOL     H419848   1.836   4.525   1.684 -1.3868 -1.8948  2.3721
  243MOL     H519849   1.827   4.674   1.784  1.9023  1.4728 -0.9824
  243MOL     C619850   2.034   4.591   1.934  1.0153 -0.3501 -0.4789
  243MOL     O719851   2.122   4.687   1.878 -0.0337  0.4073 -0.1957
  243MOL     H819852   2.103   4.524   1.987 -0.2627  0.2812  2.0767
  243MOL     H919853   1.973   4.654   1.999 -0.2483  0.5980 -2.5655
  243MOL    C1019854   2.210   4.621   1.794 -0.4179 -0.3974 -0.0915
  243MOL    O1119855   2.331   4.599   1.863 -0.7444  0.3113  0.4397
  243MOL    H1219856   2.226   4.682   1.705  1.5232 -0.9829 -0.1620
  243MOL    H1319857   2.173   4.527   1.754  1.2547 -1.2603  0.3729
  243MOL    C1419858   2.398   4.723   1.884 -0.2194 -0.0460  0.9133
  243MOL    O1519859   2.471   4.759   1.761 -0.2884  0.7136  0.0349
  243MOL    H1619860   2.475   4.704   1.958 -0.0091 -1.4604  0.3493
  243MOL    H1719861   2.329   4.796   1.926  1.4301  2.8637 -1.2004
  243MOL    C1819862   2.582   4.679   1.730 -0.5045 -0.8250 -0.0799
  243MOL    O1919863   2.695   4.687   1.815  0.7107 -0.5113 -0.4344
  243MOL    H2019864   2.607   4.712   1.629 -1.2903  0.1908  0.0421
  243MOL    H2119865   2.536   4.582   1.714 -1.3636 -0.8195  2.2282
  243MOL    C2219866   2.723   4.819   1.850 -0.1671 -0.5851  0.2090
  243MOL    O2319867   2.767   4.895   1.747 -0.1734  0.1116  0.5480
  243MOL    H2419868   2.802   4.816   1.925  0.6607 -0.7533 -0.6603
  243MOL    H2519869   2.637   4.868   1.896 -0.1556 -2.1758  1.9834
  243MOL    C2619870   2.691   5.003   1.707 -0.1168  0.1753  0.2461
  243MOL    O2719871   2.702   5.108   1.793 -0.3145 -0.3592 -0.5772
  243MOL    H2819872   2.586   4.976   1.692  0.3474 -1.4487 -0.1053
  243MOL    H2919873   2.714   5.037   1.606 -1.1104  0.5027  0.1209
  243MOL    C3019874   2.833   5.154   1.812  0.5218 -0.3768 -0.0012
  243MOL    O3119875   2.840   5.266   1.893  0.7185 -0.0245  0.1710
  243MOL    H3219876   2.877   5.177   1.714 -0.2450 -0.8157 -0.4547
  243MOL    H3319877   2.894   5.078   1.860 -0.1872  0.8702  2.9322
  243MOL    C3419878   2.784   5.239   2.018 -0.2364 -0.9475  0.7119
  243MOL    O3519879   2.858   5.154   2.102  0.0740  0.1705  0.0765
  243MOL    H3619880   2.688   5.188   2.008 -0.4875 -0.4201  0.4567
  243MOL    H3719881   2.770   5.333   2.071  1.4908  0.4726 -1.2456
  243MOL    C3819882   2.978   5.214   2.140 -0.9317 -0.3557 -0.0458
  243MOL    O3919883   3.040   5.125   2.228  0.4988  0.2736  0.3866
  243MOL    H4019884   2.948   5.301   2.198 -1.4906 -0.2405 -0.5033
  243MOL    H4119885   3.045   5.237   2.056 -0.4525 -3.6002 -0.6161
  243MOL    C4219886   3.109   5.026   2.157  0.3159  0.5263  0.3631
  243MOL    O4319887   3.179   4.945   2.242 -0.7106  0.2548 -0.2525
  243MOL    H4419888   3.174   5.070   2.081  0.0855  0.7055  0.2687
  243MOL    H4519889   3.037   4.964   2.103  0.8269 -0.1301  0.4291
  243MOL    C4619890   3.095   4.861   2.321 -0.4717  0.3231 -0.1426
  243MOL    O4719891   3.168   4.772   2.400 -0.0465 -0.4260 -0.0317
  243MOL    H4819892   3.034   4.790   2.266 -1.3326  0.4864  0.5862
  243MOL    H4919893   3.026   4.907   2.392  2.1644  2.1185  1.3364
  243MOL    C5019894   3.215   4.828   2.513 -0.3896  0.3916 -0.2997
  243MOL    O5119895   3.284   4.735   2.586 -0.1940  0.6449  0.2886
  243MOL    H5219896   3.139   4.876   2.573 -0.5934  1.7282 -1.6108
  243MOL    H5319897   3.281   4.908   2.481 -0.2976  0.4911  0.1393
  243MOL    C5419898   3.325   4.787   2.709  0.1160 -0.7573  0.1624
  243MOL    O5519899   3.214   4.828   2.785 -0.2518  0.5738  0.0274
  243MOL    H5619900   3.394   4.870   2.691 -0.7484 -0.1067 -0.2135
  243MOL    H5719901   3.396   4.717   2.752  1.8911  2.1932  2.2379
  243MOL    C5819902   3.135   4.721   2.830 -0.0782 -0.3607  0.3911
  243MOL    O5919903   3.219   4.639   2.902 -0.1380  0.1049 -0.0100
  243MOL    H6019904   3.092   4.682   2.738 -1.6164  1.2670  0.4027
  243MOL    H6119905   3.062   4.755   2.903  0.7431  0.1963  0.9650
  243MOL    C6219906   3.167   4.507   2.905  0.2007  0.0373 -0.3380
  243MOL    O6319907   3.073   4.488   3.002  0.1866 -0.2960  1.0062
  243MOL    H6419908   3.249   4.445   2.941  1.1847  0.6862 -1.4302
  243MOL    H6519909   3.121   4.479   2.810 -0.3032  1.1484 -0.4354
  243MOL    C6619910   3.115   4.457   3.136 -0.4721  0.3229  0.2946
  243MOL    O6719911   3.188   4.570   3.196 -0.0125  0.5630  0.1240
  243MOL    H6819912   3.184   4.374   3.123  1.0313  1.6159 -0.1099
  243MOL    H6919913   3.040   4.424   3.208  0.9870 -0.1223  1.6495
  243MOL    C7019914   3.103   4.676   3.238  0.2116 -0.1184 -0.2773
  243MOL    O7119915   3.039   4.648   3.361 -0.0453  0.0475  0.0091
  243MOL    H7219916   3.037   4.710   3.159 -0.6728 -1.3891 -0.1045
  243MOL    H7319917   3.179   4.754   3.242 -1.5476  1.6210  0.4183
  243MOL    C7419918   3.129   4.609   3.465 -0.3740 -0.0854  1.0948
  243MOL    O7519919   3.243   4.695   3.476 -0.5347 -0.6054 -0.0095
  243MOL    H7619920   3.170   4.510   3.442 -3.3291 -0.9016 -0.8932
  243MOL    H7719921   3.069   4.598   3.555  0.2360  1.0141  1.6521
  243MOL    C7819922   3.220   4.805   3.559  0.5535  0.0742  0.3373
  243MOL    O7919923   3.342   4.866   3.592  0.7372  0.0078 -0.2344
  243MOL    H8019924   3.183   4.770   3.655  2.7927  0.5608  1.4087
  243MOL    H8119925   3.149   4.874   3.513  2.5627  1.0108 -1.4305
  243MOL    H8219926   3.362   4.895   3.504  0.3130 -0.4718 -0.4907
  244MOL     C119927   1.341   1.947   1.995  0.6249  0.4246 -0.3266
  244MOL     O219928   1.460   1.879   1.964  0.0656 -0.0984  0.1697
  244MOL     H319929   1.255   1.880   2.000 -0.0294  1.3645  1.6179
  244MOL     H419930   1.366   1.994   2.090  1.6510  0.3098 -0.5296
  244MOL     H519931   1.317   2.033   1.933 -2.5696 -0.4238 -0.3431
  244MOL     C619932   1.461   1.754   2.018  0.0535 -1.0616  0.4429
  244MOL     O719933   1.390   1.656   1.942 -0.4618  0.3139 -0.7237
  244MOL     H819934   1.430   1.761   2.122  0.0074  2.1030  0.2760
  244MOL     H919935   1.569   1.744   2.006 -0.1215  0.8281 -4.0006
  244MOL    C1019936   1.443   1.628   1.813  0.0740  0.2756 -0.0499
  244MOL    O1119937   1.564   1.562   1.824 -0.3853 -0.3526 -0.1845
  244MOL    H1219938   1.458   1.719   1.755 -0.2417  0.8394  0.7479
  244MOL    H1319939   1.371   1.565   1.761  1.5456 -0.7427 -0.8828
  244MOL    C1419940   1.558   1.440   1.888  0.2525  0.1799 -0.2649
  244MOL    O1519941   1.487   1.344   1.823  0.5844 -0.1083  0.5295
  244MOL    H1619942   1.525   1.451   1.992  2.0329  1.4781  0.1879
  244MOL    H1719943   1.661   1.404   1.895 -0.3025 -1.5689 -0.8905
  244MOL    C1819944   1.524   1.213   1.861 -0.3472  0.4426 -0.1613
  244MOL    O1919945   1.652   1.172   1.801  0.6776 -0.1974  0.1053
  244MOL    H2019946   1.452   1.135   1.839 -1.0295  0.8443  0.6209
  244MOL    H2119947   1.539   1.199   1.968  0.8124  0.2878 -0.3427
  244MOL    C2219948   1.650   1.180   1.664 -0.5929 -0.2034  0.8807
  244MOL    O2319949   1.543   1.111   1.607 -0.4298 -0.6242 -0.1631
  244MOL    H2419950   1.746   1.150   1.623 -0.1728  0.9704  0.9873
  244MOL    H2519951   1.640   1.285   1.637 -1.5442 -0.5588 -0.1627
  244MOL    C2619952   1.552   1.107   1.468 -0.0041  0.4194  0.0140
  244MOL    O2719953   1.441   1.058   1.405 -0.1805  0.2716  0.1970
  244MOL    H2819954   1.643   1.061   1.431  0.6670  0.1399  1.9824
  244MOL    H2919955   1.559   1.211   1.436  1.7986 -0.2700 -1.9268
  244MOL    C3019956   1.457   1.031   1.273  0.8705 -0.0062  0.1163
  244MOL    O3119957   1.546   0.929   1.250  0.7506 -0.2237  0.0623
  244MOL    H3219958   1.477   1.115   1.205  0.7147 -0.3502 -0.3592
  244MOL    H3319959   1.355   0.999   1.253  1.4869 -2.6948  1.1792
  244MOL    C3419960   1.539   0.869   1.129 -0.2415 -0.4118 -0.4987
  244MOL    O3519961   1.438   0.783   1.131 -0.6444  0.4644  0.4403
  244MOL    H3619962   1.636   0.823   1.108 -0.1612 -0.0702 -0.8884
  244MOL    H3719963   1.525   0.942   1.049  0.3176 -1.5740 -1.6721
  244MOL    C3819964   1.422   0.720   1.011 -0.3933 -0.0230 -0.5315
  244MOL    O3919965   1.388   0.812   0.908  0.2834 -0.4889 -0.5122
  244MOL    H4019966   1.351   0.637   1.007 -1.8892  1.2044  0.2424
  244MOL    H4119967   1.516   0.675   0.978  0.7139  1.2921  0.7543
  244MOL    C4219968   1.274   0.877   0.926 -0.1671  0.0741 -0.1441
  244MOL    O4319969   1.170   0.795   0.888 -0.2941 -0.9225  0.6758
  244MOL    H4419970   1.270   0.971   0.871 -0.7435  0.6743  0.9028
  244MOL    H4519971   1.258   0.919   1.025  1.4584 -2.6626  1.3557
  244MOL    C4619972   1.149   0.795   0.754  0.3451 -0.4164 -0.1807
  244MOL    O4719973   1.074   0.898   0.711  0.1051  0.0007 -1.0364
  244MOL    H4819974   1.101   0.698   0.745 -0.2167 -0.1947  0.3788
  244MOL    H4919975   1.243   0.791   0.700 -0.1140 -1.2466 -0.9329
  244MOL    C5019976   0.942   0.875   0.733  0.0814 -0.1267  0.0905
  244MOL    O5119977   0.888   0.758   0.677 -0.0235 -0.1846  0.0189
  244MOL    H5219978   0.882   0.962   0.708  1.0790  0.3006 -0.8561
  244MOL    H5319979   0.936   0.861   0.841  1.2917 -0.3274  0.1460
  244MOL    C5419980   0.901   0.751   0.539  0.0490  0.0465  0.2655
  244MOL    O5519981   0.822   0.847   0.480  0.3192 -0.1096  0.1664
  244MOL    H5619982   0.876   0.647   0.515 -0.5744 -0.0976  1.4528
  244MOL    H5719983   1.005   0.774   0.515 -0.0238 -0.2112 -0.2961
  244MOL    C5819984   0.710   0.800   0.419  0.7178 -0.1306 -0.1345
  244MOL    O5919985   0.608   0.774   0.504 -0.1925 -0.3973 -0.7215
  244MOL    H6019986   0.739   0.708   0.367 -2.0644 -0.3641 -1.3370
  244MOL    H6119987   0.671   0.869   0.345 -0.4099 -1.4778 -0.8097
  244MOL    C6219988   0.599   0.640   0.544  0.3183 -0.8672 -0.4347
  244MOL    O6319989   0.563   0.555   0.431 -0.0786  0.1716 -0.1974
  244MOL    H6419990   0.520   0.619   0.616  1.4243 -1.3532  0.6476
  244MOL    H6519991   0.689   0.610   0.596  0.4309  1.0098  0.5204
  244MOL    C6619992   0.430   0.557   0.391 -0.6082  0.9261 -0.2709
  244MOL    O6719993   0.337   0.507   0.484  0.1647 -0.0349 -0.1491
  244MOL    H6819994   0.436   0.490   0.305  4.2245 -0.1036  0.7266
  244MOL    H6919995   0.404   0.656   0.353 -2.9597 -0.3787 -2.2141
  244MOL    C7019996   0.367   0.381   0.528 -0.0317 -0.0463 -0.5656
  244MOL    O7119997   0.283   0.326   0.631  0.3978 -0.3205 -0.1980
  244MOL    H7219998   0.471   0.372   0.557  0.0836 -0.7591 -1.1884
  244MOL    H7319999   0.357   0.311   0.445 -0.5278  1.9694 -2.2746
  244MOL    C7420000   0.306   0.396   0.748  0.7304  0.2265  0.1390
  244MOL    O7520001   0.433   0.366   0.797 -0.4217  0.5142 -0.7981
  244MOL    H7620002   0.223   0.392   0.819 -1.1286  1.6830 -1.8864
  244MOL    H7720003   0.300   0.503   0.727 -1.5670 -0.7807 -4.9227
  244MOL    C7820004   0.429   0.253   0.881  0.1058 -0.0475  0.1988
  244MOL    O7920005   0.556   0.235   0.941 -0.6799 -0.2076  0.2028
  244MOL    H8020006   0.411   0.176   0.806 -1.0752  0.2887  0.1273
  244MOL    H8120007   0.346   0.249   0.951  0.3251 -2.7711  0.3740
  244MOL    H8220008   0.621   0.232   0.873  0.6472 -1.0804  1.4956
  245MOL     C120009   0.843   4.134   5.415 -0.2201 -0.4819  0.2487
  245MOL     O220010   0.837   4.243   5.508 -0.6932  0.3559 -0.2791
  245MOL     H320011   0.850   4.181   5.317  1.4876  0.1444  0.6528
  245MOL     H420012   0.935   4.080   5.436  0.7719  1.6841  1.6477
  245MOL     H520013   0.759   4.065   5.412  0.4346 -1.2858  0.2548
  245MOL     C620014   0.935   4.339   5.488  0.2241 -0.2779 -0.1348
  245MOL     O720015   0.887   4.441   5.403 -0.1596 -0.1891 -0.4437
  245MOL     H820016   1.028   4.302   5.445  0.4628  2.1325 -1.7890
  245MOL     H920017   0.979   4.379   5.580  1.9244  1.6440 -1.7423
  245MOL    C1020018   0.793   4.526   5.472 -0.1332 -0.3414 -0.1778
  245MOL    O1120019   0.854   4.589   5.586  0.4827  0.0596 -0.1188
  245MOL    H1220020   0.715   4.458   5.506 -0.7211  1.7499  2.8565
  245MOL    H1320021   0.751   4.591   5.396  0.4632  0.3962  0.1149
  245MOL    C1420022   0.938   4.694   5.541  0.4260  0.7358 -0.6662
  245MOL    O1520023   0.872   4.817   5.515  0.3755 -0.0039  0.4386
  245MOL    H1620024   0.984   4.662   5.448  1.3807 -0.4399  0.2129
  245MOL    H1720025   1.014   4.712   5.617  0.4456 -1.3523 -0.1770
  245MOL    C1820026   0.794   4.866   5.616  0.3555  0.3011 -0.4802
  245MOL    O1920027   0.755   4.997   5.590 -0.5310 -0.7030 -0.1299
  245MOL    H2020028   0.859   4.864   5.703  0.1135 -3.4864 -0.3057
  245MOL    H2120029   0.714   4.799   5.647  2.6092 -1.8721  0.8376
  245MOL    C2220030   0.854   5.085   5.610  0.5733  0.6971 -0.1896
  245MOL    O2320031   0.894   5.111   5.735 -0.6456 -0.0576  0.3212
  245MOL    H2420032   0.820   5.179   5.567 -0.6495  0.0060 -0.7858
  245MOL    H2520033   0.944   5.063   5.552  0.7794 -0.3154  0.4869
  245MOL    C2620034   0.795   5.171   5.810 -0.6101 -0.0169  0.3571
  245MOL    O2720035   0.852   5.247   5.909  0.1670 -0.3389 -0.5201
  245MOL    H2820036   0.738   5.093   5.860 -0.3758  0.0082  0.6636
  245MOL    H2920037   0.732   5.238   5.751  0.4275 -1.8036 -2.9038
  245MOL    C3020038   0.941   5.351   5.867  0.0813  0.6561 -0.0259
  245MOL    O3120039   0.879   5.462   5.810  0.7406 -0.3531  0.4881
  245MOL    H3220040   1.010   5.314   5.791 -0.2722  2.9832 -1.5347
  245MOL    H3320041   1.007   5.385   5.947 -0.8957  0.4818  0.8689
  245MOL    C3420042   0.807   5.536   5.907  0.2046  0.3217  0.8916
  245MOL    O3520043   0.850   5.671   5.910  0.0164  0.1119 -0.3344
  245MOL    H3620044   0.807   5.482   6.002 -2.3045 -0.5796  0.4106
  245MOL    H3720045   0.699   5.528   5.899  0.4262 -0.7630 -1.4534
  245MOL    C3820046   0.973   5.686   5.976 -0.4799  0.3388 -0.6818
  245MOL    O3920047   0.973   5.645   6.109  0.1274 -0.1241  0.0168
  245MOL    H4020048   0.993   5.793   5.969 -2.3384  0.9540  2.5453
  245MOL    H4120049   1.054   5.633   5.925  0.7278  1.4539  0.0465
  245MOL    C4220050   0.906   5.727   6.199  0.2605  0.3871  0.5822
  245MOL    O4320051   0.945   5.860   6.204 -0.8969  0.0113  0.1350
  245MOL    H4420052   0.894   5.672   6.292 -1.1681 -0.2708  0.0222
  245MOL    H4520053   0.805   5.725   6.158  1.4397 -0.1685 -2.3731
  245MOL    C4620054   0.902   5.920   6.323 -0.3652 -0.6017 -0.4885
  245MOL    O4720055   0.995   5.917   6.426 -0.2821  0.2894  0.4602
  245MOL    H4820056   0.812   5.878   6.368 -0.4590  0.0654 -0.0485
  245MOL    H4920057   0.888   6.027   6.308 -2.1997 -0.5518  1.4509
  245MOL    C5020058   1.058   5.791   6.461 -0.6514 -0.3967  0.3691
  245MOL    O5120059   0.972   5.698   6.526 -0.7254 -1.0772 -0.4033
  245MOL    H5220060   1.141   5.817   6.526 -1.7892  1.9724  0.9219
  245MOL    H5320061   1.100   5.753   6.368 -4.7390  2.3453 -2.8131
  245MOL    C5420062   0.939   5.740   6.651 -0.4183  0.4452 -0.1371
  245MOL    O5520063   1.043   5.720   6.749 -0.0117  0.3325 -0.3474
  245MOL    H5620064   0.851   5.684   6.681  0.1881 -0.8867 -0.7834
  245MOL    H5720065   0.909   5.844   6.655  0.4157  0.6166  2.8763
  245MOL    C5820066   1.047   5.588   6.796 -0.4750  0.5136  0.4598
  245MOL    O5920067   0.939   5.552   6.869  0.3314  0.0765  0.0312
  245MOL    H6020068   1.147   5.572   6.837 -0.6207 -2.3120 -0.1407
  245MOL    H6120069   1.044   5.517   6.713 -0.9875 -1.5050  2.1419
  245MOL    C6220070   0.940   5.613   7.000  0.0170  0.1397 -0.6729
  245MOL    O6320071   1.036   5.545   7.080  0.1951  0.3316  0.2075
  245MOL    H6420072   0.839   5.621   7.038 -0.8175 -1.3861 -2.4571
  245MOL    H6520073   0.985   5.712   7.008  1.0588 -0.4434  0.9517
  245MOL    C6620074   0.979   5.438   7.148  0.0953  0.6112  0.2513
  245MOL    O6720075   0.870   5.472   7.224  0.7207 -0.1471  0.7120
  245MOL    H6820076   1.058   5.396   7.210 -0.0981 -0.1033  0.0157
  245MOL    H6920077   0.954   5.365   7.070  1.4772  1.9176 -1.4637
  245MOL    C7020078   0.890   5.476   7.362 -0.5899 -0.0997  0.3646
  245MOL    O7120079   0.970   5.580   7.406  0.2857 -0.3193  0.0535
  245MOL    H7220080   0.922   5.383   7.409  2.4595  0.0414 -1.3296
  245MOL    H7320081   0.790   5.476   7.407 -1.0906 -2.3385 -0.6637
  245MOL    C7420082   0.915   5.703   7.385  0.8425 -1.5068 -0.1426
  245MOL    O7520083   0.796   5.727   7.451  0.3597  0.2894  0.6778
  245MOL    H7620084   0.879   5.718   7.283  1.1792 -0.0927 -0.0674
  245MOL    H7720085   0.978   5.791   7.400 -2.3574  0.8864 -0.0758
  245MOL    C7820086   0.809   5.820   7.554 -0.2286  0.2268  0.4295
  245MOL    O7920087   0.702   5.821   7.636  0.4404  0.0278 -0.3605
  245MOL    H8020088   0.824   5.920   7.514  0.1483 -1.2676 -3.4002
  245MOL    H8120089   0.896   5.789   7.611 -0.7164 -0.4602  0.8085
  245MOL    H8220090   0.628   5.860   7.592  1.0796  3.0080  1.1157
  246MOL     C120091   0.498   3.902   5.484  0.4278 -0.4525 -0.7482
  246MOL     O220092   0.474   3.804   5.585  0.5107 -0.0032  0.1317
  246MOL     H320093   0.553   3.989   5.522  2.1510 -2.1794  0.8606
  246MOL     H420094   0.542   3.873   5.389  0.3687  0.7660 -1.1581
  246MOL     H520095   0.399   3.935   5.454  1.2103 -0.0209 -2.9562
  246MOL     C620096   0.588   3.783   5.664  0.2890 -0.5530 -0.1440
  246MOL     O720097   0.615   3.888   5.749  0.3199  0.2005  0.6563
  246MOL     H820098   0.675   3.781   5.597 -1.1940 -1.1366 -2.1071
  246MOL     H920099   0.579   3.686   5.712 -2.9407 -0.1864  0.1158
  246MOL    C1020100   0.562   3.871   5.875 -0.4434 -0.2721  0.0599
  246MOL    O1120101   0.632   3.774   5.942 -0.4186  0.0264 -0.0849
  246MOL    H1220102   0.454   3.855   5.882 -0.5922  0.2492 -1.0145
  246MOL    H1320103   0.586   3.967   5.922 -1.7756  0.1671 -0.1289
  246MOL    C1420104   0.588   3.749   6.075 -0.4270  0.2171  0.2838
  246MOL    O1520105   0.619   3.860   6.151  0.2472  0.0956  0.3144
  246MOL    H1620106   0.629   3.658   6.117  0.9903  0.0642 -1.3216
  246MOL    H1720107   0.482   3.726   6.084 -1.3851  4.1717  0.1184
  246MOL    C1820108   0.750   3.878   6.179  0.2359 -0.9384 -0.2897
  246MOL    O1920109   0.793   3.804   6.289  0.1905  0.3888  0.2427
  246MOL    H2020110   0.764   3.983   6.202 -0.6131 -1.3692  2.3854
  246MOL    H2120111   0.815   3.859   6.094 -0.6747 -0.4793 -1.0914
  246MOL    C2220112   0.740   3.847   6.411  0.0736  0.4066 -0.4379
  246MOL    O2320113   0.821   3.809   6.519  0.3681  0.3164  1.2774
  246MOL    H2420114   0.660   3.773   6.421  1.2326 -0.6303  1.4654
  246MOL    H2520115   0.702   3.949   6.417 -0.7064  0.0761  0.4505
  246MOL    C2620116   0.896   3.905   6.587  0.4152  0.0765  0.3499
  246MOL    O2720117   0.814   3.992   6.656 -0.2106  0.1281 -0.2036
  246MOL    H2820118   0.951   3.963   6.513 -1.9070  1.2730 -0.4696
  246MOL    H2920119   0.975   3.857   6.644 -1.2691 -2.9112  0.3031
  246MOL    C3020120   0.747   3.925   6.759 -0.7046  0.9584 -0.4361
  246MOL    O3120121   0.656   3.993   6.834 -0.2138  0.3382  0.2779
  246MOL    H3220122   0.810   3.867   6.827 -3.4383 -1.0285  0.5035
  246MOL    H3320123   0.684   3.850   6.711  0.9854 -0.7076 -0.1121
  246MOL    C3420124   0.714   4.091   6.915  0.1544 -0.0805  0.2747
  246MOL    O3520125   0.662   4.091   7.052 -0.5232  0.5327  0.0553
  246MOL    H3620126   0.695   4.188   6.869 -0.2312 -0.6242 -0.7297
  246MOL    H3720127   0.823   4.084   6.922 -0.0398 -2.9412  1.0288
  246MOL    C3820128   0.524   4.131   7.054  0.8719 -0.4497  0.0830
  246MOL    O3920129   0.509   4.267   7.040  0.4153 -0.5555  0.3467
  246MOL    H4020130   0.480   4.102   7.150 -0.5552  0.2668 -0.3397
  246MOL    H4120131   0.468   4.089   6.971  0.7951 -0.1794 -0.0020
  246MOL    C4220132   0.381   4.324   7.074 -0.5278 -0.2222  0.8288
  246MOL    O4320133   0.287   4.310   6.970 -0.0451 -0.3476  0.4282
  246MOL    H4420134   0.392   4.431   7.094  1.7970 -0.6937  2.3088
  246MOL    H4520135   0.344   4.281   7.168 -0.8720  0.0145  0.8045
  246MOL    C4620136   0.320   4.385   6.855  0.5825 -0.2737  0.0768
  246MOL    O4720137   0.303   4.521   6.867 -0.2049 -0.3108  0.1237
  246MOL    H4820138   0.264   4.356   6.766 -0.3874  2.5776 -0.2933
  246MOL    H4920139   0.425   4.367   6.833  1.1777  1.4715  1.4036
  246MOL    C5020140   0.169   4.558   6.875 -0.5279 -0.0726 -0.1149
  246MOL    O5120141   0.102   4.552   6.749 -0.0767 -0.6519 -0.0955
  246MOL    H5220142   0.166   4.659   6.914 -1.4150  0.2672 -1.0557
  246MOL    H5320143   0.112   4.497   6.945 -1.5367  0.5444 -0.3980
  246MOL    C5420144   0.156   4.656   6.665 -0.5239 -0.1156  0.4835
  246MOL    O5520145   0.107   4.649   6.532 -0.1365 -0.4754  0.2624
  246MOL    H5620146   0.264   4.643   6.659 -0.4784  0.6642 -0.5792
  246MOL    H5720147   0.117   4.749   6.706 -0.6055 -0.0360  0.2289
  246MOL    C5820148   0.142   4.762   6.451  0.6125 -0.2438  0.0411
  246MOL    O5920149   0.274   4.750   6.412  0.2152 -0.1834 -0.3895
  246MOL    H6020150   0.121   4.849   6.513  0.7716  0.1116 -0.4067
  246MOL    H6120151   0.070   4.767   6.369  0.3504 -1.0057  0.2209
  246MOL    C6220152   0.293   4.656   6.309 -0.1729 -0.0024  0.0647
  246MOL    O6320153   0.293   4.526   6.357 -0.1029  0.3839 -0.1141
  246MOL    H6420154   0.395   4.668   6.272  0.4260  0.8247  1.9298
  246MOL    H6520155   0.230   4.680   6.224  0.0815  0.9566  0.1481
  246MOL    C6620156   0.202   4.446   6.289  0.2893 -0.6333 -0.0748
  246MOL    O6720157   0.248   4.426   6.155  0.2758  0.3806  0.1886
  246MOL    H6820158   0.104   4.492   6.277  1.1619  0.8495 -1.5701
  246MOL    H6920159   0.184   4.363   6.357 -0.7969  0.3837  0.9146
  246MOL    C7020160   0.347   4.333   6.143  0.6730 -0.1539 -0.2209
  246MOL    O7120161   0.315   4.208   6.205 -0.0029 -0.7485 -0.0632
  246MOL    H7220162   0.441   4.371   6.183 -1.3107  1.6416  2.8348
  246MOL    H7320163   0.373   4.322   6.037  0.0134 -0.1930 -0.3823
  246MOL    C7420164   0.391   4.104   6.149  0.6114 -0.0289  0.3827
  246MOL    O7520165   0.336   4.072   6.029 -0.3949  0.0757 -0.3634
  246MOL    H7620166   0.386   4.022   6.220 -0.7320  1.6459  2.2900
  246MOL    H7720167   0.494   4.132   6.129  0.0831  2.0784  0.4852
  246MOL    C7820168   0.213   4.005   6.047 -0.2456  0.0473 -0.7353
  246MOL    O7920169   0.231   3.871   6.087  0.3451  0.2348 -0.7162
  246MOL    H8020170   0.155   4.000   5.955 -0.8497 -1.1876 -0.2842
  246MOL    H8120171   0.143   4.045   6.120  1.0472  0.5218  0.2645
  246MOL    H8220172   0.189   3.815   6.024 -1.5312  0.3031  0.4421
  247MOL     C120173   4.103   7.488   2.900 -0.2339  0.1248  0.1244
  247MOL     O220174   4.216   7.486   2.984 -1.4812 -0.3543  0.4658
  247MOL     H320175   4.114   7.431   2.808  0.5862 -2.8156  1.9516
  247MOL     H420176   4.008   7.459   2.944  0.0052  0.0713  0.6111
  247MOL     H520177   4.096   7.591   2.867 -1.7531  0.4346  1.3840
  247MOL     C620178   4.245   7.357   3.034 -0.2718  0.5253 -0.5258
  247MOL     O720179   4.376   7.347   3.082 -0.2019  0.3935  0.0909
  247MOL     H820180   4.211   7.280   2.965  0.3715 -1.9728  1.8644
  247MOL     H920181   4.191   7.355   3.129 -0.6477 -1.6478 -0.7748
  247MOL    C1020182   4.470   7.340   2.978  0.5478 -0.5403 -0.8445
  247MOL    O1120183   4.470   7.214   2.921 -0.2700 -0.2293  0.1292
  247MOL    H1220184   4.566   7.369   3.020 -0.3566  1.5058 -0.1226
  247MOL    H1320185   4.436   7.409   2.901  1.1708  0.6420 -0.0771
  247MOL    C1420186   4.541   7.208   2.798  0.1783 -0.1276  0.3288
  247MOL    O1520187   4.458   7.198   2.686  0.3751 -0.1702  0.1236
  247MOL    H1620188   4.604   7.119   2.800 -0.1692 -0.4432 -2.0432
  247MOL    H1720189   4.606   7.292   2.775 -0.0491  0.3610  1.4200
  247MOL    C1820190   4.366   7.307   2.659 -0.1070 -0.4113 -0.5987
  247MOL    O1920191   4.321   7.294   2.528 -0.4654  0.6282 -0.2068
  247MOL    H2020192   4.415   7.405   2.662  1.3438 -1.1474  0.8640
  247MOL    H2120193   4.282   7.309   2.728 -0.8790  0.7792 -1.5581
  247MOL    C2220194   4.243   7.183   2.504  0.8350  0.3584  1.1261
  247MOL    O2320195   4.121   7.194   2.582 -0.1410  0.6949 -0.2416
  247MOL    H2420196   4.300   7.094   2.531 -0.3830 -1.3366 -1.6973
  247MOL    H2520197   4.223   7.180   2.397  1.3008 -1.3719  1.0753
  247MOL    C2620198   4.023   7.262   2.509 -0.2895  0.4426 -0.9813
  247MOL    O2720199   3.964   7.176   2.421 -0.2054  0.0299  0.0465
  247MOL    H2820200   4.059   7.355   2.464 -1.1560  1.7241  0.9129
  247MOL    H2920201   3.962   7.302   2.591 -0.2323 -0.5277 -0.4646
  247MOL    C3020202   3.907   7.068   2.490 -0.2949  0.9768 -0.0127
  247MOL    O3120203   3.812   7.108   2.582  0.2677 -0.3111  0.5566
  247MOL    H3220204   3.988   7.013   2.539 -0.4833 -0.0886 -0.8857
  247MOL    H3320205   3.875   6.990   2.422 -2.5878  0.2431  1.8270
  247MOL    C3420206   3.687   7.141   2.525  0.2431  0.7717 -0.1130
  247MOL    O3520207   3.617   7.032   2.475  0.2662 -0.4798 -0.0952
  247MOL    H3620208   3.704   7.206   2.439 -0.5394  0.0904 -0.7887
  247MOL    H3720209   3.614   7.190   2.590 -0.9117 -0.3076 -0.5737
  247MOL    C3820210   3.563   6.952   2.575 -0.4570  0.1216 -0.1038
  247MOL    O3920211   3.447   7.005   2.634  0.0546 -0.3191 -0.0298
  247MOL    H4020212   3.632   6.939   2.658  0.7674  0.5973 -1.0333
  247MOL    H4120213   3.545   6.851   2.536  0.9261 -0.9477  1.9474
  247MOL    C4220214   3.338   6.989   2.545 -0.0140  0.0005  0.2378
  247MOL    O4320215   3.228   7.041   2.611 -0.0056  0.3879 -0.1793
  247MOL    H4420216   3.319   6.887   2.512  2.0454 -2.0605  4.9061
  247MOL    H4520217   3.370   7.035   2.452 -0.3391  0.3912  0.3187
  247MOL    C4620218   3.186   6.968   2.723  0.5268 -0.0803 -0.0371
  247MOL    O4720219   3.115   6.858   2.681 -0.0048 -0.0589 -0.3066
  247MOL    H4820220   3.114   7.038   2.766  2.2342  1.4544  0.3948
  247MOL    H4920221   3.266   6.945   2.793 -0.7683  0.5558  1.6820
  247MOL    C5020222   3.059   6.781   2.777 -0.2072  0.3463  0.1634
  247MOL    O5120223   2.962   6.839   2.851  0.0536 -0.0978 -0.0577
  247MOL    H5220224   3.136   6.739   2.842 -0.5848 -1.6089 -0.6175
  247MOL    H5320225   3.014   6.696   2.727  1.5499 -0.4285 -0.1541
  247MOL    C5420226   2.833   6.841   2.796 -0.6210  0.3392 -0.2599
  247MOL    O5520227   2.769   6.719   2.815 -0.6739 -0.3602 -0.0154
  247MOL    H5620228   2.846   6.871   2.692 -1.4616 -1.3599 -0.8674
  247MOL    H5720229   2.776   6.932   2.818  0.5219  1.1057 -0.3933
  247MOL    C5820230   2.628   6.727   2.796  0.0924 -0.5277 -0.1277
  247MOL    O5920231   2.596   6.756   2.667 -0.5709  0.1425 -0.6449
  247MOL    H6020232   2.590   6.806   2.861  0.8848 -0.1122 -0.1679
  247MOL    H6120233   2.580   6.635   2.830  1.5228 -0.6142  1.7438
  247MOL    C6220234   2.619   6.653   2.577 -0.5684  0.4358 -0.1642
  247MOL    O6320235   2.591   6.696   2.447 -0.0651 -0.3388  0.1312
  247MOL    H6420236   2.547   6.576   2.604 -0.9016  0.4819 -0.8936
  247MOL    H6520237   2.723   6.620   2.579 -0.7522 -0.0625  2.0452
  247MOL    C6620238   2.671   6.804   2.403  0.3384  0.6701  0.3744
  247MOL    O6720239   2.811   6.779   2.406  0.2201 -0.1903  0.4396
  247MOL    H6820240   2.652   6.894   2.462 -0.9206  0.8058 -0.2086
  247MOL    H6920241   2.633   6.830   2.304  0.3470  0.4971  0.3251
  247MOL    C7020242   2.893   6.889   2.386 -0.4717 -0.9465  0.7342
  247MOL    O7120243   2.893   6.933   2.251 -0.0373  0.5209 -0.0943
  247MOL    H7220244   2.995   6.859   2.410 -0.0863 -0.5842 -0.4082
  247MOL    H7320245   2.867   6.968   2.457  0.8316 -2.2562  2.7135
  247MOL    C7420246   2.970   7.046   2.238 -0.7509  0.4754  0.8088
  247MOL    O7520247   3.111   7.036   2.253  0.2427 -0.8356  0.0620
  247MOL    H7620248   2.935   7.120   2.310 -1.2298  0.7584  0.2802
  247MOL    H7720249   2.957   7.090   2.140  1.6600  1.3689  0.8426
  247MOL    C7820250   3.177   6.965   2.160 -0.1249  0.1120  0.9875
  247MOL    O7920251   3.313   6.954   2.191  0.0274 -0.1377 -0.0606
  247MOL    H8020252   3.174   7.007   2.060 -1.4302  0.4256  1.1432
  247MOL    H8120253   3.125   6.869   2.159  1.7709 -0.9470  1.2027
  247MOL    H8220254   3.357   7.037   2.204 -0.2594  0.1778 -1.0917
  248MOL     C120255   6.830   5.289   5.404  0.5552 -0.1262 -0.1214
  248MOL     O220256   6.955   5.330   5.370  0.7086  0.2967 -0.4242
  248MOL     H320257   6.759   5.365   5.438  0.3067 -1.1370  1.6664
  248MOL     H420258   6.784   5.260   5.309  0.5746  1.2304 -0.5522
  248MOL     H520259   6.838   5.203   5.471 -1.0267 -1.7362 -1.9052
  248MOL     C620260   7.022   5.387   5.482  0.4188  0.8294  0.2150
  248MOL     O720261   7.165   5.387   5.456 -0.1606 -0.1185  0.6610
  248MOL     H820262   6.998   5.332   5.573 -2.2093 -0.3964 -1.1823
  248MOL     H920263   6.987   5.488   5.503 -0.0392  0.9186 -0.9287
  248MOL    C1020264   7.215   5.257   5.437  0.3567  0.3382 -0.4671
  248MOL    O1120265   7.272   5.228   5.565 -0.1238  0.1377  1.3189
  248MOL    H1220266   7.297   5.260   5.366  3.2659 -1.0616  2.7017
  248MOL    H1320267   7.138   5.188   5.404 -1.9383  0.8127  3.5590
  248MOL    C1420268   7.324   5.103   5.572  0.4377  0.8703 -0.1015
  248MOL    O1520269   7.228   4.997   5.561  0.0864  0.0066  0.0398
  248MOL    H1620270   7.353   5.097   5.677  0.9761  0.7246 -0.2518
  248MOL    H1720271   7.403   5.084   5.499  1.1624  2.0259  0.3661
  248MOL    C1820272   7.109   5.017   5.638  0.0370  0.4912  0.2219
  248MOL    O1920273   7.135   5.006   5.772  0.3142  0.1859 -0.3315
  248MOL    H2020274   7.035   4.946   5.600  0.7723  1.0730 -2.3973
  248MOL    H2120275   7.059   5.108   5.605 -1.6660 -0.4217  0.2123
  248MOL    C2220276   7.185   4.877   5.809 -0.2652 -0.7794 -0.1373
  248MOL    O2320277   7.085   4.784   5.776  0.7010 -0.4457  0.5225
  248MOL    H2420278   7.208   4.883   5.916  1.4387  2.3448 -0.6125
  248MOL    H2520279   7.278   4.857   5.756 -0.3327 -0.1772 -0.4851
  248MOL    C2620280   6.981   4.774   5.876  0.0188 -0.6444 -0.3348
  248MOL    O2720281   7.032   4.730   5.998 -0.3195  0.0407  0.1549
  248MOL    H2820282   6.896   4.712   5.846 -0.9659 -1.1635  3.3206
  248MOL    H2920283   6.940   4.874   5.878  0.1295 -0.5677 -1.4226
  248MOL    C3020284   7.036   4.597   6.008  0.0976 -0.1590 -0.2738
  248MOL    O3120285   6.904   4.551   6.034  0.0459 -0.0061 -0.4296
  248MOL    H3220286   7.110   4.564   6.081 -0.2015  2.3805  1.2696
  248MOL    H3320287   7.078   4.562   5.914  0.5219 -0.0345 -0.1343
  248MOL    C3420288   6.867   4.532   6.166 -0.3398 -0.1992  0.5984
  248MOL    O3520289   6.922   4.408   6.201 -0.6112 -0.0355 -0.4587
  248MOL    H3620290   6.758   4.541   6.169 -0.5044 -2.3790  4.2374
  248MOL    H3720291   6.921   4.609   6.221  2.8363 -2.3883  0.6830
  248MOL    C3820292   6.864   4.298   6.133  1.1340  0.0072  0.9237
  248MOL    O3920293   6.735   4.277   6.168 -0.2003  0.4888  0.2349
  248MOL    H4020294   6.922   4.208   6.150  0.2847 -0.6107  0.6198
  248MOL    H4120295   6.871   4.311   6.025 -0.1799  3.6785  1.1877
  248MOL    C4220296   6.729   4.226   6.293  0.1539 -0.1221 -0.5931
  248MOL    O4320297   6.733   4.084   6.303 -0.5604  0.5640  0.3474
  248MOL    H4420298   6.635   4.274   6.320 -0.3773 -0.6511 -1.4537
  248MOL    H4520299   6.796   4.271   6.366 -2.1273  0.8409  0.9476
  248MOL    C4620300   6.627   4.013   6.248 -0.6112  0.2843 -1.4318
  248MOL    O4720301   6.507   4.034   6.311 -0.1296 -0.4317  0.3719
  248MOL    H4820302   6.659   3.909   6.259  0.7112  0.9035  1.0175
  248MOL    H4920303   6.623   4.027   6.140  1.2422  0.1976 -1.5313
  248MOL    C5020304   6.471   3.920   6.386 -0.5030  0.4124  0.1514
  248MOL    O5120305   6.430   3.818   6.302 -0.7571  1.1466 -0.0507
  248MOL    H5220306   6.403   3.942   6.468 -1.6181  0.4239 -0.7653
  248MOL    H5320307   6.558   3.885   6.441  0.2079  0.1013 -1.1435
  248MOL    C5420308   6.310   3.836   6.244 -0.4567  0.6200  0.6189
  248MOL    O5520309   6.205   3.830   6.335 -0.0825  0.2712  0.0359
  248MOL    H5620310   6.292   3.754   6.175  0.5523  0.6166  0.3542
  248MOL    H5720311   6.298   3.927   6.184 -0.0402 -1.3303 -2.5163
  248MOL    C5820312   6.176   3.705   6.385  0.8670  0.1193  0.4306
  248MOL    O5920313   6.123   3.615   6.294 -0.0767 -0.5275 -0.2148
  248MOL    H6020314   6.109   3.738   6.465 -0.1005 -0.3164 -0.1819
  248MOL    H6120315   6.261   3.667   6.441 -0.7891 -1.6613  1.8199
  248MOL    C6220316   6.001   3.660   6.236  0.1388  0.0610  0.0676
  248MOL    O6320317   5.911   3.686   6.334 -0.1256  0.2063  0.6705
  248MOL    H6420318   5.970   3.588   6.160  2.5275 -1.3078  0.3450
  248MOL    H6520319   6.026   3.741   6.167  1.4126 -1.7306 -1.6465
  248MOL    C6620320   5.797   3.757   6.271  0.5603  0.2694  0.0646
  248MOL    O6720321   5.827   3.885   6.241 -0.7582  0.2798 -0.2332
  248MOL    H6820322   5.707   3.761   6.333  1.7875  0.6048  1.8724
  248MOL    H6920323   5.751   3.700   6.191  0.1871 -1.0003  1.1681
  248MOL    C7020324   5.885   3.946   6.355 -0.0504 -0.4224  0.0396
  248MOL    O7120325   5.787   3.997   6.437 -0.1947 -0.2950 -0.6512
  248MOL    H7220326   5.962   4.012   6.314 -2.3307  2.4306  0.1462
  248MOL    H7320327   5.949   3.890   6.423  0.0613  1.5719  1.6365
  248MOL    C7420328   5.735   4.117   6.383  0.2861  0.3255 -0.5350
  248MOL    O7520329   5.830   4.213   6.379  0.2459  0.1412 -0.5401
  248MOL    H7620330   5.648   4.148   6.441 -1.7373  1.2178 -3.9402
  248MOL    H7720331   5.686   4.099   6.288 -1.7038 -0.9764  0.6987
  248MOL    C7820332   5.863   4.257   6.507 -0.9098  0.5852 -0.3857
  248MOL    O7920333   5.956   4.359   6.513 -0.1164  0.2679  0.0842
  248MOL    H8020334   5.909   4.173   6.559 -0.4669 -0.2613 -2.1050
  248MOL    H8120335   5.780   4.293   6.567 -1.2834  1.7890 -1.6025
  248MOL    H8220336   5.930   4.421   6.579 -3.0225 -0.8198  0.0248
  249MOL     C120337   4.134   4.244   2.192  0.2331  0.5316  0.4296
  249MOL     O220338   4.196   4.199   2.073 -0.3203 -0.0907 -0.7105
  249MOL     H320339   4.137   4.165   2.267 -1.9186  0.6892  0.7016
  249MOL     H420340   4.186   4.332   2.231  1.0841  0.0990  0.2979
  249MOL     H520341   4.033   4.264   2.157 -0.4535 -1.3467  1.2584
  249MOL     C620342   4.142   4.088   2.017  0.9234  0.0243 -0.3969
  249MOL     O720343   4.163   3.980   2.103 -0.1892 -0.1715  0.8771
  249MOL     H820344   4.190   4.059   1.924 -0.1483 -0.1736 -0.8914
  249MOL     H920345   4.036   4.099   1.993  0.7575 -0.7159  0.0091
  249MOL    C1020346   4.301   3.961   2.125  0.8095  0.3904 -0.6526
  249MOL    O1120347   4.335   3.839   2.189 -0.1663 -0.4409  0.1357
  249MOL    H1220348   4.354   4.038   2.180  2.3610  2.0678 -4.3161
  249MOL    H1320349   4.355   3.959   2.030  1.5568 -2.0833 -0.1949
  249MOL    C1420350   4.318   3.718   2.116 -0.5315 -0.6888 -0.3271
  249MOL    O1520351   4.423   3.710   2.026 -0.0428 -0.1261  0.0590
  249MOL    H1620352   4.221   3.701   2.070 -0.7630 -0.5847  0.1205
  249MOL    H1720353   4.322   3.639   2.191  0.4229 -1.8334 -1.5646
  249MOL    C1820354   4.450   3.581   1.988 -0.2064  0.0937 -0.0897
  249MOL    O1920355   4.514   3.519   2.089  0.1461  0.1282  0.0083
  249MOL    H2020356   4.511   3.579   1.897  0.0815 -1.6009  0.1112
  249MOL    H2120357   4.359   3.527   1.963  0.1982 -0.5714 -0.1457
  249MOL    C2220358   4.561   3.396   2.053 -0.7024 -0.0625 -0.4599
  249MOL    O2320359   4.460   3.306   2.009  0.2718 -0.2414 -0.1323
  249MOL    H2420360   4.603   3.354   2.144  0.9304 -0.9955 -1.6097
  249MOL    H2520361   4.644   3.387   1.982  0.5914  2.3534  0.6865
  249MOL    C2620362   4.367   3.277   2.107  0.2778 -0.1545 -0.1120
  249MOL    O2720363   4.285   3.175   2.064  0.0033 -0.1973  0.1960
  249MOL    H2820364   4.309   3.366   2.130  1.4210  0.5513  0.1310
  249MOL    H2920365   4.420   3.248   2.198  2.2056  2.0471 -0.4821
  249MOL    C3020366   4.354   3.057   2.052  0.2100  0.0701  0.2388
  249MOL    O3120367   4.364   2.991   2.169 -0.0512  0.1089 -0.5431
  249MOL    H3220368   4.454   3.067   2.010 -0.2596 -0.3479 -0.9955
  249MOL    H3320369   4.304   3.001   1.974  0.4715 -0.8335  0.7202
  249MOL    C3420370   4.246   2.930   2.205 -0.4286  0.5021 -0.6012
  249MOL    O3520371   4.221   2.922   2.344  0.2667  0.7170 -0.9566
  249MOL    H3620372   4.257   2.824   2.180  0.0832 -0.1087  2.0313
  249MOL    H3720373   4.157   2.974   2.160 -0.1256  1.7488 -0.0134
  249MOL    C3820374   4.175   3.040   2.391  0.4676 -0.1721  0.8965
  249MOL    O3920375   4.042   3.058   2.344 -0.1518 -0.2358  0.7103
  249MOL    H4020376   4.242   3.121   2.362  0.5850 -1.9592 -4.5888
  249MOL    H4120377   4.179   3.037   2.500 -1.5673 -1.9502  0.9474
  249MOL    C4220378   3.947   2.996   2.427  0.5443  0.0963  0.3661
  249MOL    O4320379   3.931   3.071   2.546  0.0639  0.3507  0.2043
  249MOL    H4420380   3.980   2.893   2.443  0.5282  0.1445  0.7031
  249MOL    H4520381   3.852   2.981   2.375  0.2773 -0.3111  0.9707
  249MOL    C4620382   3.842   3.175   2.529  0.4720 -0.9028  0.2577
  249MOL    O4720383   3.902   3.297   2.482  0.5409  0.4812 -0.6047
  249MOL    H4820384   3.784   3.189   2.621 -0.0865 -0.5428 -0.1484
  249MOL    H4920385   3.754   3.137   2.477 -0.2721 -0.7904  1.4176
  249MOL    C5020386   3.994   3.345   2.568 -0.0802 -0.3624 -0.1657
  249MOL    O5120387   3.931   3.387   2.686 -0.0157  0.0901 -0.0019
  249MOL    H5220388   4.040   3.433   2.523  0.5758  0.0184  1.2175
  249MOL    H5320389   4.068   3.265   2.573 -0.1242 -0.4850 -1.4862
  249MOL    C5420390   4.021   3.394   2.792 -0.4368  0.2363 -0.4779
  249MOL    O5520391   4.129   3.484   2.772  0.1969  1.0163  0.9246
  249MOL    H5620392   4.054   3.292   2.811 -0.5847  0.6132  1.8682
  249MOL    H5720393   3.975   3.418   2.887  3.7726  0.6553  1.5680
  249MOL    C5820394   4.103   3.617   2.760  0.1459  0.0431  0.8232
  249MOL    O5920395   4.121   3.683   2.873 -0.3746  0.4847 -0.0852
  249MOL    H6020396   4.003   3.639   2.724  1.0728  0.6349 -1.4578
  249MOL    H6120397   4.169   3.668   2.690  1.0007  0.4980  1.9382
  249MOL    C6220398   4.258   3.685   2.911 -0.6355  0.5445  0.1992
  249MOL    O6320399   4.298   3.756   3.028 -0.3410 -0.0288  0.5238
  249MOL    H6420400   4.332   3.703   2.833 -2.1777 -0.1834 -1.4866
  249MOL    H6520401   4.276   3.585   2.950 -1.8705  0.6415  1.0452
  249MOL    C6620402   4.288   3.884   2.997 -0.0792 -0.8966  0.3081
  249MOL    O6720403   4.403   3.932   2.927 -0.7976 -0.0434 -0.1103
  249MOL    H6820404   4.286   3.944   3.089 -3.4672 -1.1343  0.4421
  249MOL    H6920405   4.189   3.904   2.956  0.8093  0.7552 -1.0568
  249MOL    C7020406   4.527   3.926   3.005  0.5798  0.2290 -0.0520
  249MOL    O7120407   4.509   3.977   3.138  0.7835  0.2009  0.4662
  249MOL    H7220408   4.604   3.978   2.947 -1.2618  1.0448 -1.8208
  249MOL    H7320409   4.564   3.824   3.004 -2.9311 -1.1640  3.2371
  249MOL    C7420410   4.511   4.113   3.144  0.6102 -0.6568  0.7099
  249MOL    O7520411   4.612   4.177   3.077 -0.7863  0.2171  0.8102
  249MOL    H7620412   4.506   4.130   3.251  0.9743  0.8380  0.5028
  249MOL    H7720413   4.413   4.149   3.114  2.0827  0.7156 -2.6836
  249MOL    C7820414   4.614   4.311   3.107 -0.4274  0.3128  0.3982
  249MOL    O7920415   4.686   4.391   3.014  0.0776 -0.1362 -0.0429
  249MOL    H8020416   4.655   4.337   3.205 -0.9823 -2.0080  1.2701
  249MOL    H8120417   4.515   4.354   3.100  0.2736  1.9429  0.2110
  249MOL    H8220418   4.779   4.379   3.019 -0.0594 -1.4225 -0.4417
  250MOL     C120419   6.062   7.247   1.552  0.7691  0.4020  0.9062
  250MOL     O220420   5.962   7.151   1.588 -0.4203 -0.6002 -0.4249
  250MOL     H320421   6.021   7.322   1.485 -0.0747 -0.0310  0.9341
  250MOL     H420422   6.093   7.305   1.639 -0.8195 -1.2993  2.6514
  250MOL     H520423   6.147   7.196   1.507  0.9215  2.3760 -1.1236
  250MOL     C620424   5.923   7.071   1.480 -0.4460 -0.6162 -0.5541
  250MOL     O720425   6.006   6.954   1.450 -0.7779 -0.3895  0.0813
  250MOL     H820426   5.895   7.123   1.388 -2.8756 -0.1001  0.4594
  250MOL     H920427   5.827   7.023   1.497  0.3586 -2.3754 -0.7744
  250MOL    C1020428   6.029   6.885   1.567  0.1831 -0.3251  0.1679
  250MOL    O1120429   5.917   6.809   1.594  0.1532  0.0169 -0.0066
  250MOL    H1220430   6.038   6.952   1.652  1.0851  0.1819 -0.3119
  250MOL    H1320431   6.123   6.829   1.565 -0.2924 -1.2306  2.1151
  250MOL    C1420432   5.946   6.681   1.550 -0.1555  0.2215  0.2383
  250MOL    O1520433   5.987   6.666   1.420  0.2081  0.5995 -0.0678
  250MOL    H1620434   5.861   6.617   1.575  0.2078 -0.0110  0.9011
  250MOL    H1720435   6.021   6.644   1.620  0.8652  3.1568  0.7707
  250MOL    C1820436   5.886   6.662   1.323 -0.3213 -0.4157  0.4581
  250MOL    O1920437   5.833   6.533   1.308 -0.0736 -0.3868  0.7339
  250MOL    H2020438   5.944   6.687   1.234  0.3295 -3.5087 -0.0540
  250MOL    H2120439   5.800   6.723   1.352 -0.4186 -1.9829  3.7238
  250MOL    C2220440   5.927   6.432   1.286 -0.5999  0.5026  0.2378
  250MOL    O2320441   5.967   6.438   1.150  0.4577  0.5088 -1.0141
  250MOL    H2420442   5.888   6.332   1.307 -1.5076  0.5722 -0.9979
  250MOL    H2520443   6.018   6.442   1.344  0.1791  1.7061 -1.1584
  250MOL    C2620444   6.084   6.360   1.113  0.0427 -0.2609 -0.1343
  250MOL    O2720445   6.205   6.410   1.158  0.2011  0.6052  0.0256
  250MOL    H2820446   6.095   6.344   1.006 -1.7936  0.7522 -0.4879
  250MOL    H2920447   6.060   6.260   1.150  0.4630  0.0530  1.0130
  250MOL    C3020448   6.237   6.528   1.093 -0.2762  0.1831 -0.9370
  250MOL    O3120449   6.297   6.512   0.974  0.2266 -0.3092 -0.0944
  250MOL    H3220450   6.312   6.584   1.148 -2.1992  0.6732  1.2846
  250MOL    H3320451   6.149   6.591   1.080  1.4389  2.4204 -1.8949
  250MOL    C3420452   6.444   6.491   0.976  0.3872 -0.0753  0.2345
  250MOL    O3520453   6.515   6.599   1.018  0.0340 -0.7833 -0.0130
  250MOL    H3620454   6.461   6.462   0.872 -0.9351 -0.9399  0.2525
  250MOL    H3720455   6.474   6.402   1.031  2.3051 -0.4172 -1.2803
  250MOL    C3820456   6.653   6.586   0.982  0.0403 -0.0312 -0.6194
  250MOL    O3920457   6.723   6.483   1.052 -0.1553  0.0785 -0.2860
  250MOL    H4020458   6.699   6.680   1.012 -0.8780  0.5678 -1.0590
  250MOL    H4120459   6.663   6.558   0.877  3.3328  1.8259 -0.8793
  250MOL    C4220460   6.730   6.511   1.192 -0.6961  0.3125 -0.6668
  250MOL    O4320461   6.771   6.392   1.266  0.4895  0.4642  0.2679
  250MOL    H4420462   6.634   6.550   1.228 -0.0069  0.2376  1.3225
  250MOL    H4520463   6.808   6.585   1.210  0.6336 -0.9493 -1.2287
  250MOL    C4620464   6.683   6.285   1.271 -0.0852 -0.1615  0.0092
  250MOL    O4720465   6.592   6.306   1.375  0.7906  0.3079  0.3411
  250MOL    H4820466   6.748   6.197   1.275 -1.5266 -1.2623 -0.3225
  250MOL    H4920467   6.618   6.284   1.184 -0.9759 -1.4180  0.6743
  250MOL    C5020468   6.642   6.334   1.500  0.1020 -0.0114  0.6337
  250MOL    O5120469   6.712   6.222   1.554  0.4122  0.1658  0.4364
  250MOL    H5220470   6.558   6.346   1.568  0.1750  0.3210  0.6673
  250MOL    H5320471   6.709   6.420   1.499 -0.7932  0.6869  0.3668
  250MOL    C5420472   6.783   6.257   1.666  0.2438  0.0411 -0.4373
  250MOL    O5520473   6.698   6.305   1.769 -0.2356  0.2115 -0.2862
  250MOL    H5620474   6.866   6.325   1.644 -0.5552  0.7874 -1.1343
  250MOL    H5720475   6.836   6.171   1.707  0.4653  0.7788  0.8693
  250MOL    C5820476   6.620   6.206   1.832  0.0942 -0.4835  0.5333
  250MOL    O5920477   6.692   6.121   1.911 -0.0745  0.1762  0.5284
  250MOL    H6020478   6.570   6.155   1.749 -2.3677  4.3365 -1.1666
  250MOL    H6120479   6.540   6.254   1.889  0.8030  0.7872  0.4910
  250MOL    C6220480   6.740   6.176   2.026  0.3495  0.2585  0.6198
  250MOL    O6320481   6.705   6.104   2.137 -0.8289 -1.0467 -0.5692
  250MOL    H6420482   6.722   6.283   2.036 -0.3589  0.3515 -1.3875
  250MOL    H6520483   6.848   6.163   2.024 -0.0519 -3.3085  0.0765
  250MOL    C6620484   6.570   6.119   2.162 -0.2363  0.5693 -0.1050
  250MOL    O6720485   6.544   6.250   2.197  0.0139  0.3374  0.1375
  250MOL    H6820486   6.540   6.044   2.235 -1.3594  0.3207 -0.8266
  250MOL    H6920487   6.505   6.107   2.075 -0.0674  1.7973 -0.4162
  250MOL    C7020488   6.606   6.289   2.312 -0.0891 -0.7490 -0.3352
  250MOL    O7120489   6.557   6.225   2.429  0.3286  0.0566 -0.3228
  250MOL    H7220490   6.573   6.392   2.327 -1.7559 -0.9731 -2.2222
  250MOL    H7320491   6.714   6.299   2.321 -0.3233  0.6723  1.1811
  250MOL    C7420492   6.420   6.239   2.451  0.3173  0.6403 -0.1019
  250MOL    O7520493   6.393   6.198   2.581  0.1535  0.1335  0.6068
  250MOL    H7620494   6.361   6.176   2.385  0.1077 -1.9059  2.4003
  250MOL    H7720495   6.391   6.343   2.434 -2.6400 -0.1246 -0.0814
  250MOL    C7820496   6.435   6.293   2.680  0.0322  0.2650  0.3963
  250MOL    O7920497   6.404   6.248   2.808 -0.5224  0.1517  0.1487
  250MOL    H8020498   6.390   6.393   2.677  2.6139  1.4525 -0.0581
  250MOL    H8120499   6.540   6.319   2.667  0.6045 -0.8571  2.6538
  250MOL    H8220500   6.333   6.185   2.806  0.6442 -1.2249  1.0115
  251MOL     C120501   4.330   1.242   4.696 -0.3039  0.7269  0.4053
  251MOL     O220502   4.402   1.306   4.796  1.0710 -0.5010 -0.2436
  251MOL     H320503   4.401   1.204   4.623  0.8087 -2.7380  3.1975
  251MOL     H420504   4.267   1.167   4.742  0.1754  1.6536  2.6240
  251MOL     H520505   4.263   1.305   4.637 -0.8388  0.6212  0.9024
  251MOL     C620506   4.481   1.415   4.750 -0.7214 -0.2139 -0.1872
  251MOL     O720507   4.406   1.518   4.713  0.1380 -0.2576 -0.2117
  251MOL     H820508   4.550   1.380   4.673  1.3532  0.6618  1.2400
  251MOL     H920509   4.547   1.436   4.834 -2.0876 -0.6379  1.0092
  251MOL    C1020510   4.405   1.624   4.801 -0.1887 -0.5881  0.1680
  251MOL    O1120511   4.523   1.691   4.792 -0.5576 -0.0844 -0.3575
  251MOL    H1220512   4.388   1.588   4.903  0.5567 -0.1200  0.4648
  251MOL    H1320513   4.313   1.678   4.783 -1.0009 -0.5312  3.9722
  251MOL    C1420514   4.533   1.793   4.688 -0.0764 -0.7115  0.0927
  251MOL    O1520515   4.534   1.737   4.563  0.0233 -0.0810 -0.0076
  251MOL    H1620516   4.627   1.846   4.700 -1.1828  1.1105  1.0307
  251MOL    H1720517   4.451   1.864   4.704 -1.4677 -2.5177  1.1858
  251MOL    C1820518   4.654   1.665   4.536  0.0334  0.1013 -0.1967
  251MOL    O1920519   4.772   1.736   4.500 -0.6466  0.6455 -0.2036
  251MOL    H2020520   4.629   1.589   4.461 -1.4840  0.6548 -0.2519
  251MOL    H2120521   4.673   1.611   4.629  0.5721  0.7517  0.0707
  251MOL    C2220522   4.769   1.790   4.377 -0.6739  0.1225  0.3110
  251MOL    O2320523   4.751   1.689   4.282  0.1759  0.6684 -0.0241
  251MOL    H2420524   4.865   1.835   4.352 -0.1005 -1.7733 -1.0600
  251MOL    H2520525   4.693   1.864   4.350 -1.1726 -0.6234 -0.3629
  251MOL    C2620526   4.863   1.611   4.264 -0.4908  0.1251 -0.1531
  251MOL    O2720527   4.854   1.502   4.173  0.1028  0.3441  0.0351
  251MOL    H2820528   4.884   1.572   4.363  2.7793 -1.1285 -1.2964
  251MOL    H2920529   4.946   1.677   4.241  1.1183 -1.1804  1.7965
  251MOL    C3020530   4.775   1.398   4.226 -0.0879 -0.0596 -0.4305
  251MOL    O3120531   4.818   1.333   4.339  0.3203  0.2247  0.3842
  251MOL    H3220532   4.738   1.318   4.162  0.9445 -1.9144  1.2590
  251MOL    H3320533   4.685   1.444   4.267 -0.3744 -0.9189 -0.0939
  251MOL    C3420534   4.944   1.275   4.327 -0.4685  0.3055  0.0951
  251MOL    O3520535   4.965   1.188   4.222  0.0942 -0.5695  0.4851
  251MOL    H3620536   4.966   1.227   4.423  0.7398 -0.4336 -0.5477
  251MOL    H3720537   5.008   1.362   4.314 -1.2488  0.9805  0.7021
  251MOL    C3820538   4.924   1.059   4.251 -0.2847  0.0927 -0.8969
  251MOL    O3920539   5.009   0.982   4.334  0.3357 -0.5117  0.3336
  251MOL    H4020540   4.928   1.002   4.158 -1.2726 -3.6195  1.2507
  251MOL    H4120541   4.821   1.049   4.285 -0.1553 -1.4289 -0.9092
  251MOL    C4220542   5.137   0.961   4.285 -0.0478  0.5607  0.6721
  251MOL    O4320543   5.211   0.893   4.385 -0.2505  0.9325 -0.1558
  251MOL    H4420544   5.179   1.057   4.256  1.7110 -0.5053 -0.3509
  251MOL    H4520545   5.143   0.896   4.199 -0.0890 -1.3553  2.0882
  251MOL    C4620546   5.200   0.751   4.378 -0.2657  0.3154  0.5761
  251MOL    O4720547   5.256   0.677   4.482 -0.0950  0.1810 -0.0232
  251MOL    H4820548   5.259   0.719   4.292  0.9084  2.9307  0.3564
  251MOL    H4920549   5.098   0.714   4.372 -0.1344  0.1976 -1.4587
  251MOL    C5020550   5.390   0.710   4.504  0.0756  0.0325 -0.8537
  251MOL    O5120551   5.474   0.672   4.394 -0.3282 -0.1150 -1.0205
  251MOL    H5220552   5.427   0.642   4.581 -1.5652 -1.0786 -1.0075
  251MOL    H5320553   5.404   0.815   4.531  0.7715 -0.2143 -0.2442
  251MOL    C5420554   5.594   0.741   4.409  0.0512 -0.5371 -1.0026
  251MOL    O5520555   5.585   0.876   4.371  0.0221  0.2383 -0.2915
  251MOL    H5620556   5.669   0.701   4.342 -0.5618 -0.1315 -1.9360
  251MOL    H5720557   5.641   0.732   4.507 -2.1146 -3.6989 -0.1678
  251MOL    C5820558   5.563   0.894   4.232 -0.8691 -0.1783  0.2350
  251MOL    O5920559   5.669   0.862   4.153 -0.4536  0.1824 -0.3086
  251MOL    H6020560   5.522   0.994   4.217 -2.4844 -0.7839  0.4287
  251MOL    H6120561   5.484   0.826   4.199 -0.1926 -0.2321 -1.2847
  251MOL    C6220562   5.762   0.961   4.148 -0.0290 -0.6528 -0.0160
  251MOL    O6320563   5.732   1.069   4.074  0.1754 -0.1129 -0.1296
  251MOL    H6420564   5.856   0.928   4.103  0.8247 -0.2185  1.3808
  251MOL    H6520565   5.796   0.979   4.250  1.8942  0.5783 -0.8391
  251MOL    C6620566   5.765   1.057   3.941 -0.2226  0.9466 -0.3829
  251MOL    O6720567   5.901   1.083   3.917 -0.0084  0.3081 -0.2545
  251MOL    H6820568   5.701   1.132   3.895 -0.3021  0.8997 -0.3496
  251MOL    H6920569   5.750   0.958   3.898 -0.6975  0.2582  1.3251
  251MOL    C7020570   5.937   1.130   3.791  0.2053  0.3708 -0.0848
  251MOL    O7120571   5.872   1.254   3.766 -0.2728  0.1927 -0.3455
  251MOL    H7220572   5.907   1.063   3.710 -0.4562 -0.9243  1.2157
  251MOL    H7320573   6.045   1.145   3.790  0.8112 -2.7099 -5.3540
  251MOL    C7420574   5.906   1.361   3.854  0.4133  0.1104  0.1932
  251MOL    O7520575   6.029   1.411   3.819 -0.4756  0.0928  0.1494
  251MOL    H7620576   5.914   1.339   3.960 -0.8707  1.6513  0.6350
  251MOL    H7720577   5.831   1.439   3.842  0.0515 -0.2223  0.3008
  251MOL    C7820578   6.039   1.483   3.700 -0.5934  0.3781 -0.6695
  251MOL    O7920579   6.150   1.567   3.702  0.1194  0.2376 -0.9928
  251MOL    H8020580   5.948   1.544   3.696 -0.0047  1.2737 -0.5120
  251MOL    H8120581   6.049   1.417   3.614  1.0909 -1.7013  1.0694
  251MOL    H8220582   6.191   1.563   3.617  2.2028  3.1767 -0.2014
  252MOL     C120583   6.356   2.665   1.312  0.2268 -0.4914 -0.1107
  252MOL     O220584   6.364   2.523   1.332  0.4692  0.0218  0.3310
  252MOL     H320585   6.425   2.717   1.379 -2.1819  1.6830  0.7870
  252MOL     H420586   6.376   2.705   1.213  0.0392  0.6881  0.3175
  252MOL     H520587   6.260   2.705   1.346  0.9109  1.3722 -0.3249
  252MOL     C620588   6.279   2.456   1.243  0.0574 -0.2341  0.4956
  252MOL     O720589   6.139   2.476   1.276  0.2253  0.3961 -0.2897
  252MOL     H820590   6.303   2.350   1.246 -3.2048 -1.1165 -2.3773
  252MOL     H920591   6.291   2.482   1.138 -0.8422  1.6584  0.8354
  252MOL    C1020592   6.092   2.376   1.362 -0.5265  0.6020  1.0017
  252MOL    O1120593   6.091   2.249   1.291 -0.2642 -0.4130 -0.0967
  252MOL    H1220594   5.996   2.403   1.407 -0.9172  0.2096  0.4114
  252MOL    H1320595   6.169   2.376   1.438  0.7137 -0.6393 -0.2221
  252MOL    C1420596   6.042   2.147   1.365 -0.8106 -0.4833 -0.0666
  252MOL    O1520597   5.921   2.104   1.316  0.1830 -0.1015  0.0290
  252MOL    H1620598   6.015   2.170   1.468  2.7187  1.1003  0.5715
  252MOL    H1720599   6.114   2.065   1.363 -0.5949 -0.2723 -2.4841
  252MOL    C1820600   5.819   2.199   1.314  0.0065 -0.0281  0.1442
  252MOL    O1920601   5.789   2.248   1.438 -0.1516 -0.1919 -0.3811
  252MOL    H2020602   5.733   2.140   1.283 -2.5430  3.3913  0.5470
  252MOL    H2120603   5.831   2.278   1.240  0.2998 -0.3166 -0.1199
  252MOL    C2220604   5.687   2.342   1.428  0.2212 -0.5754 -0.3999
  252MOL    O2320605   5.565   2.283   1.397  0.2627  0.0405  0.4062
  252MOL    H2420606   5.711   2.426   1.362 -0.8346  0.4475  0.5130
  252MOL    H2520607   5.674   2.398   1.521  1.2246 -1.3496  0.2257
  252MOL    C2620608   5.456   2.376   1.377 -0.0743  0.1111  0.1440
  252MOL    O2720609   5.484   2.463   1.274  0.3030 -0.1280 -0.0938
  252MOL    H2820610   5.433   2.437   1.464 -1.4530 -1.4689  0.9014
  252MOL    H2920611   5.366   2.320   1.354 -0.4171 -0.3742  2.5481
  252MOL    C3020612   5.374   2.535   1.226 -0.2136  0.0470 -0.8866
  252MOL    O3120613   5.284   2.450   1.161 -0.0472  0.0149  0.3989
  252MOL    H3220614   5.414   2.611   1.159 -2.1699  1.2002 -0.7817
  252MOL    H3320615   5.323   2.586   1.308  0.2674  2.3230 -1.9699
  252MOL    C3420616   5.157   2.501   1.132  0.4884  0.4802 -0.7755
  252MOL    O3520617   5.063   2.500   1.236  0.2530 -0.1052  0.3114
  252MOL    H3620618   5.109   2.464   1.041 -1.0743  0.6880 -0.0585
  252MOL    H3720619   5.180   2.605   1.108 -1.4677  1.1798  0.2597
  252MOL    C3820620   5.020   2.360   1.261  0.7124  0.1627 -0.2909
  252MOL    O3920621   4.958   2.299   1.154  0.0159  0.2836  0.5154
  252MOL    H4020622   4.963   2.340   1.351  1.2536  0.5961  0.1518
  252MOL    H4120623   5.108   2.300   1.280 -0.7274 -2.8365 -2.6534
  252MOL    C4220624   4.832   2.354   1.127  0.0437  0.7375 -0.0619
  252MOL    O4320625   4.775   2.278   1.027  0.6005 -0.6265 -0.2344
  252MOL    H4420626   4.842   2.459   1.099  1.3384  0.4026 -0.8949
  252MOL    H4520627   4.769   2.343   1.216  0.7415 -1.6508  0.1511
  252MOL    C4620628   4.828   2.309   0.906 -0.0399  0.9156  0.2115
  252MOL    O4720629   4.816   2.448   0.883  0.0509 -0.1189 -0.5712
  252MOL    H4820630   4.772   2.249   0.835 -0.4932  1.0047  0.4932
  252MOL    H4920631   4.925   2.259   0.911 -1.0108 -0.9743  0.8438
  252MOL    C5020632   4.908   2.494   0.790  0.1922  0.4748  0.2498
  252MOL    O5120633   4.888   2.421   0.670 -0.1240 -0.8034  0.3291
  252MOL    H5220634   5.007   2.481   0.834  0.5817  1.3069 -0.3605
  252MOL    H5320635   4.901   2.603   0.787  1.6493  0.5707 -4.7268
  252MOL    C5420636   4.766   2.457   0.608 -0.3959  0.1557 -0.0716
  252MOL    O5520637   4.779   2.572   0.535  0.5935  0.2971  0.8474
  252MOL    H5620638   4.689   2.485   0.680  0.7347 -2.1433  2.1480
  252MOL    H5720639   4.723   2.375   0.550 -3.1267  0.5730  1.2483
  252MOL    C5820640   4.868   2.570   0.432 -0.1110  0.6165 -0.7413
  252MOL    O5920641   5.001   2.582   0.482  0.3318 -0.0584  0.2695
  252MOL    H6020642   4.848   2.646   0.356  3.1809  0.4377 -1.8884
  252MOL    H6120643   4.869   2.475   0.379  1.6292  0.0787  0.2123
  252MOL    C6220644   5.035   2.710   0.514  0.5837 -0.6195  0.3548
  252MOL    O6320645   5.055   2.794   0.408 -0.2993 -0.3167  0.3492
  252MOL    H6420646   5.114   2.699   0.588  0.4119  1.8409  0.9240
  252MOL    H6520647   4.955   2.756   0.571 -0.2732 -1.2831 -0.2913
  252MOL    C6620648   5.188   2.799   0.376 -0.0692  0.5671 -0.3578
  252MOL    O6720649   5.223   2.879   0.265  0.1706  0.2498 -0.6657
  252MOL    H6820650   5.212   2.695   0.355 -0.0779  0.1812  1.4480
  252MOL    H6920651   5.244   2.840   0.460 -0.3773  0.9045 -0.3178
  252MOL    C7020652   5.188   3.005   0.282  0.1122  1.0083  0.4745
  252MOL    O7120653   5.267   3.079   0.369  0.1787 -0.9689 -0.5413
  252MOL    H7220654   5.088   3.000   0.324  1.4696 -0.7357  3.7264
  252MOL    H7320655   5.178   3.056   0.187  1.4635  1.8163  0.7470
  252MOL    C7420656   5.384   3.125   0.314 -0.2194 -0.2297  0.2151
  252MOL    O7520657   5.482   3.041   0.348 -0.2169 -0.3673 -0.2586
  252MOL    H7620658   5.407   3.222   0.358 -0.1458  0.6194 -1.6385
  252MOL    H7720659   5.386   3.138   0.205 -2.2488  2.0103  0.4043
  252MOL    C7820660   5.496   3.030   0.494  0.2987 -0.1990 -0.2885
  252MOL    O7920661   5.610   2.955   0.534 -0.1230  0.0209  0.2453
  252MOL    H8020662   5.409   2.974   0.528  1.1712 -1.1682  0.3563
  252MOL    H8120663   5.500   3.126   0.545  0.1811 -0.6966  0.6784
  252MOL    H8220664   5.583   2.864   0.537  1.0095 -0.3300  0.2504
  253MOL     C120665   1.238   4.277   1.481  0.4618  0.3676  0.0065
  253MOL     O220666   1.291   4.150   1.510 -0.0407 -0.5264  0.1955
  253MOL     H320667   1.289   4.347   1.546  1.0747  0.5814 -0.7010
  253MOL     H420668   1.261   4.290   1.376  2.7854  0.1762  0.4652
  253MOL     H520669   1.131   4.267   1.497  0.3655 -0.0604 -0.8849
  253MOL     C620670   1.208   4.043   1.468  0.1256 -0.6821 -0.2632
  253MOL     O720671   1.197   4.041   1.332  0.4887 -0.0113 -0.3287
  253MOL     H820672   1.107   4.049   1.511  0.7800 -0.1513  1.2335
  253MOL     H920673   1.266   3.959   1.505 -0.4927 -1.5190 -1.1700
  253MOL    C1020674   1.314   3.997   1.265 -0.2881 -0.0192  0.2633
  253MOL    O1120675   1.298   3.991   1.128 -0.5845  0.0497  0.2595
  253MOL    H1220676   1.326   3.895   1.302 -1.5432 -0.4531 -0.5053
  253MOL    H1320677   1.401   4.054   1.297  0.0082 -1.2379  1.7446
  253MOL    C1420678   1.318   4.116   1.064  0.2413  0.2336 -0.0474
  253MOL    O1520679   1.218   4.204   1.093  0.0895 -0.0369  0.9865
  253MOL    H1620680   1.335   4.110   0.957  1.0436 -1.3547  0.1496
  253MOL    H1720681   1.416   4.146   1.102  0.3084 -0.4955  0.3637
  253MOL    C1820682   1.093   4.162   1.050 -0.5405  0.3124 -0.2660
  253MOL    O1920683   1.078   4.181   0.908 -0.9234  0.1585  0.1754
  253MOL    H2020684   1.018   4.229   1.093 -0.5086  0.2274 -0.0794
  253MOL    H2120685   1.064   4.066   1.093 -1.6623  0.2623 -1.1106
  253MOL    C2220686   1.047   4.317   0.881 -0.8693 -0.5990  0.6318
  253MOL    O2320687   1.031   4.332   0.746 -0.3278 -0.0005  0.3275
  253MOL    H2420688   1.107   4.390   0.935 -3.1661  1.0002  1.0827
  253MOL    H2520689   0.942   4.321   0.911 -1.5785  1.7899 -2.0168
  253MOL    C2620690   1.147   4.330   0.674  0.2302  0.0675 -0.0615
  253MOL    O2720691   1.234   4.436   0.716  0.3324  0.1899 -0.0080
  253MOL    H2820692   1.127   4.325   0.567 -0.5068 -0.2688  0.0905
  253MOL    H2920693   1.197   4.236   0.696 -2.2777 -1.1864  0.4461
  253MOL    C3020694   1.200   4.555   0.655  0.0966 -0.4002 -0.0594
  253MOL    O3120695   1.240   4.563   0.518  0.3018  0.2171  0.3634
  253MOL    H3220696   1.263   4.628   0.706 -1.2398  0.3826  0.5014
  253MOL    H3320697   1.096   4.579   0.679 -0.5721 -1.0413 -2.2185
  253MOL    C3420698   1.276   4.691   0.481  0.9317 -0.8098 -0.9418
  253MOL    O3520699   1.380   4.746   0.551  0.1324  0.4334  0.3104
  253MOL    H3620700   1.188   4.754   0.492  2.4457  1.2752 -0.6214
  253MOL    H3720701   1.300   4.686   0.375  0.3553  1.8258 -1.2207
  253MOL    C3820702   1.503   4.709   0.505 -0.0915 -0.0479 -0.1331
  253MOL    O3920703   1.539   4.779   0.390  0.2401  0.3324  0.0311
  253MOL    H4020704   1.505   4.601   0.487  3.0236 -0.0899  0.2560
  253MOL    H4120705   1.574   4.721   0.586 -0.1586  1.7241 -0.3284
  253MOL    C4220706   1.667   4.739   0.340 -0.9111 -0.2156 -0.5998
  253MOL    O4320707   1.680   4.803   0.221 -0.0774  0.4949  0.3803
  253MOL    H4420708   1.679   4.632   0.325  0.5464 -0.2668  0.7707
  253MOL    H4520709   1.754   4.760   0.404 -2.1313  1.1455  0.6501
  253MOL    C4620710   1.677   4.939   0.231  0.1782  0.2696  0.3292
  253MOL    O4720711   1.752   4.990   0.130 -0.0934  0.5798  0.9452
  253MOL    H4820712   1.698   4.975   0.331 -0.2327 -1.5019  1.0841
  253MOL    H4920713   1.575   4.969   0.206  0.8700  0.9465 -1.8241
  253MOL    C5020714   1.891   4.968   0.130  0.0411  0.2109  0.4367
  253MOL    O5120715   1.957   5.012   0.247 -0.5712  0.3392 -0.3506
  253MOL    H5220716   1.941   5.003   0.040 -0.1025  0.2221  0.3606
  253MOL    H5320717   1.897   4.860   0.115 -2.9521 -0.0759  0.9000
  253MOL    C5420718   1.946   5.154   0.261  0.1310  0.4582 -0.4009
  253MOL    O5520719   2.012   5.213   0.159  0.2977  0.2598 -0.2318
  253MOL    H5620720   2.000   5.187   0.350  0.8954 -3.6820  0.7921
  253MOL    H5720721   1.840   5.178   0.260  0.1895  0.6991 -1.4313
  253MOL    C5820722   1.998   5.349   0.160 -0.2680  1.0124 -0.6358
  253MOL    O5920723   2.068   5.415   0.248 -0.1567 -0.5216 -0.0622
  253MOL    H6020724   1.891   5.373   0.159 -0.5497 -0.2078 -0.6585
  253MOL    H6120725   2.034   5.374   0.060  3.3220  0.6246  0.5246
  253MOL    C6220726   2.206   5.396   0.241 -1.2405 -0.7663 -0.0662
  253MOL    O6320727   2.267   5.497   0.315 -0.5228  0.1436  0.2594
  253MOL    H6420728   2.240   5.410   0.138 -1.4964 -0.5078 -0.1167
  253MOL    H6520729   2.236   5.297   0.275 -0.2621 -0.0498  1.2036
  253MOL    C6620730   2.324   5.456   0.434 -0.3226 -0.5047  0.0588
  253MOL    O6720731   2.439   5.379   0.409  0.4288 -0.4624 -0.4022
  253MOL    H6820732   2.249   5.401   0.492  0.1206 -0.6231  0.5243
  253MOL    H6920733   2.349   5.550   0.482 -0.0176 -0.7274  0.3427
  253MOL    C7020734   2.553   5.452   0.380 -0.2742  0.2114 -0.1948
  253MOL    O7120735   2.577   5.552   0.478  0.3592 -0.7500  0.4561
  253MOL    H7220736   2.535   5.491   0.279  2.8596 -1.3976 -1.4311
  253MOL    H7320737   2.638   5.388   0.357 -0.0068  0.6320 -0.3870
  253MOL    C7420738   2.636   5.498   0.594 -0.3047 -0.0454 -0.4923
  253MOL    O7520739   2.770   5.468   0.567  0.4967  0.2348  0.3958
  253MOL    H7620740   2.586   5.407   0.624  2.4951 -0.7839  2.1558
  253MOL    H7720741   2.642   5.567   0.678 -0.5979 -1.8920  1.0779
  253MOL    C7820742   2.861   5.573   0.559  0.1570  0.3725 -0.1313
  253MOL    O7920743   2.988   5.528   0.527  0.1159  0.0936  0.0829
  253MOL    H8020744   2.861   5.631   0.651  3.6419 -1.0959  0.8873
  253MOL    H8120745   2.823   5.636   0.479 -0.9107 -1.3994 -1.0639
  253MOL    H8220746   3.046   5.600   0.549  0.0748 -0.1129  0.9129
  254MOL     C120747   6.659   1.570   7.439 -0.1801 -0.0765 -0.0593
  254MOL     O220748   6.771   1.506   7.493 -0.0405 -0.8246 -0.6126
  254MOL     H320749   6.591   1.595   7.520 -0.5854  0.3835 -0.5309
  254MOL     H420750   6.693   1.662   7.390 -0.3669 -0.1685 -0.3682
  254MOL     H520751   6.611   1.521   7.354 -0.5708  0.6649 -0.2726
  254MOL     C620752   6.754   1.366   7.505  0.0418  0.3032  1.1424
  254MOL     O720753   6.728   1.294   7.387 -0.0624 -0.1445 -0.5106
  254MOL     H820754   6.669   1.348   7.571 -0.1684  0.6632  0.9757
  254MOL     H920755   6.839   1.315   7.549  0.6018  0.2206  0.0006
  254MOL    C1020756   6.842   1.289   7.306  0.0471  0.6974 -0.6175
  254MOL    O1120757   6.941   1.203   7.353 -0.0018 -0.0021  0.3355
  254MOL    H1220758   6.886   1.388   7.301  0.2619  0.7200  1.3890
  254MOL    H1320759   6.819   1.271   7.201 -1.3654 -1.0561 -0.0286
  254MOL    C1420760   6.889   1.075   7.374 -0.6050 -0.7526  0.7002
  254MOL    O1520761   6.859   1.022   7.254  0.2427  0.3008 -0.0792
  254MOL    H1620762   6.798   1.074   7.433 -0.8952  1.3634  0.3483
  254MOL    H1720763   6.960   1.014   7.430  1.1812  0.0822 -0.5944
  254MOL    C1820764   6.972   0.997   7.167  0.2543  0.3325 -0.2103
  254MOL    O1920765   7.020   0.867   7.171 -0.1614  0.4091  0.0163
  254MOL    H2020766   7.055   1.062   7.194 -0.0394  0.4323  0.4685
  254MOL    H2120767   6.947   1.021   7.064 -0.6957 -1.6990 -0.4741
  254MOL    C2220768   6.917   0.781   7.132 -0.7433 -0.7857  0.1213
  254MOL    O2320769   6.975   0.661   7.091  0.3283 -0.2244 -0.5444
  254MOL    H2420770   6.873   0.815   7.039  0.9750  1.8943  0.2478
  254MOL    H2520771   6.833   0.771   7.201 -0.3714  0.4766  0.7560
  254MOL    C2620772   7.006   0.577   7.190  0.1668 -0.3167 -0.2124
  254MOL    O2720773   6.904   0.544   7.272  0.5586 -0.6580 -0.4367
  254MOL    H2820774   7.079   0.620   7.259 -0.1637 -1.0077  0.5730
  254MOL    H2920775   7.050   0.489   7.143  0.4557  0.8395 -2.1490
  254MOL    C3020776   6.814   0.464   7.205 -0.0179  0.1315  0.8801
  254MOL    O3120777   6.864   0.334   7.179  0.1321  0.1216 -0.3242
  254MOL    H3220778   6.790   0.508   7.108  0.7768 -0.0019  0.6160
  254MOL    H3320779   6.718   0.465   7.256 -1.6367 -1.9354 -1.9218
  254MOL    C3420780   6.880   0.270   7.303  0.0001 -0.1838 -1.1976
  254MOL    O3520781   6.755   0.254   7.368  0.0067  0.3765  0.4537
  254MOL    H3620782   6.948   0.318   7.373 -0.1427  0.4199 -1.4695
  254MOL    H3720783   6.919   0.169   7.289  1.7965  0.7043 -2.8967
  254MOL    C3820784   6.650   0.177   7.312 -0.0403 -1.0006  0.1829
  254MOL    O3920785   6.542   0.176   7.394  0.4581  0.0441  0.1226
  254MOL    H4020786   6.690   0.079   7.287 -2.0192 -2.1289  1.2963
  254MOL    H4120787   6.620   0.224   7.218  1.4100  1.6452  1.0093
  254MOL    C4220788   6.472   0.290   7.391 -0.8528  0.0411  0.6837
  254MOL    O4320789   6.395   0.301   7.275  0.0142 -0.0152  0.3715
  254MOL    H4420790   6.547   0.368   7.395 -0.5246 -0.2446  0.2180
  254MOL    H4520791   6.404   0.289   7.477 -1.5471 -0.3764  0.1369
  254MOL    C4620792   6.300   0.194   7.262 -0.8245 -0.4290  1.0940
  254MOL    O4720793   6.198   0.208   7.356  0.1303 -0.3115 -0.1979
  254MOL    H4820794   6.345   0.097   7.283  0.3282 -0.0114  0.6084
  254MOL    H4920795   6.260   0.197   7.160  0.1673 -1.2473  0.6711
  254MOL    C5020796   6.091   0.116   7.337 -0.3973 -0.0900  0.3159
  254MOL    O5120797   6.128   7.770   7.378 -0.2853 -0.2357 -0.5979
  254MOL    H5220798   6.039   0.118   7.241 -0.9171 -2.0107  0.5273
  254MOL    H5320799   6.012   0.162   7.398 -0.9718  0.4726 -0.8397
  254MOL    C5420800   6.043   7.675   7.328  0.2735  0.1076 -0.8049
  254MOL    O5520801   6.015   7.666   7.194  0.3635  0.4204 -0.0330
  254MOL    H5620802   5.946   7.683   7.378  0.0163  0.0357 -1.2866
  254MOL    H5720803   6.078   7.578   7.363 -1.9112 -0.0107  1.1450
  254MOL    C5820804   6.124   7.619   7.116 -0.8805 -0.0248  0.2201
  254MOL    O5920805   6.190   7.496   7.155 -0.0412 -0.0473  0.1151
  254MOL    H6020806   6.205   7.692   7.114 -1.3113  0.4520 -0.0186
  254MOL    H6120807   6.100   7.619   7.009 -0.6551 -0.8008  0.1700
  254MOL    C6220808   6.115   7.381   7.142 -0.5305  0.0788  0.1686
  254MOL    O6320809   6.054   7.333   7.261  0.1075 -0.0197  0.4698
  254MOL    H6420810   6.175   7.300   7.101 -0.2487  1.9431 -3.2689
  254MOL    H6520811   6.034   7.383   7.069 -0.4892  0.3735  0.1309
  254MOL    C6620812   6.144   7.293   7.358 -0.8083  0.6804 -0.1341
  254MOL    O6720813   6.209   7.179   7.335  1.1934  0.6447  0.6279
  254MOL    H6820814   6.093   7.309   7.453  0.4876  2.0823  0.3393
  254MOL    H6920815   6.225   7.367   7.360  1.4753 -1.7682  0.3326
  254MOL    C7020816   6.125   7.069   7.346 -0.3440 -0.3948 -0.3738
  254MOL    O7120817   6.183   6.944   7.318 -0.1983  0.2713 -0.0403
  254MOL    H7220818   6.041   7.073   7.278 -0.3195 -0.3133 -0.3994
  254MOL    H7320819   6.083   7.064   7.447 -2.8516  0.4055 -1.3502
  254MOL    C7420820   6.277   6.917   7.419 -0.1582 -1.2490  0.1040
  254MOL    O7520821   6.209   6.884   7.537  0.2506 -0.3283 -0.0257
  254MOL    H7620822   6.347   7.000   7.430 -0.9528 -0.3985 -1.1350
  254MOL    H7720823   6.343   6.835   7.393  1.0088 -0.2413 -0.1411
  254MOL    C7820824   6.187   6.750   7.551  0.5408 -1.0446 -0.4375
  254MOL    O7920825   6.141   6.723   7.684 -0.3121  0.6019 -0.2987
  254MOL    H8020826   6.282   6.697   7.542  0.0715 -1.9305 -0.2258
  254MOL    H8120827   6.114   6.713   7.480 -0.6083 -1.2087  0.8132
  254MOL    H8220828   6.054   6.758   7.686 -0.7270 -0.4223 -0.2369
  255MOL     C120829   5.166   1.122   3.800  0.8889  0.2225  0.3496
  255MOL     O220830   5.281   1.206   3.844 -0.0956  0.4223 -0.1165
  255MOL     H320831   5.146   1.157   3.698  1.8631 -0.1314  0.0334
  255MOL     H420832   5.176   1.014   3.808  0.2710  0.2201  1.1066
  255MOL     H520833   5.083   1.147   3.866 -0.4365  0.2881 -1.2833
  255MOL     C620834   5.325   1.195   3.977 -0.6407  0.5159  0.3728
  255MOL     O720835   5.232   1.225   4.074  0.2537 -0.7520 -0.0338
  255MOL     H820836   5.413   1.258   3.991  0.3955 -0.4988 -1.3157
  255MOL     H920837   5.351   1.090   3.992  0.0369  0.6760  0.3405
  255MOL    C1020838   5.209   1.365   4.081  0.5595 -0.4053 -0.1185
  255MOL    O1120839   5.305   1.438   4.149 -0.2164 -0.5395 -0.4183
  255MOL    H1220840   5.108   1.379   4.119  0.3183 -1.9293 -0.1391
  255MOL    H1320841   5.209   1.406   3.980  3.8416  2.6632  1.0467
  255MOL    C1420842   5.284   1.439   4.288  0.0225 -0.6674 -0.0930
  255MOL    O1520843   5.187   1.526   4.327 -0.4605 -0.8559 -0.6911
  255MOL    H1620844   5.382   1.453   4.333 -0.5562  0.3474  0.8675
  255MOL    H1720845   5.260   1.335   4.311 -2.3339 -0.1501 -0.1102
  255MOL    C1820846   5.247   1.647   4.369 -0.2071 -0.4889 -0.5738
  255MOL    O1920847   5.257   1.664   4.508 -0.2110 -0.5694  0.3859
  255MOL    H2020848   5.190   1.729   4.326  2.3908 -0.3523 -3.9209
  255MOL    H2120849   5.342   1.662   4.318  0.5053  0.7498  1.0438
  255MOL    C2220850   5.130   1.669   4.567  0.3586 -0.3122 -0.7633
  255MOL    O2320851   5.143   1.671   4.711  0.3668 -0.5336  0.2057
  255MOL    H2420852   5.082   1.572   4.553 -0.8462  0.1549 -0.0597
  255MOL    H2520853   5.068   1.752   4.530  0.7069 -0.0393 -0.7367
  255MOL    C2620854   5.183   1.802   4.752  0.8379 -0.4121 -0.5530
  255MOL    O2720855   5.095   1.908   4.721 -0.0127  0.2202  0.1452
  255MOL    H2820856   5.280   1.828   4.708  1.7700 -0.5683  1.3777
  255MOL    H2920857   5.193   1.787   4.859  0.1372  0.9879 -0.2866
  255MOL    C3020858   4.970   1.880   4.772  0.0869  0.0466 -0.0993
  255MOL    O3120859   4.965   1.915   4.904 -0.6514 -0.1041  0.6090
  255MOL    H3220860   4.941   1.775   4.771 -2.4852  0.6977  1.2715
  255MOL    H3320861   4.903   1.925   4.699 -0.1825  1.5011  1.0371
  255MOL    C3420862   5.003   2.044   4.934 -0.4741 -0.3460  0.1533
  255MOL    O3520863   4.922   2.149   4.883 -0.1730 -0.0721  0.7629
  255MOL    H3620864   5.098   2.070   4.888 -2.2285  2.6913 -1.9227
  255MOL    H3720865   5.021   2.057   5.040 -0.9510 -2.4572  0.5115
  255MOL    C3820866   4.806   2.165   4.962  0.4984 -0.2249  0.2869
  255MOL    O3920867   4.836   2.208   5.085 -0.0521 -0.0515  0.0501
  255MOL    H4020868   4.760   2.072   4.993  2.0437 -0.7904  0.9139
  255MOL    H4120869   4.725   2.210   4.905  0.4931  0.3517  0.7470
  255MOL    C4220870   4.886   2.338   5.091  0.2432  0.1774  0.1126
  255MOL    O4320871   4.946   2.381   5.208 -0.3494  0.4520 -0.4587
  255MOL    H4420872   4.801   2.407   5.082  0.0300 -0.1978 -0.8741
  255MOL    H4520873   4.956   2.353   5.009 -0.3828 -0.6764 -0.5909
  255MOL    C4620874   5.067   2.313   5.233  0.0447  0.5547  0.5366
  255MOL    O4720875   5.169   2.380   5.158 -0.3506  0.2611  0.4701
  255MOL    H4820876   5.055   2.210   5.198 -2.1966  0.2374  2.1380
  255MOL    H4920877   5.084   2.317   5.340  0.0037  0.5415  0.5437
  255MOL    C5020878   5.287   2.309   5.138 -0.6158 -0.0261 -0.2389
  255MOL    O5120879   5.264   2.219   5.032  0.0665  0.0916 -0.3884
  255MOL    H5220880   5.317   2.246   5.222  0.5077  0.2388 -0.4259
  255MOL    H5320881   5.365   2.383   5.117  0.3245 -0.6618  0.9774
  255MOL    C5420882   5.306   2.272   4.913  0.3838 -0.1442 -0.2738
  255MOL    O5520883   5.450   2.266   4.906 -0.3737 -0.0099 -0.3003
  255MOL    H5620884   5.262   2.372   4.905 -1.9043 -1.2752 -2.8458
  255MOL    H5720885   5.271   2.219   4.824  0.4707 -2.3441  0.9701
  255MOL    C5820886   5.495   2.134   4.899  0.0515  0.1324  0.2860
  255MOL    O5920887   5.459   2.073   4.784 -0.0613 -0.3332  0.2844
  255MOL    H6020888   5.455   2.069   4.977 -0.7358  0.3615  0.0723
  255MOL    H6120889   5.601   2.142   4.923 -0.0916  0.9323  0.6536
  255MOL    C6220890   5.512   2.128   4.664 -0.8134 -0.1734 -0.1374
  255MOL    O6320891   5.650   2.101   4.642  0.0361  0.0953  0.2131
  255MOL    H6420892   5.504   2.237   4.664 -1.6644 -0.1783 -3.2652
  255MOL    H6520893   5.448   2.093   4.583 -1.3257  0.3346  0.0409
  255MOL    C6620894   5.677   1.963   4.654 -0.2453  0.2794 -0.6661
  255MOL    O6720895   5.642   1.893   4.534  0.0563  0.5275 -0.3214
  255MOL    H6820896   5.631   1.916   4.741 -0.7639  1.2754 -0.3923
  255MOL    H6920897   5.781   1.935   4.669 -0.6274 -0.0606  1.6256
  255MOL    C7020898   5.573   1.772   4.555 -0.4689  0.3712 -0.1867
  255MOL    O7120899   5.653   1.661   4.580  0.1615  0.0533 -0.2446
  255MOL    H7220900   5.529   1.749   4.458  0.9296  2.6509 -1.3882
  255MOL    H7320901   5.499   1.789   4.633 -0.9788 -2.7927  0.1133
  255MOL    C7420902   5.583   1.545   4.613 -0.2242 -0.5377  0.0048
  255MOL    O7520903   5.500   1.566   4.716 -0.4171  0.0248  0.0210
  255MOL    H7620904   5.651   1.468   4.651  0.7091  1.0013  1.5295
  255MOL    H7720905   5.525   1.498   4.534  1.0247 -2.3274  0.1312
  255MOL    C7820906   5.409   1.469   4.740 -0.4614 -0.5605 -0.4026
  255MOL    O7920907   5.336   1.504   4.854  0.2476 -0.0803 -0.3496
  255MOL    H8020908   5.468   1.380   4.761 -0.6056 -0.3550  0.9187
  255MOL    H8120909   5.341   1.450   4.658 -1.3505  2.7685 -0.5226
  255MOL    H8220910   5.246   1.523   4.832 -0.4102  0.2779  2.4221
  256MOL     C120911   3.962   3.854   5.496 -0.0103  0.5300 -0.4274
  256MOL     O220912   3.846   3.937   5.483 -0.4831 -0.3302  0.1676
  256MOL     H320913   3.953   3.757   5.447 -0.4108  0.1424  0.4055
  256MOL     H420914   4.046   3.900   5.444 -1.4358  2.4627 -1.0734
  256MOL     H520915   3.990   3.848   5.601 -1.5287  1.6705  0.0706
  256MOL     C620916   3.754   3.915   5.580  0.1514  0.1765 -0.2984
  256MOL     O720917   3.795   3.955   5.707 -0.0036 -1.0140 -0.0726
  256MOL     H820918   3.732   3.808   5.580  1.1670 -0.0713  1.8782
  256MOL     H920919   3.653   3.954   5.569  0.1075  1.1298  2.9232
  256MOL    C1020920   3.814   4.095   5.716  0.1297  0.1083 -0.2018
  256MOL    O1120921   3.694   4.166   5.747 -0.2668 -0.0253  0.1109
  256MOL    H1220922   3.861   4.134   5.625  0.4202 -0.0558 -0.1223
  256MOL    H1320923   3.884   4.121   5.795  1.4311 -1.0913 -0.9346
  256MOL    C1420924   3.641   4.137   5.873  0.5343  0.0980 -0.5872
  256MOL    O1520925   3.741   4.172   5.977  0.1590  0.1836  0.8918
  256MOL    H1620926   3.590   4.041   5.882 -2.0982  1.4574 -0.2654
  256MOL    H1720927   3.562   4.212   5.885  1.0092  0.2046  2.4910
  256MOL    C1820928   3.744   4.071   6.076  0.0084 -0.3666 -0.6331
  256MOL    O1920929   3.629   4.080   6.162 -0.3902  0.6634 -0.0821
  256MOL    H2020930   3.847   4.069   6.112  0.6428  1.3360 -2.3164
  256MOL    H2120931   3.729   3.974   6.029 -2.7639 -0.1933 -0.2316
  256MOL    C2220932   3.640   4.176   6.257  0.0019  0.6384 -0.0252
  256MOL    O2320933   3.764   4.167   6.337 -0.3462  0.0476  0.1480
  256MOL    H2420934   3.559   4.166   6.329 -0.0331  0.9959 -0.0168
  256MOL    H2520935   3.630   4.273   6.209  3.2025  0.4348 -1.2660
  256MOL    C2620936   3.769   4.049   6.412 -0.0810  0.5201  0.1033
  256MOL    O2720937   3.857   4.053   6.521 -0.2260 -0.6977 -0.4311
  256MOL    H2820938   3.794   3.964   6.349 -1.0389  0.8465 -0.7376
  256MOL    H2920939   3.669   4.031   6.452  0.0223 -0.7098 -0.1708
  256MOL    C3020940   3.993   4.070   6.481  0.3804  0.3347 -0.6836
  256MOL    O3120941   4.039   3.949   6.423  0.0412 -0.4586  0.0217
  256MOL    H3220942   4.059   4.084   6.567  0.7119 -0.4897 -0.7962
  256MOL    H3320943   3.997   4.154   6.411 -1.2752  0.3797 -0.7448
  256MOL    C3420944   4.017   3.830   6.486 -0.4989  0.0596  1.2041
  256MOL    O3520945   4.140   3.784   6.541 -0.0969 -0.3794 -0.1003
  256MOL    H3620946   3.977   3.759   6.413 -0.0299  0.5384  0.4804
  256MOL    H3720947   3.943   3.827   6.567 -1.7378  0.9310  0.1162
  256MOL    C3820948   4.242   3.761   6.452 -0.5109  0.2698  0.4563
  256MOL    O3920949   4.354   3.736   6.531 -0.0409 -0.1596  0.1476
  256MOL    H4020950   4.258   3.840   6.379  2.1241  1.4568  2.2443
  256MOL    H4120951   4.219   3.667   6.402  1.2134 -0.2390  0.5770
  256MOL    C4220952   4.474   3.732   6.457  0.1586 -0.7317  0.3109
  256MOL    O4320953   4.492   3.840   6.371  0.5082  0.1841 -0.1269
  256MOL    H4420954   4.463   3.654   6.382 -2.1503 -0.9680  0.8508
  256MOL    H4520955   4.561   3.711   6.520 -0.1160 -0.3627  0.8132
  256MOL    C4620956   4.624   3.838   6.317 -0.3698 -0.1944 -0.4415
  256MOL    O4720957   4.645   3.721   6.250 -0.7556  0.2427 -0.1258
  256MOL    H4820958   4.690   3.836   6.403 -0.6649 -1.4250 -0.2288
  256MOL    H4920959   4.647   3.923   6.253 -2.1178 -0.1365 -1.0409
  256MOL    C5020960   4.568   3.731   6.135 -0.0262  0.1045 -0.2794
  256MOL    O5120961   4.613   3.826   6.048 -0.6001 -0.1592 -0.1822
  256MOL    H5220962   4.462   3.744   6.156 -0.5018 -1.9065 -1.3473
  256MOL    H5320963   4.576   3.634   6.087 -1.3088 -0.0027 -0.2843
  256MOL    C5420964   4.516   3.865   5.960 -0.0421 -0.4078  0.4816
  256MOL    O5520965   4.480   3.765   5.875  0.0766 -0.7310  0.4632
  256MOL    H5620966   4.555   3.953   5.909  0.6447 -1.7137 -1.3086
  256MOL    H5720967   4.430   3.900   6.016 -0.3366 -0.5640  0.1272
  256MOL    C5820968   4.385   3.803   5.780 -0.4684 -0.3716 -0.2220
  256MOL    O5920969   4.362   3.704   5.680 -0.2876 -0.1789  0.6045
  256MOL    H6020970   4.413   3.887   5.717  0.8084 -1.1220 -0.6790
  256MOL    H6120971   4.295   3.829   5.837 -0.1741 -0.4316  0.2743
  256MOL    C6220972   4.292   3.591   5.725  0.1594  0.2910  0.2538
  256MOL    O6320973   4.168   3.584   5.673 -0.0212 -0.0563  0.0897
  256MOL    H6420974   4.271   3.604   5.831  0.5456 -0.6510  0.4479
  256MOL    H6520975   4.355   3.503   5.710 -0.8979 -0.4650  0.2270
  256MOL    C6620976   4.113   3.457   5.687 -0.2349  0.3187 -0.5920
  256MOL    O6720977   4.159   3.362   5.595  0.6264 -0.2040 -0.2166
  256MOL    H6820978   4.006   3.473   5.680 -0.6801 -1.9148  0.6180
  256MOL    H6920979   4.126   3.418   5.788 -0.3267  0.9531 -0.3367
  256MOL    C7020980   4.125   3.395   5.465  0.3438  0.7438 -0.3010
  256MOL    O7120981   3.982   3.408   5.451  0.3065  0.0616  0.6367
  256MOL    H7220982   4.144   3.306   5.405  2.7467  1.1460 -0.1825
  256MOL    H7320983   4.195   3.476   5.446  0.6421  0.4584 -0.4363
  256MOL    C7420984   3.957   3.466   5.323  0.1690 -0.2850 -0.0958
  256MOL    O7520985   4.007   3.378   5.225  0.5492  0.0953  0.2734
  256MOL    H7620986   4.001   3.566   5.327  0.7945 -0.5972  1.2563
  256MOL    H7720987   3.850   3.486   5.314  0.6364  2.1616 -0.7598
  256MOL    C7820988   3.904   3.285   5.189  0.0935  0.4221  0.4900
  256MOL    O7920989   3.961   3.194   5.101  1.4067 -0.7906  0.0280
  256MOL    H8020990   3.822   3.341   5.143  0.9767  0.6002 -0.9146
  256MOL    H8120991   3.853   3.232   5.269  0.0237 -3.2786 -1.8536
  256MOL    H8220992   3.891   3.155   5.051  0.0689  1.4044  0.1448
  257MOL     C120993   1.718   5.169   5.994 -0.1270 -0.1262  0.3616
  257MOL     O220994   1.834   5.115   5.939 -0.5061  0.3456 -0.1318
  257MOL     H320995   1.682   5.094   6.064 -1.3978 -2.1626 -2.4374
  257MOL     H420996   1.742   5.260   6.050 -0.9794  0.9518 -1.0105
  257MOL     H520997   1.644   5.184   5.915  0.0454  0.1163  0.2431
  257MOL     C620998   1.931   5.081   6.036  0.0662  0.2149 -0.6033
  257MOL     O720999   2.008   5.189   6.064  0.5655 -0.3804  0.4230
  257MOL     H821000   1.976   4.989   5.999  1.0615  0.9375 -1.2235
  257MOL     H921001   1.885   5.056   6.132 -0.3443 -0.7871 -1.0589
  257MOL    C1021002   2.110   5.216   5.973  0.8504 -0.0914  0.7753
  257MOL    O1121003   2.199   5.317   6.017 -0.0203 -0.2416  0.5633
  257MOL    H1221004   2.060   5.254   5.884 -0.0772  0.8624  1.6860
  257MOL    H1321005   2.148   5.120   5.937 -0.4936  0.5806 -2.5949
  257MOL    C1421006   2.272   5.287   6.129  0.0154 -0.0074 -0.2476
  257MOL    O1521007   2.353   5.178   6.105  0.5567 -0.0286 -0.6398
  257MOL    H1621008   2.208   5.278   6.217 -0.0069 -0.3696 -0.3001
  257MOL    H1721009   2.337   5.371   6.152  0.6176 -0.4615 -0.2663
  257MOL    C1821010   2.453   5.208   6.006  0.0881 -0.5715 -0.6181
  257MOL    O1921011   2.576   5.241   6.071 -0.3601  0.0445 -0.0583
  257MOL    H2021012   2.420   5.285   5.937 -0.0587 -0.9018 -0.9154
  257MOL    H2121013   2.478   5.116   5.955  1.2985 -0.4549 -0.2415
  257MOL    C2221014   2.651   5.133   6.121  0.8341  0.2503  0.0323
  257MOL    O2321015   2.782   5.171   6.144  0.0031 -0.1132  0.9628
  257MOL    H2421016   2.668   5.066   6.037  1.4150  1.1305 -0.5732
  257MOL    H2521017   2.607   5.079   6.204  1.2874  0.0211  0.1268
  257MOL    C2621018   2.804   5.228   6.268  0.5325 -0.6666 -0.2430
  257MOL    O2721019   2.859   5.132   6.350 -0.8114 -0.0941  0.4108
  257MOL    H2821020   2.707   5.261   6.306  0.6249 -0.4104 -0.2255
  257MOL    H2921021   2.875   5.310   6.259 -1.3988  1.1146  0.3496
  257MOL    C3021022   3.002   5.123   6.341 -0.8214  0.0993  0.9046
  257MOL    O3121023   3.043   5.056   6.453 -0.6425  0.0673 -0.3886
  257MOL    H3221024   3.045   5.222   6.326 -0.2059 -0.2010  0.6772
  257MOL    H3321025   3.013   5.064   6.250  3.2025  0.4600  1.0930
  257MOL    C3421026   3.029   4.923   6.451 -0.1161  0.0229 -0.2531
  257MOL    O3521027   3.099   4.862   6.558  0.7418  0.7791 -0.6348
  257MOL    H3621028   3.067   4.878   6.360  2.1037 -1.9486  1.5755
  257MOL    H3721029   2.922   4.903   6.450 -0.1891  0.3265  0.8009
  257MOL    C3821030   3.020   4.823   6.665 -0.0670  0.2606 -0.0419
  257MOL    O3921031   2.931   4.718   6.636 -0.2688  0.1760 -0.5404
  257MOL    H4021032   2.966   4.911   6.700  0.9016  1.2287 -0.9569
  257MOL    H4121033   3.102   4.805   6.735  0.7461  1.2881 -0.7199
  257MOL    C4221034   2.884   4.659   6.754 -0.3037 -0.2925 -0.0838
  257MOL    O4321035   2.780   4.730   6.814  0.5525  0.0208  0.6704
  257MOL    H4421036   2.956   4.637   6.832  1.5127  1.8524 -1.1231
  257MOL    H4521037   2.841   4.564   6.720  2.7706 -2.1162  0.9494
  257MOL    C4621038   2.731   4.659   6.917 -0.2326 -0.4355 -0.9383
  257MOL    O4721039   2.666   4.542   6.881  0.2994 -0.0282  0.1264
  257MOL    H4821040   2.673   4.733   6.972 -1.6830 -2.1408 -0.1118
  257MOL    H4921041   2.804   4.628   6.992  1.6251  0.4670 -2.3513
  257MOL    C5021042   2.596   4.488   6.992  0.4878 -0.5154  0.0990
  257MOL    O5121043   2.678   4.439   7.094 -0.6633 -0.0593  0.2399
  257MOL    H5221044   2.527   4.407   6.969  0.6390 -0.7890  0.6047
  257MOL    H5321045   2.530   4.559   7.042  2.1187  1.1840 -0.0914
  257MOL    C5421046   2.719   4.310   7.055 -0.5112  0.2152 -0.2678
  257MOL    O5521047   2.842   4.317   6.983 -0.0490 -0.1180 -0.6205
  257MOL    H5621048   2.647   4.252   6.997 -0.1792 -0.7123  0.2517
  257MOL    H5721049   2.744   4.245   7.139 -0.4171  1.4114  0.6439
  257MOL    C5821050   2.949   4.365   7.061  1.2022 -0.1072 -0.4821
  257MOL    O5921051   3.049   4.404   6.984 -0.0220 -0.0162 -0.0474
  257MOL    H6021052   2.980   4.284   7.127 -0.5023 -0.8288 -0.5280
  257MOL    H6121053   2.924   4.455   7.117  0.8154  0.4640 -1.5787
  257MOL    C6221054   3.130   4.304   6.926  0.2631  0.1841  0.2099
  257MOL    O6321055   3.233   4.267   7.007  0.2567  0.4359 -0.7066
  257MOL    H6421056   3.177   4.341   6.835  2.1609  0.2269  1.1735
  257MOL    H6521057   3.079   4.219   6.882 -0.6715  1.8875 -2.1346
  257MOL    C6621058   3.316   4.375   7.039 -0.0371  1.1271 -0.3980
  257MOL    O6721059   3.436   4.330   7.093 -0.7179 -0.3235 -0.2789
  257MOL    H6821060   3.269   4.435   7.117  0.1303  1.3546 -0.4689
  257MOL    H6921061   3.336   4.442   6.954  1.8654  1.9412  0.6601
  257MOL    C7021062   3.518   4.262   7.005  0.0555  0.2052  0.4625
  257MOL    O7121063   3.605   4.178   7.067  0.1811  0.0831 -0.1256
  257MOL    H7221064   3.564   4.328   6.931  0.2700 -0.7744 -0.2867
  257MOL    H7321065   3.452   4.198   6.946  0.9512 -1.1475  0.9276
  257MOL    C7421066   3.721   4.243   7.096  0.9784 -0.2178  0.2147
  257MOL    O7521067   3.800   4.264   6.985 -0.2209 -0.2938 -0.1789
  257MOL    H7621068   3.781   4.185   7.166 -0.4186 -1.8124  0.1294
  257MOL    H7721069   3.696   4.340   7.140 -0.2093 -1.7696  3.0739
  257MOL    C7821070   3.841   4.148   6.922  0.2937  0.2128  0.2695
  257MOL    O7921071   3.958   4.165   6.851  0.2443  0.3371  0.3669
  257MOL    H8021072   3.767   4.107   6.854  0.6614  2.0562 -1.2986
  257MOL    H8121073   3.854   4.067   6.994  3.3608 -0.5410 -1.0463
  257MOL    H8221074   3.949   4.244   6.799 -1.8510  1.3073  2.1215
  258MOL     C121075   4.126   1.542   3.798 -0.1747  0.5194 -0.2589
  258MOL     O221076   4.122   1.540   3.652 -0.8140  0.0038 -0.1643
  258MOL     H321077   4.194   1.621   3.830  1.9220 -0.6308 -1.6860
  258MOL     H421078   4.028   1.570   3.837 -1.3085 -1.1037 -1.8776
  258MOL     H521079   4.164   1.448   3.839 -0.0595  1.5739  2.1144
  258MOL     C621080   4.240   1.496   3.588  0.5647 -0.8691  0.3440
  258MOL     O721081   4.359   1.543   3.655  0.2534  0.3845  0.3107
  258MOL     H821082   4.231   1.530   3.484 -1.1566 -0.4470  0.6079
  258MOL     H921083   4.229   1.387   3.597  1.0750 -1.2091 -2.4975
  258MOL    C1021084   4.374   1.679   3.636 -0.4548 -0.1156 -0.2340
  258MOL    O1121085   4.441   1.707   3.514 -0.6372 -1.3442 -0.1760
  258MOL    H1221086   4.420   1.717   3.727  2.3954 -0.3123 -1.5130
  258MOL    H1321087   4.284   1.736   3.615 -0.4339 -0.6133 -1.7986
  258MOL    C1421088   4.489   1.837   3.512 -0.3607  0.5230 -0.2864
  258MOL    O1521089   4.389   1.929   3.488  0.2190 -0.0155 -0.5642
  258MOL    H1621090   4.575   1.844   3.445 -1.8531  1.9596 -2.1370
  258MOL    H1721091   4.533   1.875   3.604 -1.5648  1.0698  0.0769
  258MOL    C1821092   4.324   1.904   3.370  0.6167 -0.3720  0.2103
  258MOL    O1921093   4.406   1.918   3.257  0.2299  0.1780  0.0189
  258MOL    H2021094   4.244   1.978   3.371 -0.1615 -1.2082  0.5270
  258MOL    H2121095   4.270   1.810   3.354 -0.8109  0.4257  0.3099
  258MOL    C2221096   4.432   2.051   3.230  0.3228 -0.4363 -0.3086
  258MOL    O2321097   4.515   2.104   3.325  0.0254 -0.2084  0.2116
  258MOL    H2421098   4.343   2.111   3.244  0.9208  0.0830  1.4083
  258MOL    H2521099   4.464   2.059   3.126 -2.0904 -1.1221 -1.1336
  258MOL    C2621100   4.648   2.065   3.316  0.0282  0.3202 -0.3898
  258MOL    O2721101   4.727   2.158   3.255 -0.1105 -0.1354  0.0351
  258MOL    H2821102   4.657   1.967   3.267 -3.0091 -0.5901  0.7897
  258MOL    H2921103   4.684   2.050   3.418 -0.1238 -1.3798 -0.5749
  258MOL    C3021104   4.712   2.282   3.310 -0.6347  0.2889 -0.9593
  258MOL    O3121105   4.769   2.275   3.435 -0.6836 -0.0675 -0.3876
  258MOL    H3221106   4.606   2.309   3.303 -0.7587 -0.6217 -2.7924
  258MOL    H3321107   4.767   2.349   3.244 -0.8851  1.5057  0.0482
  258MOL    C3421108   4.907   2.246   3.436  0.6368  0.8304  0.4326
  258MOL    O3521109   4.932   2.110   3.462  0.1857  0.1275  0.4638
  258MOL    H3621110   4.948   2.304   3.519 -1.7684  1.3384  1.3034
  258MOL    H3721111   4.955   2.273   3.342 -0.2649 -1.5025 -0.7419
  258MOL    C3821112   4.922   2.077   3.597 -0.4741 -0.0543  0.4081
  258MOL    O3921113   4.958   1.943   3.628  0.4387  0.1557  0.5371
  258MOL    H4021114   4.820   2.095   3.630 -0.4964  0.1640  0.2220
  258MOL    H4121115   4.985   2.143   3.658  1.6392  0.4670 -2.2426
  258MOL    C4221116   4.854   1.854   3.612  0.1675 -0.8501 -0.1464
  258MOL    O4321117   4.739   1.879   3.690 -0.1312  0.3910 -0.4348
  258MOL    H4421118   4.890   1.752   3.625 -1.2392 -1.0897  2.2492
  258MOL    H4521119   4.814   1.861   3.511  2.9177  0.7812 -1.1829
  258MOL    C4621120   4.761   1.854   3.824  0.0452 -0.1180  0.3918
  258MOL    O4721121   4.801   1.972   3.891  0.1913 -0.6115 -0.2792
  258MOL    H4821122   4.844   1.784   3.833  0.6022  0.9091  3.8402
  258MOL    H4921123   4.679   1.805   3.876  1.5471  0.5224  3.4707
  258MOL    C5021124   4.822   1.953   4.027  0.2885  0.3892  0.7973
  258MOL    O5121125   4.935   1.870   4.051  0.1473 -0.5535  0.1863
  258MOL    H5221126   4.735   1.915   4.079  0.1645 -0.2436  0.1359
  258MOL    H5321127   4.842   2.054   4.062 -0.8488  1.7533 -2.3493
  258MOL    C5421128   5.052   1.935   4.011  0.3888 -0.2299 -0.8329
  258MOL    O5521129   5.160   1.856   4.058 -0.0832 -0.0256  0.2859
  258MOL    H5621130   5.055   2.028   4.068  0.7950 -0.8770  0.2146
  258MOL    H5721131   5.063   1.966   3.908 -0.5718 -0.4819 -1.0143
  258MOL    C5821132   5.193   1.748   3.973  0.2528  0.6712 -0.1761
  258MOL    O5921133   5.282   1.785   3.877  0.2051 -0.7012  0.2925
  258MOL    H6021134   5.104   1.717   3.918  0.7796 -1.6213  0.2109
  258MOL    H6121135   5.223   1.659   4.028 -0.0869  0.3384 -0.5228
  258MOL    C6221136   5.406   1.821   3.921  0.0522  0.2388  0.3108
  258MOL    O6321137   5.460   1.738   4.024 -0.0153  0.2469 -0.6144
  258MOL    H6421138   5.390   1.910   3.983  5.6311 -0.2752  2.7913
  258MOL    H6521139   5.477   1.846   3.842 -0.1726  0.5323  0.2044
  258MOL    C6621140   5.514   1.620   3.969  0.1978  0.4641 -0.3041
  258MOL    O6721141   5.631   1.650   3.892 -0.6045 -0.1507 -0.1985
  258MOL    H6821142   5.434   1.590   3.902  0.5857  0.4616 -0.7747
  258MOL    H6921143   5.534   1.536   4.036 -1.0492 -0.5334 -1.1728
  258MOL    C7021144   5.736   1.688   3.979  0.6637  0.5460  0.1702
  258MOL    O7121145   5.790   1.587   4.051 -0.3155 -0.2148  0.3219
  258MOL    H7221146   5.701   1.756   4.057 -1.7270  0.0044 -0.3705
  258MOL    H7321147   5.799   1.750   3.915  2.9572 -2.5569 -0.6569
  258MOL    C7421148   5.927   1.621   4.091 -0.8448 -0.4785 -0.2101
  258MOL    O7521149   5.934   1.697   4.208 -1.2956 -0.1036  0.4564
  258MOL    H7621150   5.986   1.667   4.012  1.8396 -1.1753  1.3226
  258MOL    H7721151   5.973   1.524   4.109 -0.4837 -0.1249  0.7931
  258MOL    C7821152   5.868   1.645   4.314  0.9015  0.2951 -0.1646
  258MOL    O7921153   5.918   1.717   4.429  0.4586 -0.2292  0.0326
  258MOL    H8021154   5.885   1.537   4.319  1.3615  0.3356 -0.8590
  258MOL    H8121155   5.760   1.658   4.308  0.6972 -1.2476  0.0445
  258MOL    H8221156   5.858   1.706   4.501  0.2368 -2.9947 -0.5512
  259MOL     C121157   0.333   6.823   3.612 -0.8126 -0.8542 -0.5374
  259MOL     O221158   0.274   6.909   3.515 -0.6989 -0.0307  0.2792
  259MOL     H321159   0.266   6.820   3.697  0.8187  1.2280  0.9022
  259MOL     H421160   0.369   6.728   3.574  1.4360 -0.8362  1.4104
  259MOL     H521161   0.431   6.864   3.639 -1.4189 -0.1894  0.6889
  259MOL     C621162   0.166   6.857   3.447  0.8646 -0.4519 -0.5238
  259MOL     O721163   0.050   6.876   3.522 -0.0487  0.6700 -0.1930
  259MOL     H821164   0.172   6.749   3.435  2.9141 -0.2912 -1.3036
  259MOL     H921165   0.162   6.906   3.349 -1.3828  1.8029  0.6478
  259MOL    C1021166   0.027   7.013   3.539  0.4603  0.1667  0.6415
  259MOL    O1121167   7.692   7.029   3.620 -0.1015  0.3069 -0.0511
  259MOL    H1221168   0.007   7.047   3.438 -2.2813 -0.9912  0.7379
  259MOL    H1321169   0.109   7.069   3.584  0.2897  0.7047  0.2718
  259MOL    C1421170   7.713   7.015   3.748  0.2477 -0.1251 -0.0336
  259MOL    O1521171   7.754   7.137   3.803 -0.3537 -0.5272  0.3107
  259MOL    H1621172   0.002   6.936   3.771 -0.0684 -0.0056  1.4514
  259MOL    H1721173   7.618   6.987   3.793 -0.7197  1.0116 -1.3305
  259MOL    C1821174   0.033   7.136   3.929  0.4312  0.3257 -0.1006
  259MOL    O1921175   7.750   7.073   4.036 -0.2152 -0.5646  0.7131
  259MOL    H2021176   0.078   7.230   3.960  0.6163  0.8354 -1.8508
  259MOL    H2121177   0.127   7.083   3.913 -1.0444 -2.1725 -0.7761
  259MOL    C2221178   7.659   7.153   4.102 -0.1802 -0.3622 -0.4964
  259MOL    O2321179   7.627   7.093   4.224 -0.4368 -0.1046 -0.2985
  259MOL    H2421180   7.570   7.173   4.042  0.9259 -0.3128 -2.1426
  259MOL    H2521181   7.709   7.247   4.125 -1.8105  0.4834 -0.3456
  259MOL    C2621182   7.557   6.975   4.214 -0.2809  0.4545 -0.1967
  259MOL    O2721183   7.429   6.998   4.181 -0.6182 -0.2731  0.1810
  259MOL    H2821184   7.553   6.934   4.315  1.0011 -1.0475 -0.7472
  259MOL    H2921185   7.603   6.895   4.157 -2.9838 -0.9297 -0.5353
  259MOL    C3021186   7.401   6.952   4.053 -0.1832 -0.0816 -0.0214
  259MOL    O3121187   7.411   7.052   3.950 -0.5416 -1.1156 -0.7523
  259MOL    H3221188   7.299   6.918   4.068 -0.5454  0.7171 -0.5891
  259MOL    H3321189   7.457   6.866   4.017  0.5203  0.4712 -0.2685
  259MOL    C3421190   7.306   7.135   3.946  0.1590 -0.6703 -0.3175
  259MOL    O3521191   7.198   7.071   3.893 -0.2412  0.8613 -0.5566
  259MOL    H3621192   7.341   7.216   3.882  2.7208 -0.7235  0.9577
  259MOL    H3721193   7.278   7.178   4.042  0.3255 -0.6200 -0.2918
  259MOL    C3821194   7.195   7.046   3.757  0.1338  0.7394 -0.3159
  259MOL    O3921195   7.196   7.162   3.686 -0.4193  0.0474  0.2978
  259MOL    H4021196   7.117   6.972   3.741  0.3538  0.2797  0.6685
  259MOL    H4121197   7.288   6.993   3.735  1.0282  2.0978  0.0928
  259MOL    C4221198   7.181   7.138   3.551  0.6354 -0.3982 -0.0505
  259MOL    O4321199   7.056   7.077   3.522  0.6985  0.0872  0.4830
  259MOL    H4421200   7.264   7.080   3.510 -0.2976 -1.2652 -0.7323
  259MOL    H4521201   7.187   7.235   3.503 -0.1893  0.3533  1.3158
  259MOL    C4621202   6.942   7.167   3.522 -0.3553 -0.3473 -0.7865
  259MOL    O4721203   6.938   7.227   3.394 -0.3183 -0.4634 -0.2280
  259MOL    H4821204   6.951   7.241   3.602 -0.1723  0.7623 -1.8191
  259MOL    H4921205   6.847   7.119   3.544 -2.4552  3.2549 -1.4862
  259MOL    C5021206   6.862   7.152   3.299 -0.3423  0.0437 -0.2560
  259MOL    O5121207   6.727   7.153   3.328  0.0881  0.0749  0.1531
  259MOL    H5221208   6.900   7.050   3.306 -1.1207 -0.1612  1.3588
  259MOL    H5321209   6.869   7.193   3.199  1.5674 -0.4739 -0.3552
  259MOL    C5421210   6.667   7.280   3.329  0.7238 -0.4494 -0.0894
  259MOL    O5521211   6.647   7.327   3.458 -0.0086 -0.6858  0.6572
  259MOL    H5621212   6.570   7.265   3.281  0.9144 -1.2017 -0.2402
  259MOL    H5721213   6.728   7.359   3.285  0.0863  0.5213  0.7423
  259MOL    C5821214   6.557   7.253   3.524  0.0789  0.1236 -0.1911
  259MOL    O5921215   6.426   7.272   3.473 -0.1583  0.8354 -0.0254
  259MOL    H6021216   6.554   7.290   3.627  2.7565 -0.4575  0.1317
  259MOL    H6121217   6.581   7.147   3.523 -1.1636 -0.1627 -0.0539
  259MOL    C6221218   6.320   7.221   3.553  0.0696  0.9922 -0.6748
  259MOL    O6321219   6.313   7.081   3.565  0.9063 -0.5069  0.3999
  259MOL    H6421220   6.219   7.248   3.522  0.8309  3.5612 -1.0666
  259MOL    H6521221   6.335   7.266   3.651  0.6125 -0.8906  0.1140
  259MOL    C6621222   6.276   7.014   3.450  0.4153 -0.4312 -0.2613
  259MOL    O6721223   6.302   6.878   3.464  0.3506 -0.1344  0.5516
  259MOL    H6821224   6.335   7.041   3.362 -0.5761 -2.3867 -1.5654
  259MOL    H6921225   6.173   7.039   3.426  0.4376  0.3633  0.4351
  259MOL    C7021226   6.231   6.826   3.577  0.4851 -0.0597  0.5000
  259MOL    O7121227   6.100   6.787   3.540  0.4462 -0.3595 -0.6815
  259MOL    H7221228   6.228   6.891   3.664 -1.3016 -0.5733  0.8398
  259MOL    H7321229   6.296   6.744   3.609  0.9622 -0.2958 -1.0000
  259MOL    C7421230   6.112   6.678   3.448 -0.0082 -0.6814 -0.3604
  259MOL    O7521231   5.993   6.641   3.398 -0.2507  0.0395 -0.0120
  259MOL    H7621232   6.148   6.595   3.508 -1.6728  0.0564  1.6914
  259MOL    H7721233   6.175   6.708   3.364  1.4160 -0.3011  0.8289
  259MOL    C7821234   5.894   6.635   3.497 -0.4870 -0.1960 -0.9267
  259MOL    O7921235   5.792   6.557   3.448  0.2506 -0.1758  0.0117
  259MOL    H8021236   5.852   6.735   3.509 -2.3107 -0.9657 -0.7244
  259MOL    H8121237   5.924   6.588   3.591  0.6168  1.9313 -0.1551
  259MOL    H8221238   5.766   6.591   3.363  1.3154  0.0194 -0.2403
  260MOL     C121239   6.833   6.611   5.706  0.1569  0.0081 -0.2440
  260MOL     O221240   6.697   6.578   5.673  0.4952 -0.1353 -0.4474
  260MOL     H321241   6.879   6.656   5.617  0.7084 -0.0415  0.0163
  260MOL     H421242   6.836   6.666   5.800  0.2433 -0.9461  0.3189
  260MOL     H521243   6.882   6.516   5.728 -1.9272 -0.5577  2.1256
  260MOL     C621244   6.626   6.691   5.631  0.3062 -0.0763  0.9219
  260MOL     O721245   6.681   6.741   5.510 -0.6352 -0.3490  0.0968
  260MOL     H821246   6.622   6.766   5.711  1.2710 -0.9953  1.8430
  260MOL     H921247   6.524   6.660   5.609  0.3068  1.4018 -1.3586
  260MOL    C1021248   6.660   6.664   5.394 -0.0139 -0.0110  0.0572
  260MOL    O1121249   6.707   6.736   5.284 -0.4091 -0.0637  0.3150
  260MOL    H1221250   6.552   6.644   5.391 -0.1604  0.7695  0.0717
  260MOL    H1321251   6.709   6.567   5.402 -0.8528 -0.4402  0.0826
  260MOL    C1421252   6.843   6.716   5.255  0.4222 -0.3667  0.1386
  260MOL    O1521253   6.864   6.598   5.198  0.0995 -0.7290  0.5093
  260MOL    H1621254   6.893   6.713   5.352 -0.2952  1.3699  0.5772
  260MOL    H1721255   6.881   6.797   5.193 -2.1337 -0.1477 -1.2228
  260MOL    C1821256   6.821   6.590   5.063 -0.6740 -0.0302 -0.0914
  260MOL    O1921257   6.915   6.640   4.971  0.7967 -0.4614 -0.5666
  260MOL    H2021258   6.729   6.648   5.048 -0.9141 -0.0374  1.3356
  260MOL    H2121259   6.801   6.485   5.043  0.4497 -0.0918 -0.9286
  260MOL    C2221260   7.022   6.549   4.943 -0.0444 -0.0933  0.2326
  260MOL    O2321261   6.990   6.443   4.855  0.4984 -0.2001  0.1240
  260MOL    H2421262   7.046   6.503   5.039 -0.3675  1.2569  0.9648
  260MOL    H2521263   7.108   6.600   4.899  0.2991 -2.1707 -1.6007
  260MOL    C2621264   6.979   6.478   4.721 -0.0088 -0.4904 -0.6685
  260MOL    O2721265   6.989   6.366   4.639  0.3577  0.3637 -0.6800
  260MOL    H2821266   7.051   6.547   4.678 -1.4004  3.3278  2.7661
  260MOL    H2921267   6.879   6.519   4.706 -0.6538 -2.4463 -1.8422
  260MOL    C3021268   6.883   6.273   4.652  0.0066 -0.0547  0.5076
  260MOL    O3121269   6.765   6.328   4.608  0.7490 -0.5277 -0.1394
  260MOL    H3221270   6.876   6.245   4.757 -3.7213 -0.4050  0.2508
  260MOL    H3321271   6.916   6.189   4.591  0.2645 -0.0337  0.6166
  260MOL    C3421272   6.667   6.238   4.629 -0.0068  0.8221  0.0528
  260MOL    O3521273   6.643   6.219   4.764 -0.6618 -0.0133  0.0720
  260MOL    H3621274   6.686   6.144   4.578  0.2365  0.9227 -0.0402
  260MOL    H3721275   6.582   6.286   4.581 -0.9714 -0.4040  0.4988
  260MOL    C3821276   6.613   6.329   4.839  0.1625  0.1750  0.6808
  260MOL    O3921277   6.506   6.410   4.786 -0.1355  0.5451 -0.0151
  260MOL    H4021278   6.701   6.389   4.863 -0.3910  0.8325  1.1216
  260MOL    H4121279   6.579   6.294   4.937  0.6033 -0.6243  0.5472
  260MOL    C4221280   6.382   6.339   4.785 -0.4994  0.7239 -0.1886
  260MOL    O4321281   6.340   6.292   4.917  0.2626 -0.1530 -0.0177
  260MOL    H4421282   6.400   6.252   4.722  0.2674  1.8019 -1.5048
  260MOL    H4521283   6.307   6.391   4.725 -0.9644 -0.8092 -0.9594
  260MOL    C4621284   6.304   6.402   5.003  0.5431  0.2911  0.1558
  260MOL    O4721285   6.219   6.355   5.101 -0.0065  0.0724 -0.1405
  260MOL    H4821286   6.254   6.485   4.953 -1.5204 -1.6730 -1.1678
  260MOL    H4921287   6.398   6.438   5.045  0.4842 -0.1652  0.6769
  260MOL    C5021288   6.092   6.312   5.050 -0.4013 -0.1201  0.1365
  260MOL    O5121289   6.022   6.415   4.987 -0.5633 -0.5091 -0.1187
  260MOL    H5221290   6.029   6.261   5.124  1.6301 -2.0507  0.6264
  260MOL    H5321291   6.096   6.239   4.969 -0.4643  1.8954 -1.7021
  260MOL    C5421292   5.952   6.501   5.081  0.0921 -0.7514  0.5135
  260MOL    O5521293   5.835   6.440   5.115 -0.1966  0.1670  0.2706
  260MOL    H5621294   5.942   6.601   5.039  4.5748  0.2615  1.6574
  260MOL    H5721295   6.019   6.519   5.165 -0.1345 -1.7490  0.9190
  260MOL    C5821296   5.724   6.474   5.044 -0.1993  0.4765  0.8565
  260MOL    O5921297   5.676   6.605   5.061  0.0396 -0.8396 -0.0772
  260MOL    H6021298   5.640   6.408   5.070 -0.2829 -0.7159 -2.2975
  260MOL    H6121299   5.730   6.457   4.937  0.5085  0.4324  0.9057
  260MOL    C6221300   5.662   6.637   5.193  0.7224  0.4110  0.1209
  260MOL    O6321301   5.778   6.679   5.256 -0.0165 -0.3452  0.2590
  260MOL    H6421302   5.624   6.556   5.256  0.5024  1.2101  1.0285
  260MOL    H6521303   5.580   6.710   5.187  0.3193 -0.0597 -0.2049
  260MOL    C6621304   5.786   6.816   5.255  0.1513  0.2203  0.4857
  260MOL    O6721305   5.679   6.880   5.312  0.3790 -0.2810  0.0010
  260MOL    H6821306   5.810   6.847   5.153  0.8658 -0.1251  0.5481
  260MOL    H6921307   5.872   6.838   5.319  0.8014 -0.8742  0.0120
  260MOL    C7021308   5.655   6.845   5.440 -0.2681 -0.2993 -0.5215
  260MOL    O7121309   5.751   6.908   5.523  0.2366 -0.4504  0.4723
  260MOL    H7221310   5.665   6.739   5.459  2.2209 -0.0269 -0.2012
  260MOL    H7321311   5.556   6.871   5.477  1.1286  2.0014  1.7304
  260MOL    C7421312   5.732   7.048   5.527 -0.4444  0.4485 -0.4959
  260MOL    O7521313   5.615   7.089   5.595 -0.4650 -0.0149  0.1923
  260MOL    H7621314   5.726   7.097   5.430  1.8120 -0.2119 -1.0002
  260MOL    H7721315   5.823   7.084   5.573  0.0508 -2.7865  1.2241
  260MOL    C7821316   5.627   7.095   5.734 -0.3189 -0.0617 -0.0656
  260MOL    O7921317   5.501   7.104   5.794  0.0632  0.4753 -0.4676
  260MOL    H8021318   5.682   7.184   5.765 -0.2143 -0.6053  1.3404
  260MOL    H8121319   5.663   7.002   5.777  1.3698 -0.0969 -1.4773
  260MOL    H8221320   5.504   7.078   5.885 -1.1491  0.4090 -0.4375
  261MOL     C121321   0.522   4.858   6.028 -0.2024  0.4612  0.1911
  261MOL     O221322   0.468   4.726   6.037 -0.6088 -0.2823  0.6889
  261MOL     H321323   0.603   4.878   6.098  0.1284 -0.5338  0.0920
  261MOL     H421324   0.557   4.869   5.926  0.3607 -2.7864 -0.0143
  261MOL     H521325   0.440   4.928   6.044 -2.3098 -2.1367  1.1385
  261MOL     C621326   0.567   4.626   6.024 -0.8356 -0.1067  0.1990
  261MOL     O721327   0.618   4.610   5.891 -0.0250  0.4757  0.0918
  261MOL     H821328   0.537   4.530   6.066 -2.4872 -0.9017 -2.6879
  261MOL     H921329   0.650   4.656   6.089 -1.8292 -1.5091  2.1698
  261MOL    C1021330   0.527   4.545   5.810 -0.0102  0.3787 -0.5424
  261MOL    O1121331   0.542   4.405   5.831 -0.1604  0.2175 -0.4121
  261MOL    H1221332   0.566   4.558   5.709 -0.1775 -2.7170 -1.0535
  261MOL    H1321333   0.421   4.569   5.818 -0.3028 -1.1553  0.2926
  261MOL    C1421334   0.490   4.319   5.736  1.0846  0.1791  0.0053
  261MOL    O1521335   0.359   4.289   5.767  0.0945  0.4714  0.0291
  261MOL    H1621336   0.555   4.233   5.753  1.3622  0.5109  0.6291
  261MOL    H1721337   0.502   4.355   5.634 -1.5123  1.4628  0.1102
  261MOL    C1821338   0.314   4.169   5.706 -0.9776 -0.2396 -0.2307
  261MOL    O1921339   0.320   4.181   5.572  0.3409  0.4248 -0.6788
  261MOL    H2021340   0.214   4.135   5.733 -1.6724 -0.3132 -2.7952
  261MOL    H2121341   0.383   4.086   5.719  0.5790  0.7307 -2.1003
  261MOL    C2221342   0.200   4.239   5.516 -0.0734 -0.7637 -0.1175
  261MOL    O2321343   0.092   4.158   5.531 -0.7004 -0.4825  0.2780
  261MOL    H2421344   0.217   4.266   5.411 -0.7963  1.9328  0.4355
  261MOL    H2521345   0.188   4.331   5.573 -3.7160  0.0389 -2.0164
  261MOL    C2621346   0.094   4.052   5.450  0.2877 -0.6791  0.2468
  261MOL    O2721347   7.767   3.975   5.474 -0.1317  0.7457 -0.2765
  261MOL    H2821348   0.192   4.005   5.458  1.5077  1.6617 -0.4201
  261MOL    H2921349   0.085   4.077   5.344  0.6945  1.5453  0.7020
  261MOL    C3021350   7.776   3.911   5.598 -0.4190 -0.1195  0.0692
  261MOL    O3121351   0.106   3.830   5.614 -0.6552 -1.0711 -0.1987
  261MOL    H3221352   7.682   3.857   5.611  0.2657 -0.9535  1.6474
  261MOL    H3321353   7.776   3.995   5.669  2.7291  0.3269 -0.3859
  261MOL    C3421354   0.099   3.713   5.542  0.5748 -0.4749  0.1937
  261MOL    O3521355   7.784   3.630   5.593  0.1802 -0.1719  0.2262
  261MOL    H3621356   0.188   3.650   5.545  0.7728 -0.2727 -1.0153
  261MOL    H3721357   0.075   3.737   5.439  0.6562  0.1794  0.3234
  261MOL    C3821358   7.732   3.538   5.504 -0.0975 -0.1732 -0.8498
  261MOL    O3921359   7.638   3.591   5.412 -0.3297 -0.3361 -0.0020
  261MOL    H4021360   7.698   3.453   5.563 -0.8224  0.5239 -0.2637
  261MOL    H4121361   0.031   3.503   5.442  0.7171  0.3009 -0.0443
  261MOL    C4221362   7.571   3.490   5.345 -0.2906 -0.0814  0.2315
  261MOL    O4321363   7.652   3.408   5.267  0.3029 -0.1568  0.0582
  261MOL    H4421364   7.490   3.537   5.290 -1.1325  0.9061  2.2589
  261MOL    H4521365   7.516   3.442   5.426 -5.0138  3.6435 -0.6207
  261MOL    C4621366   7.712   3.479   5.170  0.2633  0.4485  0.0550
  261MOL    O4721367   0.044   3.407   5.132  0.4594 -0.9529  0.1079
  261MOL    H4821368   7.733   3.577   5.211 -1.5551  1.3497 -1.0955
  261MOL    H4921369   7.643   3.494   5.087 -0.3537  2.3264  0.8952
  261MOL    C5021370   0.025   3.328   5.018 -0.4120  0.0581 -0.1040
  261MOL    O5121371   0.039   3.406   4.905  0.0965 -0.0419 -0.7159
  261MOL    H5221372   7.712   3.279   5.025 -1.2355  1.4415 -1.4193
  261MOL    H5321373   0.115   3.269   4.999 -0.4143 -0.7106  2.1431
  261MOL    C5421374   7.733   3.366   4.804  0.5330  0.3731 -0.1992
  261MOL    O5521375   7.609   3.436   4.799  0.2194  0.4099  0.0521
  261MOL    H5621376   7.705   3.261   4.811 -0.7991  0.6866 -0.5492
  261MOL    H5721377   0.007   3.375   4.712  2.5015  0.4339  1.0310
  261MOL    C5821378   7.634   3.570   4.772  0.2415 -0.4908  0.2892
  261MOL    O5921379   7.651   3.587   4.638  0.6971  0.3251 -0.1221
  261MOL    H6021380   7.718   3.613   4.828  1.7229  0.9236 -2.8919
  261MOL    H6121381   7.552   3.637   4.797  0.6798  1.6781 -3.7463
  261MOL    C6221382   7.542   3.548   4.559 -0.5135  0.0309 -0.1227
  261MOL    O6321383   7.426   3.615   4.600 -0.1151 -0.4592 -0.0434
  261MOL    H6421384   7.529   3.440   4.564  0.3116 -0.0126  1.0814
  261MOL    H6521385   7.566   3.570   4.455  2.5262 -0.3549  0.4475
  261MOL    C6621386   7.427   3.756   4.568 -0.1033 -0.0476 -0.0090
  261MOL    O6721387   7.444   3.838   4.675  0.1893 -0.1374  0.1465
  261MOL    H6821388   7.332   3.785   4.523 -0.9873 -2.1692  0.4268
  261MOL    H6921389   7.496   3.788   4.489 -0.3804  0.2519 -0.1295
  261MOL    C7021390   7.333   3.841   4.756 -0.3794  0.5865  0.4003
  261MOL    O7121391   7.310   3.732   4.840  0.3034 -0.1547 -0.3864
  261MOL    H7221392   7.244   3.851   4.694  1.2160  0.6541 -1.9246
  261MOL    H7321393   7.349   3.922   4.828  0.6305 -1.6559  2.8093
  261MOL    C7421394   7.213   3.752   4.936 -0.1217 -0.4689  0.0960
  261MOL    O7521395   7.267   3.802   5.052 -0.6265 -0.0559  0.1702
  261MOL    H7621396   7.164   3.656   4.952 -0.4798  0.1527  2.9873
  261MOL    H7721397   7.144   3.833   4.912  0.4320  0.1928  0.7344
  261MOL    C7821398   7.354   3.712   5.110  0.2414  0.1823 -0.8027
  261MOL    O7921399   7.406   3.760   5.237 -0.6418  0.0840 -0.0963
  261MOL    H8021400   7.440   3.709   5.044  1.1715  1.8617  0.3037
  261MOL    H8121401   7.313   3.612   5.124 -0.2087  0.7091  1.9804
  261MOL    H8221402   7.476   3.821   5.218 -1.3167  1.1573  0.7846
  262MOL     C121403   4.649   2.272   2.945  0.0390  0.0595  0.0008
  262MOL     O221404   4.725   2.159   2.901  0.3108 -0.6989  0.2422
  262MOL     H321405   4.714   2.336   3.004  2.2321 -1.6223 -0.5313
  262MOL     H421406   4.599   2.330   2.866  1.4187  1.7275  0.3164
  262MOL     H521407   4.567   2.252   3.013  0.5950  0.7786  0.8983
  262MOL     C621408   4.650   2.078   2.811  0.1171 -0.2098 -0.5650
  262MOL     O721409   4.540   2.016   2.872  0.3335 -0.0135  0.3798
  262MOL     H821410   4.715   2.003   2.767  0.6611  1.0024 -1.8588
  262MOL     H921411   4.607   2.144   2.736  0.7962  0.7900 -0.0856
  262MOL    C1021412   4.573   1.911   2.948  0.3225 -0.4975  0.7136
  262MOL    O1121413   4.636   1.813   2.871  0.4343 -0.3205  0.2586
  262MOL    H1221414   4.494   1.865   3.007 -0.2694  1.9944  1.8957
  262MOL    H1321415   4.651   1.938   3.018  0.1306 -1.8867  1.4855
  262MOL    C1421416   4.548   1.739   2.791 -0.1339  0.2925 -0.2882
  262MOL    O1521417   4.456   1.661   2.868 -0.3241 -0.0105  0.1549
  262MOL    H1621418   4.615   1.676   2.733  0.2675 -0.6786  1.1939
  262MOL    H1721419   4.488   1.804   2.727  0.0531  0.7729  0.0175
  262MOL    C1821420   4.513   1.572   2.957 -0.7597 -0.4507  0.1261
  262MOL    O1921421   4.416   1.489   3.021  0.2038  0.0080 -0.0043
  262MOL    H2021422   4.573   1.629   3.028  1.1181  0.8989 -2.4391
  262MOL    H2121423   4.577   1.507   2.898 -0.2286  0.5047 -0.3788
  262MOL    C2221424   4.355   1.558   3.127  0.4564  0.1465  0.0060
  262MOL    O2321425   4.302   1.473   3.231  0.0770  0.0096  0.3752
  262MOL    H2421426   4.274   1.609   3.076 -0.0717 -0.7547 -0.0624
  262MOL    H2521427   4.429   1.621   3.177  0.7002  0.4398 -0.7121
  262MOL    C2621428   4.192   1.397   3.198 -0.2269 -0.0613  0.4958
  262MOL    O2721429   4.079   1.474   3.148 -0.1859 -0.1375 -0.2206
  262MOL    H2821430   4.161   1.335   3.282  0.4239 -1.6949 -0.4329
  262MOL    H2921431   4.227   1.324   3.124  0.0063  1.5243 -0.9966
  262MOL    C3021432   4.020   1.541   3.256  0.1935  0.9355 -0.1582
  262MOL    O3121433   3.933   1.450   3.319  0.1731 -0.7554  0.1331
  262MOL    H3221434   3.967   1.628   3.218 -1.3492  0.0909  0.0181
  262MOL    H3321435   4.087   1.585   3.330  0.1053  2.6799 -1.0994
  262MOL    C3421436   3.812   1.431   3.250  0.3110 -0.1126  0.1645
  262MOL    O3521437   3.739   1.322   3.307  0.2707 -0.5561 -0.4809
  262MOL    H3621438   3.832   1.415   3.144  0.2261 -1.1557  0.3084
  262MOL    H3721439   3.745   1.517   3.242 -0.0017 -0.3309  0.4589
  262MOL    C3821440   3.692   1.355   3.431  0.5339 -0.2890 -0.2062
  262MOL    O3921441   3.609   1.465   3.432 -0.7370  0.0112 -0.1678
  262MOL    H4021442   3.774   1.373   3.501 -1.1663  2.4864  1.1447
  262MOL    H4121443   3.632   1.272   3.468 -0.1577  0.5993  0.6837
  262MOL    C4221444   3.485   1.444   3.365 -0.5066 -0.4934 -0.5327
  262MOL    O4321445   3.388   1.389   3.453  0.6227 -0.7496  0.0728
  262MOL    H4421446   3.499   1.375   3.282  1.6601 -2.0245  1.0546
  262MOL    H4521447   3.456   1.539   3.321 -0.2776  1.0573  2.4937
  262MOL    C4621448   3.265   1.378   3.395 -0.1206  0.3528 -0.1198
  262MOL    O4721449   3.199   1.503   3.384  0.0272 -0.5602  0.5450
  262MOL    H4821450   3.202   1.306   3.447  0.1407 -0.5307 -0.9991
  262MOL    H4921451   3.276   1.337   3.294  0.3385  0.0013  0.0720
  262MOL    C5021452   3.170   1.550   3.509  0.2015 -0.2349 -0.6211
  262MOL    O5121453   3.068   1.482   3.567  0.1126 -0.4024  0.6967
  262MOL    H5221454   3.156   1.658   3.517  0.1098 -0.2886 -0.0362
  262MOL    H5321455   3.254   1.531   3.576 -0.9354  2.0113  1.5503
  262MOL    C5421456   2.943   1.506   3.496  0.2861 -0.6770  0.9192
  262MOL    O5521457   2.885   1.611   3.551 -0.2156 -0.1988 -0.2128
  262MOL    H5621458   2.876   1.422   3.519 -1.1788 -0.0443 -0.9655
  262MOL    H5721459   2.958   1.521   3.389 -2.0508  1.3751  0.8472
  262MOL    C5821460   2.768   1.644   3.487 -0.0708  0.1575  0.7078
  262MOL    O5921461   2.800   1.714   3.371 -0.2894 -0.2948 -0.1123
  262MOL    H6021462   2.708   1.704   3.555  1.4933  0.9874  1.3501
  262MOL    H6121463   2.705   1.557   3.465 -0.5562  0.5972  0.3640
  262MOL    C6221464   2.840   1.847   3.396  0.1368  0.2962 -0.5305
  262MOL    O6321465   2.726   1.925   3.398 -0.0339  0.2399 -0.0056
  262MOL    H6421466   2.901   1.889   3.315  0.3306  0.0662 -0.5062
  262MOL    H6521467   2.902   1.868   3.483 -1.2685  2.1152  0.0293
  262MOL    C6621468   2.752   2.065   3.427  0.2112  0.7968 -0.3156
  262MOL    O6721469   2.795   2.080   3.553  0.0970 -0.4024 -0.5857
  262MOL    H6821470   2.666   2.128   3.402 -1.6179 -1.4377  0.2084
  262MOL    H6921471   2.837   2.104   3.372  1.7261 -0.1276  1.3211
  262MOL    C7021472   2.697   2.063   3.651  0.3613  0.2458  1.0153
  262MOL    O7121473   2.751   2.105   3.769  0.0535 -0.4231  0.2848
  262MOL    H7221474   2.665   1.960   3.663  1.7232 -0.7903 -3.2491
  262MOL    H7321475   2.602   2.114   3.633  0.2648 -0.6568 -1.2174
  262MOL    C7421476   2.712   2.235   3.797 -0.4745 -0.0628  0.7056
  262MOL    O7521477   2.581   2.247   3.846  0.4935 -0.2052 -0.2126
  262MOL    H7621478   2.743   2.311   3.725  1.1141 -0.3430  1.0831
  262MOL    H7721479   2.778   2.274   3.875  0.7715 -0.9658  0.1075
  262MOL    C7821480   2.559   2.220   3.982  0.3899 -0.5443 -0.2225
  262MOL    O7921481   2.417   2.207   3.996 -0.1340  0.0250 -0.0623
  262MOL    H8021482   2.587   2.304   4.045  1.9194 -1.1069 -0.1407
  262MOL    H8121483   2.605   2.128   4.019 -0.8354 -1.0791  0.0031
  262MOL    H8221484   2.388   2.296   3.986 -1.0913 -0.2087  0.5956
  263MOL     C121485   1.752   6.719   6.672 -0.2113 -0.1582 -0.0009
  263MOL     O221486   1.719   6.820   6.578 -0.5175 -0.1281  0.0749
  263MOL     H321487   1.856   6.686   6.671 -0.2621 -0.5245  2.3949
  263MOL     H421488   1.732   6.741   6.777  1.4081 -0.0884  0.3124
  263MOL     H521489   1.687   6.637   6.641  1.2158 -1.1621 -0.3877
  263MOL     C621490   1.788   6.937   6.608 -0.3227  0.6401 -0.2223
  263MOL     O721491   1.780   6.979   6.738  0.2400  0.1001 -0.4004
  263MOL     H821492   1.767   7.011   6.531  1.0582 -0.6414 -1.8472
  263MOL     H921493   1.896   6.920   6.598 -0.4605 -0.5511  0.2810
  263MOL    C1021494   1.820   7.109   6.759  0.1903 -0.3277  0.2009
  263MOL    O1121495   1.949   7.135   6.711  0.7100  0.7227 -0.0031
  263MOL    H1221496   1.802   7.149   6.859 -1.2710 -0.5047  0.0148
  263MOL    H1321497   1.747   7.161   6.698  0.6743  1.1368  0.8500
  263MOL    C1421498   2.048   7.106   6.815  0.4877 -0.7846  0.7528
  263MOL    O1521499   2.072   7.207   6.902  0.4323 -0.7057 -0.2235
  263MOL    H1621500   2.143   7.080   6.770  1.8267  0.8269  2.5734
  263MOL    H1721501   2.023   7.015   6.871  0.5117  0.4430  2.8062
  263MOL    C1821502   2.149   7.164   7.015 -0.3884  0.5069 -0.2026
  263MOL    O1921503   2.083   7.074   7.100 -0.7522 -0.0067 -0.2062
  263MOL    H2021504   2.173   7.255   7.069 -1.4337  1.9480 -2.0831
  263MOL    H2121505   2.244   7.124   6.981 -0.9482 -1.5786  0.6390
  263MOL    C2221506   1.960   7.117   7.158 -0.3003  0.3569  0.2038
  263MOL    O2321507   1.977   7.187   7.281 -0.6089 -0.3176  0.2352
  263MOL    H2421508   1.899   7.027   7.162 -0.4144  0.5017  2.0891
  263MOL    H2521509   1.920   7.179   7.078 -2.1315  0.4937  1.2030
  263MOL    C2621510   1.976   7.105   7.392  0.6723  0.0394 -0.7373
  263MOL    O2721511   1.841   7.060   7.423  0.1927  0.1779  0.1714
  263MOL    H2821512   2.014   7.161   7.478 -0.1029 -1.0001  0.3012
  263MOL    H2921513   2.029   7.012   7.372 -0.7845 -0.5335 -1.9875
  263MOL    C3021514   1.749   7.165   7.449 -0.2816  0.4056  0.2252
  263MOL    O3121515   1.620   7.119   7.426 -0.1712 -0.1330 -0.0001
  263MOL    H3221516   1.781   7.257   7.401 -2.0645 -0.2290 -2.2842
  263MOL    H3321517   1.770   7.182   7.555 -1.4742  2.3535  0.1797
  263MOL    C3421518   1.573   7.136   7.300  0.3086  0.3451  0.2257
  263MOL    O3521519   1.521   7.262   7.280  0.2160 -0.1849 -0.4890
  263MOL    H3621520   1.499   7.059   7.277  0.6582 -1.2366  4.0302
  263MOL    H3721521   1.655   7.116   7.230 -0.1378  0.8974 -0.4629
  263MOL    C3821522   1.529   7.297   7.150  0.4076 -0.1819  0.3660
  263MOL    O3921523   1.660   7.313   7.095  0.3508 -0.4073 -0.3898
  263MOL    H4021524   1.469   7.386   7.129  0.9987  0.1407  0.0216
  263MOL    H4121525   1.485   7.219   7.089 -0.1296 -0.1756  0.7384
  263MOL    C4221526   1.725   7.420   7.149  0.3387  0.3657 -0.8294
  263MOL    O4321527   1.676   7.542   7.093  0.4855  0.8947  0.5926
  263MOL    H4421528   1.833   7.414   7.137  0.6182  2.2994  0.4116
  263MOL    H4521529   1.711   7.436   7.256  2.8204 -0.7631 -0.3167
  263MOL    C4621530   1.742   7.567   6.977  0.1706 -0.5256  0.7993
  263MOL    O4721531   1.874   7.591   6.993 -0.1515 -0.2255 -0.5921
  263MOL    H4821532   1.698   7.655   6.932 -0.2474 -0.6749  0.9144
  263MOL    H4921533   1.706   7.490   6.909  0.2862  1.1310 -1.1500
  263MOL    C5021534   1.958   7.521   6.908  0.0780  0.7495  0.2820
  263MOL    O5121535   1.976   7.575   6.779  0.6457  0.1954 -0.5117
  263MOL    H5221536   1.937   7.414   6.903 -1.1670  0.9271  1.4613
  263MOL    H5321537   2.051   7.532   6.964 -0.9967  2.3019  1.8169
  263MOL    C5421538   1.936   7.503   6.673 -0.3539 -0.4895  0.2802
  263MOL    O5521539   1.800   7.515   6.672 -0.1382  0.7069  0.0069
  263MOL    H5621540   1.975   7.402   6.682 -1.3829 -0.9082  0.1186
  263MOL    H5721541   1.988   7.543   6.586 -0.4845  1.0931  0.9217
  263MOL    C5821542   1.758   7.627   6.603  0.8728 -0.1558  0.5735
  263MOL    O5921543   1.621   7.630   6.596 -0.0966  0.1783  0.1127
  263MOL    H6021544   1.798   7.633   6.502  0.1599 -0.7838  0.2454
  263MOL    H6121545   1.793   7.710   6.665 -2.6274  0.4922  1.8091
  263MOL    C6221546   1.577   7.546   6.504  0.1230 -0.3336 -0.1664
  263MOL    O6321547   1.463   7.478   6.548 -0.3036 -0.1758  0.2116
  263MOL    H6421548   1.641   7.471   6.457  3.3462  3.2970 -1.8528
  263MOL    H6521549   1.551   7.611   6.421  1.4447  1.8463  1.1019
  263MOL    C6621550   1.491   7.369   6.620  0.6125 -0.0119 -0.4576
  263MOL    O6721551   1.534   7.261   6.544  0.2594 -1.0824 -0.0541
  263MOL    H6821552   1.402   7.338   6.675  1.3209 -1.6120 -0.2004
  263MOL    H6921553   1.564   7.395   6.697 -0.4532  2.0473 -0.1086
  263MOL    C7021554   1.449   7.208   6.444 -0.7195 -0.2691 -1.4892
  263MOL    O7121555   1.343   7.150   6.504 -0.1644 -0.3466  0.1257
  263MOL    H7221556   1.517   7.141   6.392  0.0199 -1.2631  0.6943
  263MOL    H7321557   1.423   7.289   6.375  0.3141  0.4371 -1.0629
  263MOL    C7421558   1.301   7.040   6.422  0.2162 -0.4535  0.1468
  263MOL    O7521559   1.396   6.947   6.391 -0.6958  0.1542 -0.0128
  263MOL    H7621560   1.253   7.075   6.331  1.4407 -0.0961 -0.3630
  263MOL    H7721561   1.215   6.995   6.472 -1.5254  0.8271 -1.6197
  263MOL    C7821562   1.419   6.857   6.500 -0.0135 -0.3935 -0.8854
  263MOL    O7921563   1.485   6.739   6.456  0.6065 -0.0970  0.3153
  263MOL    H8021564   1.327   6.826   6.550 -0.4798 -0.6791 -1.9203
  263MOL    H8121565   1.483   6.918   6.565  0.4579  0.3347 -2.0139
  263MOL    H8221566   1.577   6.759   6.457  0.4330  0.8575 -1.1783
  264MOL     C121567   3.443   4.413   1.875  0.7962  0.2388  0.2679
  264MOL     O221568   3.567   4.447   1.817  0.0728  0.3805 -0.0250
  264MOL     H321569   3.448   4.322   1.935  1.3194 -0.4354 -0.7800
  264MOL     H421570   3.380   4.492   1.916 -0.2833 -1.0719  1.1929
  264MOL     H521571   3.386   4.385   1.787  3.5928 -0.3490 -1.4350
  264MOL     C621572   3.660   4.489   1.915  0.3341  1.1917  0.1760
  264MOL     O721573   3.685   4.395   2.009  0.1460  0.3724 -0.0047
  264MOL     H821574   3.619   4.579   1.960  0.1604  1.4795 -0.5445
  264MOL     H921575   3.748   4.520   1.860  0.6092  0.4262  0.1777
  264MOL    C1021576   3.753   4.282   1.963  0.1286 -0.1478 -0.3644
  264MOL    O1121577   3.810   4.213   2.073 -0.5832 -0.4548  0.6025
  264MOL    H1221578   3.841   4.300   1.901  0.5063  1.0662  0.5099
  264MOL    H1321579   3.680   4.223   1.908 -0.2522  1.4411 -1.6164
  264MOL    C1421580   3.725   4.135   2.144 -0.0856 -0.5922 -1.0230
  264MOL    O1521581   3.698   4.023   2.068 -0.1890 -0.4268  0.1220
  264MOL    H1621582   3.638   4.191   2.180 -0.6665 -2.8471  1.1960
  264MOL    H1721583   3.767   4.108   2.241  1.0510 -0.6681 -1.5310
  264MOL    C1821584   3.793   3.920   2.077  0.9291 -0.1892 -0.0645
  264MOL    O1921585   3.717   3.806   2.057  0.5358  0.4609 -0.0850
  264MOL    H2021586   3.844   3.909   2.173  2.6889 -1.5272 -1.1229
  264MOL    H2121587   3.872   3.930   2.003  1.8575  2.3956  1.2113
  264MOL    C2221588   3.684   3.779   1.928  0.4290  0.2687  0.3793
  264MOL    O2321589   3.702   3.651   1.889 -0.2616  0.0508  0.1329
  264MOL    H2421590   3.741   3.831   1.852 -0.2309  1.9406  1.0056
  264MOL    H2521591   3.582   3.818   1.925 -0.1717 -1.2829 -0.0212
  264MOL    C2621592   3.612   3.561   1.947  1.2018  0.2597  0.2414
  264MOL    O2721593   3.485   3.549   1.882  0.1643  0.2002 -0.3947
  264MOL    H2821594   3.599   3.594   2.050 -1.3611  2.2224 -0.6381
  264MOL    H2921595   3.665   3.467   1.961 -1.5424 -1.3757 -0.0350
  264MOL    C3021596   3.501   3.489   1.759 -0.0524 -0.1933 -0.8298
  264MOL    O3121597   3.523   3.352   1.754  0.1405 -0.3639 -0.6483
  264MOL    H3221598   3.574   3.539   1.696  0.3159 -0.1717 -0.3930
  264MOL    H3321599   3.410   3.516   1.705 -1.1712 -1.7433  0.2390
  264MOL    C3421600   3.423   3.285   1.827 -0.0995  0.1498 -0.1421
  264MOL    O3521601   3.462   3.150   1.843  0.1541  0.3222  0.1982
  264MOL    H3621602   3.325   3.292   1.780  0.4665  0.7494 -1.2516
  264MOL    H3721603   3.421   3.328   1.927  0.2621 -2.2223  0.9282
  264MOL    C3821604   3.476   3.083   1.716 -0.8760 -1.1537 -0.6726
  264MOL    O3921605   3.355   3.054   1.667  0.0169 -0.1239  0.3464
  264MOL    H4021606   3.530   2.992   1.740  3.1694  1.8767  2.3751
  264MOL    H4121607   3.534   3.135   1.639 -1.5598  0.4775 -0.1238
  264MOL    C4221608   3.308   2.936   1.726  0.2468  0.1429 -0.5015
  264MOL    O4321609   3.369   2.822   1.670  0.0948 -0.2616  0.2509
  264MOL    H4421610   3.202   2.934   1.701  0.5892  2.1502 -2.3234
  264MOL    H4521611   3.330   2.941   1.832  2.1840  0.9163 -0.9046
  264MOL    C4621612   3.333   2.790   1.541  0.1127 -0.3661  0.3166
  264MOL    O4721613   3.202   2.751   1.537  0.4482  0.1642  0.1604
  264MOL    H4821614   3.402   2.712   1.509 -0.8156 -2.2229  2.6478
  264MOL    H4921615   3.350   2.885   1.492  0.9574 -0.0888  1.1173
  264MOL    C5021616   3.187   2.620   1.576  0.0722 -1.2714  0.4418
  264MOL    O5121617   3.226   2.538   1.474 -0.4432  0.2525  0.7006
  264MOL    H5221618   3.088   2.599   1.619 -0.4284 -0.5108 -0.3344
  264MOL    H5321619   3.234   2.603   1.673 -0.7190 -0.7227  0.9298
  264MOL    C5421620   3.142   2.539   1.364  0.3454  0.2192  0.5887
  264MOL    O5521621   3.020   2.487   1.406 -0.2868  0.2543  0.0398
  264MOL    H5621622   3.187   2.486   1.280  0.7665  1.8757 -0.2578
  264MOL    H5721623   3.126   2.642   1.331  0.4271  0.0776  0.1098
  264MOL    C5821624   3.023   2.346   1.405 -0.3500 -0.1261  0.0072
  264MOL    O5921625   2.989   2.301   1.280 -0.4152  0.3310 -0.1035
  264MOL    H6021626   2.957   2.306   1.481  0.0498  0.2443  0.5542
  264MOL    H6121627   3.123   2.307   1.428 -0.2551 -0.9751 -1.7388
  264MOL    C6221628   2.850   2.291   1.271  0.8075 -0.1400  1.1267
  264MOL    O6321629   2.800   2.193   1.361 -1.4629  0.0024 -0.3288
  264MOL    H6421630   2.830   2.259   1.169 -1.0196  1.5667  0.9265
  264MOL    H6521631   2.803   2.383   1.303  0.7362 -0.4113  1.8210
  264MOL    C6621632   2.663   2.161   1.340  0.0887  0.2608 -0.5122
  264MOL    O6721633   2.573   2.256   1.406  0.5820 -0.0045  0.1774
  264MOL    H6821634   2.640   2.061   1.377  0.5473 -0.3102 -1.7538
  264MOL    H6921635   2.631   2.159   1.236  0.9956  1.3228 -0.8146
  264MOL    C7021636   2.458   2.298   1.339  0.0506 -0.1964  0.7329
  264MOL    O7121637   2.498   2.398   1.251  0.1572 -0.0699  0.0063
  264MOL    H7221638   2.386   2.336   1.410  1.1017  1.7501  0.7941
  264MOL    H7321639   2.410   2.212   1.293 -0.7630  0.8738 -0.4586
  264MOL    C7421640   2.496   2.523   1.308 -0.1356  0.0595 -0.1408
  264MOL    O7521641   2.362   2.564   1.339  0.4752  0.3314  0.1312
  264MOL    H7621642   2.527   2.592   1.230 -1.9005  0.2796 -0.6767
  264MOL    H7721643   2.561   2.527   1.395  1.2057 -0.7342 -1.0950
  264MOL    C7821644   2.287   2.617   1.244  0.3638 -0.3459  0.5968
  264MOL    O7921645   2.157   2.659   1.281  0.9028  0.4938 -0.7066
  264MOL    H8021646   2.275   2.542   1.166  1.3867 -0.0208  0.1216
  264MOL    H8121647   2.333   2.709   1.208  0.1999  0.6540  2.8746
  264MOL    H8221648   2.169   2.718   1.354  0.6096  1.7740 -1.6837
  265MOL     C121649   7.594   0.536   6.548  0.9665 -0.0606  0.1685
  265MOL     O221650   7.557   0.551   6.417 -0.6236  0.1398  0.5356
  265MOL     H321651   7.702   0.546   6.544  0.8009  2.1032  0.6356
  265MOL     H421652   7.544   0.613   6.606 -1.9422 -1.1937 -0.7217
  265MOL     H521653   7.568   0.437   6.588 -2.6593  0.0860 -1.5608
  265MOL     C621654   7.425   0.596   6.412  0.4925  0.3891 -0.2574
  265MOL     O721655   7.422   0.736   6.420 -0.0673  0.4996 -0.0915
  265MOL     H821656   7.362   0.550   6.488 -0.5063  1.6920 -0.2918
  265MOL     H921657   7.390   0.556   6.317  2.7442  0.7832 -1.2755
  265MOL    C1021658   7.297   0.786   6.430  0.0675  0.1237  0.3428
  265MOL    O1121659   7.246   0.747   6.553 -0.9986 -0.3348  0.2142
  265MOL    H1221660   7.239   0.762   6.341  1.3816  1.0664 -0.7926
  265MOL    H1321661   7.295   0.894   6.416  0.1268  0.3102  1.7788
  265MOL    C1421662   7.286   0.839   6.646 -0.4583  0.6628 -0.4102
  265MOL    O1521663   7.207   0.953   6.648  0.1104 -0.5468 -0.5789
  265MOL    H1621664   7.393   0.860   6.642 -0.6334  1.5964 -0.3383
  265MOL    H1721665   7.272   0.793   6.743 -2.3799  1.8606 -0.0914
  265MOL    C1821666   7.075   0.925   6.677 -0.1828 -0.7047  0.1487
  265MOL    O1921667   7.007   1.044   6.718 -0.3883  0.2518 -0.2912
  265MOL    H2021668   7.072   0.858   6.763 -0.9294  1.9039  2.2311
  265MOL    H2121669   7.024   0.870   6.598  0.5070 -1.7020  0.3892
  265MOL    C2221670   6.997   1.133   6.605  0.5886 -0.8968  0.5712
  265MOL    O2321671   6.876   1.106   6.542 -0.1192 -0.1134 -0.1008
  265MOL    H2421672   7.072   1.117   6.528 -0.0444  1.6125 -0.6027
  265MOL    H2521673   7.014   1.233   6.643 -2.0516 -0.6057  1.0797
  265MOL    C2621674   6.755   1.129   6.617 -0.0713  0.4162 -0.3908
  265MOL    O2721675   6.642   1.085   6.549 -0.2829 -0.6287 -0.3678
  265MOL    H2821676   6.737   1.235   6.637 -3.1738 -0.5197  2.3835
  265MOL    H2921677   6.762   1.080   6.715  0.8707 -1.7292 -1.5109
  265MOL    C3021678   6.610   1.164   6.442 -0.7672  0.1490 -0.5454
  265MOL    O3121679   6.559   1.286   6.490 -0.5415  0.5714 -0.0062
  265MOL    H3221680   6.535   1.106   6.388 -1.2769 -0.6960  1.0331
  265MOL    H3321681   6.701   1.171   6.383 -0.6379 -1.7377 -0.5969
  265MOL    C3421682   6.424   1.279   6.523 -0.3692 -0.1199 -0.2947
  265MOL    O3521683   6.352   1.367   6.437 -1.0759 -0.5666 -0.3220
  265MOL    H3621684   6.409   1.313   6.625  0.5379  1.9251 -0.8155
  265MOL    H3721685   6.388   1.176   6.524  3.6968 -1.6258  0.2014
  265MOL    C3821686   6.313   1.319   6.317  0.1601  0.0425  0.0193
  265MOL    O3921687   6.240   1.203   6.338  0.7492  0.9613  0.1501
  265MOL    H4021688   6.395   1.293   6.250  1.1591  0.0724  1.2133
  265MOL    H4121689   6.244   1.378   6.257 -1.2010 -0.7837  0.7402
  265MOL    C4221690   6.111   1.230   6.374 -0.1654 -0.2527 -0.2356
  265MOL    O4321691   6.033   1.266   6.261  0.4849  0.2250 -0.1183
  265MOL    H4421692   6.103   1.306   6.451 -0.7882 -2.5335  2.0242
  265MOL    H4521693   6.080   1.133   6.414 -0.8742  0.1068  0.1002
  265MOL    C4621694   5.892   1.267   6.284 -0.4076  0.3016 -0.3576
  265MOL    O4721695   5.840   1.148   6.242  0.3184  0.0479  0.5656
  265MOL    H4821696   5.824   1.343   6.246  0.2606 -0.3875 -3.0482
  265MOL    H4921697   5.869   1.258   6.390 -1.4086 -0.3836 -0.6243
  265MOL    C5021698   5.837   1.145   6.102 -0.2204  0.1257  0.9716
  265MOL    O5121699   5.711   1.185   6.056  0.3535  0.3906  0.2740
  265MOL    H5221700   5.843   1.040   6.071 -0.4135 -0.4315  2.7533
  265MOL    H5321701   5.926   1.193   6.062  1.6878 -2.4732  1.9812
  265MOL    C5421702   5.696   1.162   5.921  0.5759 -0.0594  0.2787
  265MOL    O5521703   5.783   1.225   5.833 -0.5691 -0.1092  0.7907
  265MOL    H5621704   5.597   1.194   5.889 -0.0132 -1.2904  0.8314
  265MOL    H5721705   5.693   1.055   5.902 -1.2937 -0.0312  0.2694
  265MOL    C5821706   5.762   1.355   5.830 -0.2550  0.1542 -0.1580
  265MOL    O5921707   5.638   1.387   5.784 -0.2418 -0.6152  0.1965
  265MOL    H6021708   5.846   1.389   5.770  0.4283 -1.9553 -0.4292
  265MOL    H6121709   5.773   1.404   5.927 -0.2510 -0.8581  0.3645
  265MOL    C6221710   5.621   1.372   5.648  0.2988 -0.2792 -0.5354
  265MOL    O6321711   5.487   1.397   5.611  0.2716 -0.0019 -0.3003
  265MOL    H6421712   5.642   1.270   5.614  1.9195 -0.2006  0.2007
  265MOL    H6521713   5.689   1.438   5.593  0.3986 -0.6335 -0.8468
  265MOL    C6621714   5.398   1.301   5.662 -0.6717 -0.0682  0.8248
  265MOL    O6721715   5.426   1.178   5.595  0.7129  0.0031  0.2890
  265MOL    H6821716   5.295   1.329   5.639 -1.0765  0.3231  3.0372
  265MOL    H6921717   5.412   1.287   5.769  0.2846 -0.8496  0.6055
  265MOL    C7021718   5.349   1.164   5.475  0.0566 -0.5779  0.0593
  265MOL    O7121719   5.215   1.147   5.512  0.1282 -0.2317  0.2759
  265MOL    H7221720   5.385   1.082   5.413 -3.4589 -1.7864 -0.4861
  265MOL    H7321721   5.364   1.248   5.407  1.4727 -1.2787 -0.5198
  265MOL    C7421722   5.182   1.005   5.527 -0.3201  0.9927  1.0311
  265MOL    O7521723   5.169   0.953   5.394 -0.2160  0.0642 -0.7540
  265MOL    H7621724   5.089   0.985   5.580 -1.3225  1.9322 -0.3453
  265MOL    H7721725   5.265   0.955   5.577 -0.1184 -1.5917 -1.7584
  265MOL    C7821726   5.111   0.825   5.394  1.2021 -0.1816  0.1915
  265MOL    O7921727   5.126   0.773   5.265  0.4022  0.2153 -0.4657
  265MOL    H8021728   5.003   0.827   5.406  0.8222 -4.0396 -1.8946
  265MOL    H8121729   5.163   0.757   5.461  1.6787 -0.5544 -0.5617
  265MOL    H8221730   5.217   0.751   5.252  0.1753 -0.2736 -1.2721
  266MOL     C121731   1.427   7.211   0.405  0.8159 -0.3661  0.3074
  266MOL     O221732   1.436   7.099   0.481 -0.2892 -0.1637  0.1852
  266MOL     H321733   1.363   7.282   0.457  2.1961  2.2026 -1.4421
  266MOL     H421734   1.515   7.251   0.354  0.5839 -0.0006  0.1959
  266MOL     H521735   1.368   7.177   0.320 -0.7263  1.6315  0.5331
  266MOL     C621736   1.505   7.006   0.411 -0.3839 -0.4241 -0.0127
  266MOL     O721737   1.641   7.035   0.409 -0.2827 -0.0865 -0.4036
  266MOL     H821738   1.468   6.996   0.309 -0.3948 -0.3914 -0.0120
  266MOL     H921739   1.487   6.911   0.460 -0.5136 -0.3614  0.0592
  266MOL    C1021740   1.695   7.031   0.537  0.8791 -0.2257  0.5077
  266MOL    O1121741   1.817   7.099   0.548  0.5822 -0.6659  0.0514
  266MOL    H1221742   1.696   6.932   0.582  1.8414 -1.0659 -1.2862
  266MOL    H1321743   1.625   7.080   0.605 -1.0285  0.4341 -1.8514
  266MOL    C1421744   1.918   7.041   0.468 -0.8091 -0.2153  0.4638
  266MOL    O1521745   2.037   7.112   0.469 -0.1131  0.1495  0.3582
  266MOL    H1621746   1.886   7.037   0.364  0.4077 -0.3791  0.0904
  266MOL    H1721747   1.929   6.938   0.501 -0.4276 -0.7201 -1.1947
  266MOL    C1821748   2.094   7.124   0.588 -0.0193 -0.3709  0.4202
  266MOL    O1921749   2.150   7.002   0.617  0.6267 -0.8754  0.2220
  266MOL    H2021750   2.028   7.152   0.670  0.7893 -0.6620  1.1695
  266MOL    H2121751   2.169   7.202   0.579  1.6107 -2.0375 -0.8346
  266MOL    C2221752   2.242   7.008   0.719 -0.3672 -0.3286 -0.6548
  266MOL    O2321753   2.373   7.041   0.696 -0.0589 -0.3207  0.6246
  266MOL    H2421754   2.236   6.901   0.739 -0.4432  0.0423  1.4177
  266MOL    H2521755   2.209   7.050   0.814 -1.0783 -0.5558 -0.8010
  266MOL    C2621756   2.438   6.958   0.604  0.2929  0.4763  0.2036
  266MOL    O2721757   2.468   6.830   0.660  0.2348 -0.0210 -0.0066
  266MOL    H2821758   2.522   7.006   0.554 -0.2289  0.5019 -0.6679
  266MOL    H2921759   2.366   6.933   0.526  0.4442  2.6752 -0.6833
  266MOL    C3021760   2.588   6.830   0.719 -0.6842 -0.1922  0.4737
  266MOL    O3121761   2.691   6.805   0.630  0.6602 -0.2970  0.1082
  266MOL    H3221762   2.588   6.762   0.805  1.5269 -2.9587 -1.6331
  266MOL    H3321763   2.619   6.924   0.764  1.4434  0.1256 -1.5548
  266MOL    C3421764   2.691   6.664   0.602  0.0910 -0.7709 -0.0190
  266MOL    O3521765   2.731   6.598   0.718  0.2131  0.2031  0.1374
  266MOL    H3621766   2.755   6.629   0.521  0.5709  0.8674 -0.3727
  266MOL    H3721767   2.591   6.631   0.574 -0.2294  0.9265 -0.9130
  266MOL    C3821768   2.871   6.596   0.731  0.3783 -0.6538 -0.2260
  266MOL    O3921769   2.918   6.706   0.798 -0.1326 -0.1247 -0.1319
  266MOL    H4021770   2.911   6.596   0.630 -2.6546 -1.9286 -1.4920
  266MOL    H4121771   2.914   6.508   0.778  2.2461  1.3259  1.8587
  266MOL    C4221772   2.880   6.700   0.929 -0.2751  0.2724 -0.0208
  266MOL    O4321773   2.914   6.823   0.993  0.1954  0.2055 -0.5338
  266MOL    H4421774   2.932   6.614   0.971 -0.4252 -0.4166 -1.2161
  266MOL    H4521775   2.775   6.676   0.947  0.1472 -1.1886  0.5923
  266MOL    C4621776   2.825   6.929   0.969  0.5336  0.2603  0.1542
  266MOL    O4721777   2.705   6.916   1.043 -0.4607  0.4770  0.1955
  266MOL    H4821778   2.800   6.931   0.863  0.7104  1.5490  0.1241
  266MOL    H4921779   2.869   7.027   0.985 -0.8621  0.8956  0.1868
  266MOL    C5021780   2.735   6.943   1.175 -0.4003  0.4217 -0.6198
  266MOL    O5121781   2.744   7.079   1.197  0.0889 -0.3842 -0.2842
  266MOL    H5221782   2.836   6.913   1.203  1.1168  3.9590 -2.0201
  266MOL    H5321783   2.658   6.891   1.233  2.7269 -1.0590  2.3667
  266MOL    C5421784   2.752   7.107   1.324 -0.7722 -0.5666  0.3952
  266MOL    O5521785   2.869   7.056   1.372  0.5043 -0.3186  0.4550
  266MOL    H5621786   2.661   7.078   1.377  0.3979 -1.6314  1.8663
  266MOL    H5721787   2.769   7.215   1.331  0.4046 -0.6669 -0.6961
  266MOL    C5821788   2.891   7.081   1.501 -0.1107 -0.1112  0.0415
  266MOL    O5921789   2.792   7.021   1.583 -1.2573 -0.1308 -0.0992
  266MOL    H6021790   2.906   7.188   1.521  0.1284 -0.4502  1.7438
  266MOL    H6121791   2.991   7.048   1.530 -0.9156  0.5023  3.7992
  266MOL    C6221792   2.801   6.887   1.612 -0.1552  0.9172  0.1782
  266MOL    O6321793   2.908   6.867   1.694  0.5590  0.0727 -0.2194
  266MOL    H6421794   2.811   6.843   1.512 -0.2177 -0.0220  0.5801
  266MOL    H6521795   2.710   6.844   1.652  0.6299 -3.3494 -2.3216
  266MOL    C6621796   2.883   6.900   1.827 -0.8445  0.3777  0.4139
  266MOL    O6721797   2.795   6.816   1.878  0.2845  0.9319  0.5111
  266MOL    H6821798   2.863   7.007   1.821 -2.9306  0.0069  0.2950
  266MOL    H6921799   2.976   6.897   1.884  0.0757 -0.9093 -1.1047
  266MOL    C7021800   2.850   6.686   1.896  0.1452 -0.7317  0.0021
  266MOL    O7121801   2.944   6.681   1.997  0.2448 -0.5769  0.6395
  266MOL    H7221802   2.905   6.662   1.805  1.1529  2.2921 -0.2381
  266MOL    H7321803   2.775   6.607   1.902 -0.2673 -0.3640 -0.2842
  266MOL    C7421804   2.887   6.664   2.126  0.6534  0.4028 -0.0284
  266MOL    O7521805   2.839   6.535   2.140 -0.0441  0.0550 -0.2927
  266MOL    H7621806   2.807   6.737   2.131 -2.2296 -2.5955 -0.4545
  266MOL    H7721807   2.969   6.679   2.195  1.8423 -2.1836 -0.7790
  266MOL    C7821808   2.932   6.438   2.149  0.2679  0.2751 -0.0251
  266MOL    O7921809   2.876   6.305   2.155 -0.0078 -0.2774 -0.5289
  266MOL    H8021810   2.988   6.457   2.240 -1.7489  1.4968  0.9895
  266MOL    H8121811   3.001   6.447   2.065 -0.1793 -0.8649 -0.5360
  266MOL    H8221812   2.842   6.277   2.071 -0.0733 -0.1728 -0.5367
  267MOL     C121813   0.233   4.553   3.667 -0.4495 -0.3442 -0.0135
  267MOL     O221814   0.250   4.625   3.546 -0.2826 -0.0807  0.0379
  267MOL     H321815   0.129   4.547   3.699 -0.0832  0.0774  1.3073
  267MOL     H421816   0.263   4.451   3.647  0.2635  0.0814 -1.1868
  267MOL     H521817   0.301   4.594   3.742 -1.6620  1.3800  0.1809
  267MOL     C621818   0.261   4.760   3.565  0.3927  0.4054 -0.3698
  267MOL     O721819   0.382   4.782   3.626  0.5920 -0.6637 -0.1465
  267MOL     H821820   0.182   4.813   3.618 -0.5830 -0.3182 -1.0941
  267MOL     H921821   0.253   4.798   3.463  0.8670  0.4260 -0.4029
  267MOL    C1021822   0.490   4.771   3.540 -0.1405 -0.1881 -0.6249
  267MOL    O1121823   0.488   4.878   3.452  0.8788 -0.0074 -0.0472
  267MOL    H1221824   0.491   4.676   3.487  0.0905 -0.6231  0.1486
  267MOL    H1321825   0.574   4.776   3.609 -1.5600  1.5889  1.0505
  267MOL    C1421826   0.581   4.872   3.352 -0.4548 -1.1708 -0.4124
  267MOL    O1521827   0.545   4.774   3.263  0.2707  0.6242  0.2478
  267MOL    H1621828   0.676   4.837   3.392 -0.3217  0.5271  0.8184
  267MOL    H1721829   0.594   4.968   3.302  2.6967 -0.9322  0.7688
  267MOL    C1821830   0.419   4.799   3.201  0.6150  0.1960 -0.2158
  267MOL    O1921831   0.416   4.921   3.138 -0.2221  0.8126  0.4848
  267MOL    H2021832   0.337   4.807   3.273  2.0970  0.4239  1.4896
  267MOL    H2121833   0.390   4.718   3.134  1.3583  0.0198 -0.3229
  267MOL    C2221834   0.489   4.917   3.025  0.1520 -0.2256  0.2088
  267MOL    O2321835   0.514   5.042   2.977 -0.0555 -0.0503  0.4075
  267MOL    H2421836   0.438   4.857   2.951  1.1393  0.3522 -0.9582
  267MOL    H2521837   0.587   4.870   3.036  1.2482  2.2920  1.7511
  267MOL    C2621838   0.415   5.102   2.900  0.1812  0.0230  0.5716
  267MOL    O2721839   0.471   5.209   2.832  1.2070 -0.5068 -0.1167
  267MOL    H2821840   0.322   5.127   2.952  0.2196  1.8755 -0.2060
  267MOL    H2921841   0.382   5.039   2.818  2.2185 -1.0902  0.5703
  267MOL    C3021842   0.480   5.319   2.915 -0.5208 -0.2976  0.6718
  267MOL    O3121843   0.571   5.413   2.880  0.5492 -0.2627 -0.2434
  267MOL    H3221844   0.501   5.287   3.017  1.3484  1.0504  0.7400
  267MOL    H3321845   0.380   5.361   2.926 -0.8117 -0.9306  0.4367
  267MOL    C3421846   0.696   5.362   2.859  0.1667 -0.4044 -0.2632
  267MOL    O3521847   0.794   5.462   2.840  0.1864 -0.1116 -0.0701
  267MOL    H3621848   0.693   5.306   2.765  1.6909  0.9479 -1.1441
  267MOL    H3721849   0.727   5.294   2.938  0.3875 -1.9051 -1.6263
  267MOL    C3821850   0.792   5.514   2.708 -0.2143 -0.0640 -1.1330
  267MOL    O3921851   0.833   5.424   2.621  0.3492  0.5318 -0.0883
  267MOL    H4021852   0.846   5.609   2.705 -0.0876 -0.0564  0.6816
  267MOL    H4121853   0.691   5.552   2.690 -0.3381 -0.6892 -1.7683
  267MOL    C4221854   0.976   5.423   2.615  0.1272 -0.2970 -0.2758
  267MOL    O4321855   1.036   5.530   2.548  0.1678  0.3507  0.1605
  267MOL    H4421856   1.002   5.329   2.567 -2.4756 -0.5299 -1.3573
  267MOL    H4521857   1.019   5.413   2.714 -0.2647  0.0586 -0.0644
  267MOL    C4621858   1.009   5.533   2.408 -0.3233 -0.1262 -0.3900
  267MOL    O4721859   1.094   5.447   2.338  0.1485  0.4686  0.3075
  267MOL    H4821860   1.025   5.632   2.366  2.2226 -0.9137 -1.3771
  267MOL    H4921861   0.906   5.507   2.382 -1.2819  2.4972  0.5895
  267MOL    C5021862   1.228   5.487   2.347 -0.6318  0.6985  0.0916
  267MOL    O5121863   1.310   5.389   2.401  0.0912 -0.2320  0.5687
  267MOL    H5221864   1.242   5.581   2.401 -1.6489  0.9861 -0.1204
  267MOL    H5321865   1.264   5.508   2.246 -1.4421  1.2688 -0.0869
  267MOL    C5421866   1.333   5.398   2.535 -0.3786  0.0122  0.1398
  267MOL    O5521867   1.399   5.513   2.570 -0.5318 -0.5753 -0.0344
  267MOL    H5621868   1.383   5.305   2.561  1.3080  0.8666  0.0252
  267MOL    H5721869   1.241   5.399   2.593  0.7540 -1.8441  2.0179
  267MOL    C5821870   1.535   5.497   2.545  0.4129  0.3108  0.0339
  267MOL    O5921871   1.609   5.610   2.580  0.7727  0.1517  0.1359
  267MOL    H6021872   1.544   5.475   2.438 -3.9121 -1.4508 -0.0970
  267MOL    H6121873   1.576   5.410   2.594 -3.5297  0.0013  3.0689
  267MOL    C6221874   1.611   5.626   2.713 -0.2311 -0.2893 -0.8149
  267MOL    O6321875   1.691   5.529   2.779  0.1769 -0.0440  0.2462
  267MOL    H6421876   1.516   5.619   2.767  0.1879 -2.1533 -0.2666
  267MOL    H6521877   1.649   5.724   2.744 -2.1449  0.1820  0.1087
  267MOL    C6621878   1.696   5.551   2.912  0.7145  0.3659  0.1252
  267MOL    O6721879   1.582   5.522   2.976 -0.3103  0.2854 -0.1573
  267MOL    H6821880   1.706   5.657   2.937 -0.8774 -0.0509  2.7072
  267MOL    H6921881   1.779   5.500   2.960  0.3344  1.6097  2.1610
  267MOL    C7021882   1.591   5.545   3.111  0.0514  0.0005 -0.6810
  267MOL    O7121883   1.465   5.547   3.177 -0.3351 -0.2273 -0.6231
  267MOL    H7221884   1.639   5.640   3.138 -0.8988 -0.2690  2.0915
  267MOL    H7321885   1.647   5.455   3.138 -0.8060 -0.3777 -0.1696
  267MOL    C7421886   1.401   5.424   3.190  0.5873 -0.0735 -0.2539
  267MOL    O7521887   1.350   5.377   3.068 -0.1871  0.0301 -0.3343
  267MOL    H7621888   1.320   5.435   3.262  0.7879 -0.0324 -0.0330
  267MOL    H7721889   1.467   5.346   3.228 -1.1897 -1.0833  0.8319
  267MOL    C7821890   1.225   5.419   3.044 -0.7287 -0.1561  0.2747
  267MOL    O7921891   1.136   5.356   3.134 -0.4653 -0.0065 -0.0605
  267MOL    H8021892   1.194   5.396   2.942  0.7068 -1.0430  0.0268
  267MOL    H8121893   1.230   5.525   3.066  1.6653  0.0469 -1.0522
  267MOL    H8221894   1.102   5.422   3.193  1.1627  1.3479 -0.5947
  268MOL     C121895   5.366   7.146   7.465  0.4067 -0.4119 -0.0611
  268MOL     O221896   5.279   7.237   7.407  0.3495 -0.1560  0.1831
  268MOL     H321897   5.337   7.046   7.433 -0.3251  0.3689 -1.9425
  268MOL     H421898   5.467   7.165   7.427  0.1655  1.2875  0.0912
  268MOL     H521899   5.368   7.163   7.572  1.6541  2.7620 -0.5271
  268MOL     C621900   5.140   7.200   7.410  0.5471  0.1482  0.4121
  268MOL     O721901   5.109   7.083   7.338 -0.5162 -0.0063 -0.1898
  268MOL     H821902   5.088   7.281   7.360  1.6683  0.1274 -0.7999
  268MOL     H921903   5.095   7.188   7.509 -0.1114 -1.4073 -0.0516
  268MOL    C1021904   5.111   7.105   7.194 -0.5961  0.2134 -0.4195
  268MOL    O1121905   5.068   6.995   7.126 -0.2124  0.0654 -0.2006
  268MOL    H1221906   5.212   7.139   7.169 -0.1962  0.5214  1.5496
  268MOL    H1321907   5.038   7.183   7.172 -0.7554  0.3647  0.6060
  268MOL    C1421908   5.148   6.881   7.138 -0.5259 -0.3407 -0.3315
  268MOL    O1521909   5.280   6.899   7.084  0.5548  0.7374 -0.1030
  268MOL    H1621910   5.097   6.795   7.094 -0.3263 -0.6717  0.0843
  268MOL    H1721911   5.149   6.856   7.244  0.8668  1.4073  0.1032
  268MOL    C1821912   5.273   6.927   6.947  0.3171 -0.0689  0.3736
  268MOL    O1921913   5.204   6.822   6.885 -0.0294  0.2259  0.1860
  268MOL    H2021914   5.360   6.961   6.891 -1.2863  0.9604 -1.5588
  268MOL    H2121915   5.204   7.011   6.936  0.1182 -0.4178 -1.2706
  268MOL    C2221916   5.279   6.704   6.886  0.3782 -0.1904 -0.0213
  268MOL    O2321917   5.382   6.717   6.798 -0.1100 -0.3320 -0.0345
  268MOL    H2421918   5.214   6.622   6.857  1.2275 -0.2716 -1.7619
  268MOL    H2521919   5.305   6.669   6.985  0.5406 -2.0094 -0.6954
  268MOL    C2621920   5.470   6.611   6.804  0.2606 -0.2965  0.6415
  268MOL    O2721921   5.541   6.600   6.928 -0.6145  0.5951  0.1363
  268MOL    H2821922   5.549   6.627   6.731 -0.3159  2.9481  0.6596
  268MOL    H2921923   5.419   6.518   6.779  0.4461 -0.1326 -0.3805
  268MOL    C3021924   5.617   6.484   6.937 -0.5323 -0.3095 -0.9321
  268MOL    O3121925   5.548   6.364   6.936  0.3640  0.0853 -0.0914
  268MOL    H3221926   5.686   6.493   7.021 -1.3818 -1.0058 -0.1612
  268MOL    H3321927   5.677   6.482   6.846 -1.2329  0.7216 -1.4262
  268MOL    C3421928   5.451   6.352   7.032 -0.0668  0.0646 -0.5713
  268MOL    O3521929   5.498   6.342   7.160 -0.5223 -0.7648 -0.0632
  268MOL    H3621930   5.392   6.264   7.008 -0.3644 -0.0741  0.6763
  268MOL    H3721931   5.381   6.435   7.021 -0.5811 -0.4269 -1.0942
  268MOL    C3821932   5.404   6.295   7.249  0.0129 -0.0540  0.1989
  268MOL    O3921933   5.303   6.385   7.273  0.4659 -0.0846 -0.6171
  268MOL    H4021934   5.459   6.284   7.343 -0.5172  0.9813  0.6331
  268MOL    H4121935   5.366   6.193   7.236 -1.0180  0.2309  0.9472
  268MOL    C4221936   5.339   6.506   7.320 -0.3530  0.1516 -0.1442
  268MOL    O4321937   5.229   6.591   7.347  0.3152 -0.0316 -0.4353
  268MOL    H4421938   5.380   6.562   7.236  0.2873  1.9560  1.3264
  268MOL    H4521939   5.418   6.502   7.395 -1.9843  0.5382  1.6366
  268MOL    C4621940   5.178   6.566   7.474 -0.4284 -0.5358  0.1333
  268MOL    O4721941   5.072   6.659   7.497 -0.0660  1.3166  0.5138
  268MOL    H4821942   5.256   6.585   7.548 -0.7143 -0.2570  0.3628
  268MOL    H4921943   5.131   6.472   7.502 -0.7139  0.0325  1.6328
  268MOL    C5021944   5.122   6.790   7.523 -0.0981  0.2977 -0.1760
  268MOL    O5121945   5.139   6.803   7.660 -0.3330 -0.0725 -0.0224
  268MOL    H5221946   5.058   6.874   7.497 -1.0472  0.0201  1.1862
  268MOL    H5321947   5.220   6.804   7.477 -0.3912 -2.2044 -1.6663
  268MOL    C5421948   5.201   6.914   7.702  1.1847  0.1257  0.2611
  268MOL    O5521949   5.335   6.918   7.669  0.2217  0.1102 -0.2666
  268MOL    H5621950   5.177   6.928   0.023  1.9152  1.4563  0.2526
  268MOL    H5721951   5.142   6.996   7.661 -0.5368 -1.0222  0.3793
  268MOL    C5821952   5.415   6.832   7.750  0.5331  0.2800  0.7381
  268MOL    O5921953   5.414   6.849   0.103 -0.2918 -0.2839 -0.4764
  268MOL    H6021954   5.511   6.826   7.699  1.0781  0.2145  1.7524
  268MOL    H6121955   5.398   6.726   7.729  0.2497  0.3701  0.5066
  268MOL    C6221956   5.486   6.966   0.145 -0.2438  0.2562  0.0310
  268MOL    O6321957   5.604   6.911   0.199  0.1374  0.4529 -0.2645
  268MOL    H6421958   5.434   7.023   0.223  1.9860  0.6905  1.2318
  268MOL    H6521959   5.504   7.031   0.059 -1.1002 -0.2682 -0.5494
  268MOL    C6621960   5.586   6.884   0.338 -0.7744  0.4501  0.3577
  268MOL    O6721961   5.580   7.005   0.407  0.0424  0.4103 -0.1197
  268MOL    H6821962   5.664   6.818   0.379  1.1583  1.1596 -2.0692
  268MOL    H6921963   5.499   6.821   0.354 -0.5651  0.7027  2.6756
  268MOL    C7021964   5.697   7.081   0.414 -0.4162 -0.6735  0.4655
  268MOL    O7121965   5.797   7.002   0.472 -0.3314  0.2895  0.3572
  268MOL    H7221966   5.662   7.174   0.459 -1.8096 -1.4975  1.1306
  268MOL    H7321967   5.724   7.114   0.313 -0.4701 -1.2223  0.2703
  268MOL    C7421968   5.769   6.985   0.614  0.2513 -0.0382 -0.1050
  268MOL    O7521969   5.860   7.055   0.699  0.0463 -0.2849 -0.4756
  268MOL    H7621970   5.791   6.879   0.623  0.5966  0.1878  1.8780
  268MOL    H7721971   5.667   6.995   0.651  0.6853  2.4878  0.5490
  268MOL    C7821972   5.830   7.191   0.709  0.0868  0.0353 -0.6133
  268MOL    O7921973   5.937   7.251   0.779 -0.6449  0.8644  0.3626
  268MOL    H8021974   5.743   7.195   0.773 -1.1566 -0.9864 -2.2019
  268MOL    H8121975   5.815   7.244   0.614 -1.3297  0.5419 -0.1165
  268MOL    H8221976   6.018   7.246   0.731 -0.1322  0.0757  1.2771
  269MOL     C121977   3.850   5.371   0.162 -0.0201  0.1077 -0.1538
  269MOL     O221978   3.915   5.309   0.276 -0.4568 -0.9468 -0.1550
  269MOL     H321979   3.905   5.461   0.135  0.6798  0.5622  2.6378
  269MOL     H421980   3.850   5.301   0.078  0.1106  0.5418 -0.5162
  269MOL     H521981   3.750   5.405   0.190 -0.7851 -1.6924 -0.5848
  269MOL     C621982   3.854   5.197   0.321 -0.3958  0.2645 -0.6663
  269MOL     O721983   3.904   5.086   0.259 -0.0519 -0.0743  0.5287
  269MOL     H821984   3.746   5.204   0.309 -0.6297 -0.3372  0.9097
  269MOL     H921985   3.863   5.189   0.429  0.8238  2.1860 -0.6066
  269MOL    C1021986   4.032   5.050   0.295 -0.0071  0.3979 -0.0710
  269MOL    O1121987   4.043   5.016   0.430  0.0283 -0.0258  0.1139
  269MOL    H1221988   4.095   5.134   0.268  2.7674 -2.0192 -1.3192
  269MOL    H1321989   4.072   4.965   0.240  2.1727  2.3474 -1.6035
  269MOL    C1421990   4.175   4.973   0.474  0.2610  0.0284  0.4274
  269MOL    O1521991   4.269   5.075   0.475  0.1003 -0.2205  0.6707
  269MOL    H1621992   4.218   4.900   0.406 -0.9263 -0.9471  0.7048
  269MOL    H1721993   4.156   4.931   0.573 -1.3465 -0.2912 -0.0058
  269MOL    C1821994   4.403   5.040   0.514 -0.6167 -0.3413  0.0924
  269MOL    O1921995   4.467   4.982   0.401  0.3394  0.9527 -0.1973
  269MOL    H2021996   4.410   4.974   0.600 -2.4987 -0.8212 -0.1130
  269MOL    H2121997   4.459   5.131   0.534  1.0834 -1.4278  0.4645
  269MOL    C2221998   4.521   5.081   0.315  0.2873 -0.4797  0.2223
  269MOL    O2321999   4.625   5.143   0.371 -0.2921 -0.0575  0.0914
  269MOL    H2422000   4.444   5.153   0.290  1.9634  0.6838 -1.7919
  269MOL    H2522001   4.540   5.016   0.230  1.9666 -0.0620  0.2602
  269MOL    C2622002   4.736   5.065   0.345 -0.0328 -0.0198 -0.1070
  269MOL    O2722003   4.780   5.068   0.217  0.1988 -0.1810 -0.4278
  269MOL    H2822004   4.724   4.964   0.382 -0.4961 -0.1650 -0.6514
  269MOL    H2922005   4.815   5.105   0.410 -0.1547  1.6912 -0.9789
  269MOL    C3022006   4.826   5.194   0.178 -0.3985 -0.7655 -0.7014
  269MOL    O3122007   4.727   5.276   0.145 -0.3404 -0.3974 -0.2498
  269MOL    H3222008   4.883   5.170   0.088 -0.8480 -0.6116 -1.0256
  269MOL    H3322009   4.894   5.237   0.252 -0.8396  0.5997 -1.0666
  269MOL    C3422010   4.662   5.238   0.031 -0.0177  0.0577 -0.0436
  269MOL    O3522011   4.743   5.241   7.699 -0.3084 -0.0765  0.5844
  269MOL    H3622012   4.584   5.314   0.027  0.5011  0.5516 -0.8439
  269MOL    H3722013   4.618   5.139   0.048  0.4187 -0.9121 -3.9435
  269MOL    C3822014   4.677   5.228   7.580  0.4864 -0.0216 -0.9028
  269MOL    O3922015   4.597   5.117   7.581  0.0276 -0.0880 -0.2340
  269MOL    H4022016   4.750   5.222   7.500  0.3431  1.4064 -1.1682
  269MOL    H4122017   4.621   5.320   7.561 -0.3562 -0.1857  0.6767
  269MOL    C4222018   4.664   4.993   7.584  0.3604 -0.3124  0.2759
  269MOL    O4322019   4.577   4.890   7.623 -0.2460  0.4280 -0.8281
  269MOL    H4422020   4.745   5.014   7.654  0.6794  0.5640 -0.3419
  269MOL    H4522021   4.694   4.976   7.481 -1.0940 -0.6655 -0.0966
  269MOL    C4622022   4.480   4.859   7.528 -0.2859  0.2569 -0.0667
  269MOL    O4722023   4.531   4.782   7.430  0.6473  0.1422 -0.7526
  269MOL    H4822024   4.450   4.954   7.484  2.2415  0.6296 -1.0912
  269MOL    H4922025   4.393   4.808   7.569  0.4169 -0.4624  0.5462
  269MOL    C5022026   4.438   4.745   7.338 -0.4336  0.4120 -0.6271
  269MOL    O5122027   4.347   4.657   7.393 -0.0932  0.5048  0.7859
  269MOL    H5222028   4.488   4.687   7.261  0.1869 -1.3921  1.0765
  269MOL    H5322029   4.391   4.830   7.289  1.0628  2.4801  1.4371
  269MOL    C5422030   4.405   4.545   7.456 -0.0302  0.2015  0.0852
  269MOL    O5522031   4.372   4.521   7.591 -0.4568 -0.0572  0.1607
  269MOL    H5622032   4.514   4.539   7.445  0.0100  0.2970  0.4344
  269MOL    H5722033   4.355   4.462   7.405 -0.0273 -0.2782  0.8573
  269MOL    C5822034   4.243   4.471   7.610  0.0323 -0.1677  0.7068
  269MOL    O5922035   4.248   4.333   7.630 -0.3281  0.5538 -0.0777
  269MOL    H6022036   4.187   4.479   7.516  1.1085 -0.2530  0.0466
  269MOL    H6122037   4.190   4.534   7.682 -1.4257 -0.0404 -0.4464
  269MOL    C6222038   4.258   4.288   7.766  0.0210  0.1414  0.3080
  269MOL    O6322039   4.139   4.327   0.052 -0.2382 -0.3595  0.6040
  269MOL    H6422040   4.346   4.335   0.027  1.0406  1.7517 -3.1898
  269MOL    H6522041   4.276   4.181   7.762 -1.0047 -0.0809  1.3259
  269MOL    C6622042   4.031   4.249   0.007  0.0630 -0.3045 -0.2976
  269MOL    O6722043   4.021   4.135   0.085  0.3026  0.2986 -0.8500
  269MOL    H6822044   4.043   4.235   7.683  0.4701 -1.1296 -0.1534
  269MOL    H6922045   3.939   4.298   0.037 -0.6814 -1.5655 -0.4802
  269MOL    C7022046   3.941   4.031   0.031  0.7378  0.3231  0.3709
  269MOL    O7122047   3.990   3.982   7.692 -0.3885  0.4135  0.1569
  269MOL    H7222048   3.835   4.050   0.011  0.8187 -0.4771 -0.8806
  269MOL    H7322049   3.940   3.944   0.097  2.1659  0.5344  0.6765
  269MOL    C7422050   4.112   3.910   7.712  0.0908  0.2916  0.2456
  269MOL    O7522051   4.085   3.776   7.742  0.1701 -0.3093  0.2288
  269MOL    H7622052   4.181   3.970   7.771  0.6234  0.8755 -0.9512
  269MOL    H7722053   4.162   3.897   7.616 -0.2612 -3.4925  0.5033
  269MOL    C7822054   4.021   3.714   7.644 -0.4397 -0.4829 -0.2396
  269MOL    O7922055   3.998   3.582   7.672 -0.6663  0.1635 -0.8532
  269MOL    H8022056   4.071   3.733   7.549 -0.5608  0.0667 -0.1938
  269MOL    H8122057   3.920   3.755   7.640 -0.4712 -0.6191 -0.9735
  269MOL    H8222058   4.080   3.543   7.701 -0.9475  0.1052 -0.1232
  270MOL     C122059   4.218   7.625   6.180 -0.2028  0.2975 -0.1047
  270MOL     O222060   4.105   7.698   6.149  0.0708 -0.8615 -0.2685
  270MOL     H322061   4.198   7.518   6.185  1.7891 -0.1552 -1.0816
  270MOL     H422062   4.298   7.648   6.109 -1.1985 -3.2606 -2.5535
  270MOL     H522063   4.254   7.646   6.280 -0.9441  0.8767  0.0427
  270MOL     C622064   3.997   7.659   6.234  0.0295 -0.1539 -0.3275
  270MOL     O722065   3.882   7.730   6.194 -0.1523 -0.4535  0.4753
  270MOL     H822066   4.003   7.672   6.342 -1.0551 -1.8354 -0.0474
  270MOL     H922067   3.974   7.554   6.216  0.8046 -0.4099  0.1539
  270MOL    C1022068   3.879   0.070   6.259 -0.2964  0.5404  0.0167
  270MOL    O1122069   3.798   0.165   6.189 -0.1049  0.2397 -0.0912
  270MOL    H1222070   3.974   0.125   6.260  0.2354 -0.3808  0.4090
  270MOL    H1322071   3.843   0.064   6.362  1.1932  2.7857  0.7186
  270MOL    C1422072   3.670   0.169   6.234  0.7614  0.2467  0.4395
  270MOL    O1522073   3.595   0.276   6.175 -0.2575  1.0045  0.9960
  270MOL    H1622074   3.657   0.203   6.337 -2.7658  0.6016 -0.0624
  270MOL    H1722075   3.619   0.073   6.220 -0.6903  0.8828  1.2414
  270MOL    C1822076   3.576   0.264   6.040 -0.0782 -0.0949  0.1698
  270MOL    O1922077   3.473   0.172   6.016  0.3014  0.1177 -0.4174
  270MOL    H2022078   3.670   0.229   5.995 -0.5202 -1.6214  0.4075
  270MOL    H2122079   3.550   0.358   5.992 -0.8401  0.5523  1.8071
  270MOL    C2222080   3.424   0.182   5.888 -0.2651 -0.9414  0.4427
  270MOL    O2322081   3.358   0.299   5.862  0.2840 -0.2689  0.0989
  270MOL    H2422082   3.357   0.100   5.863  0.1576 -1.3916  0.7741
  270MOL    H2522083   3.511   0.170   5.824 -0.1921 -1.0376  0.5601
  270MOL    C2622084   3.224   0.299   5.907 -1.3151 -0.3344  0.0457
  270MOL    O2722085   3.141   0.214   5.839  0.4631  0.0404  0.4844
  270MOL    H2822086   3.192   0.402   5.898  1.2802  0.5314  0.2244
  270MOL    H2922087   3.209   0.270   6.011 -0.2089  2.2672  0.9629
  270MOL    C3022088   3.134   0.232   5.702  0.3237 -0.0301  0.3537
  270MOL    O3122089   3.080   0.360   5.675  0.3347  1.0748 -0.0612
  270MOL    H3222090   3.072   0.148   5.671  0.6255 -0.6029  1.2910
  270MOL    H3322091   3.238   0.219   5.673  0.9745  5.1635 -0.0534
  270MOL    C3422092   2.940   0.366   5.693  0.1793 -0.0702 -0.0818
  270MOL    O3522093   2.886   0.304   5.582  0.0803  0.0752 -0.3378
  270MOL    H3622094   2.909   0.470   5.703 -2.8775 -1.0672  1.5031
  270MOL    H3722095   2.920   0.319   5.789 -1.6369  1.7783  0.4977
  270MOL    C3822096   2.744   0.288   5.595  0.2806  0.0523 -0.1469
  270MOL    O3922097   2.674   0.413   5.597  0.1096 -0.2635  0.3509
  270MOL    H4022098   2.722   0.249   5.695 -0.1443  1.2286  0.2301
  270MOL    H4122099   2.712   0.226   5.512  0.4769 -3.2740  2.1623
  270MOL    C4222100   2.630   0.460   5.475  0.1933 -0.1715 -0.4675
  270MOL    O4322101   2.546   0.372   5.416  0.1175 -0.0946 -0.2415
  270MOL    H4422102   2.715   0.499   5.419  0.9401  0.1524  0.8672
  270MOL    H4522103   2.572   0.547   5.506 -1.6510 -1.4511 -0.2545
  270MOL    C4622104   2.434   0.433   5.350 -0.1957  0.3884 -0.4899
  270MOL    O4722105   2.456   0.553   5.281 -0.6799  0.4896  0.0563
  270MOL    H4822106   2.368   0.458   5.434 -0.1318  1.0878 -0.6411
  270MOL    H4922107   2.377   0.368   5.283 -1.0746  1.2873 -0.6510
  270MOL    C5022108   2.534   0.533   5.165  0.1492 -0.4389 -0.3865
  270MOL    O5122109   2.464   0.472   5.058  0.0014 -0.4639 -0.3151
  270MOL    H5222110   2.629   0.485   5.189  0.1072 -1.7879 -2.7930
  270MOL    H5322111   2.545   0.639   5.142 -1.6865  0.1504  1.3022
  270MOL    C5422112   2.337   0.531   5.033  0.8305  0.1690  0.2191
  270MOL    O5522113   2.349   0.648   4.968 -0.0149 -0.1165  0.1177
  270MOL    H5622114   2.281   0.562   5.121  2.0080  1.7189  0.4328
  270MOL    H5722115   2.273   0.474   4.965 -0.6231  2.7029 -0.6180
  270MOL    C5822116   2.412   0.637   4.844 -0.2650 -0.6172 -0.2774
  270MOL    O5922117   2.317   0.581   4.750 -0.5034  0.3605  0.5326
  270MOL    H6022118   2.508   0.587   4.858 -0.6900 -1.4369 -0.2572
  270MOL    H6122119   2.431   0.738   4.807 -0.9753 -0.6916 -0.8567
  270MOL    C6222120   2.364   0.570   4.617  0.1030  0.5462  0.0984
  270MOL    O6322121   2.340   0.684   4.548  0.3058 -0.3511 -0.3204
  270MOL    H6422122   2.310   0.495   4.559 -1.3975  2.3479 -0.8680
  270MOL    H6522123   2.470   0.542   4.622  0.0034 -0.0631 -0.9191
  270MOL    C6622124   2.409   0.693   4.424 -0.4113 -0.4877 -0.6593
  270MOL    O6722125   2.363   0.607   4.327  0.3370  0.8179  0.1501
  270MOL    H6822126   2.515   0.672   4.436 -0.1710  0.8949 -0.2183
  270MOL    H6922127   2.405   0.797   4.390 -1.5205 -0.6457 -1.0627
  270MOL    C7022128   2.234   0.637   4.280  0.8609  0.2667  0.2159
  270MOL    O7122129   2.225   0.759   4.209 -0.7298 -0.0820 -0.0667
  270MOL    H7222130   2.165   0.642   4.364 -1.0972 -2.4935 -1.1529
  270MOL    H7322131   2.198   0.553   4.220  0.7078  0.9235 -0.6179
  270MOL    C7422132   2.327   0.770   4.111 -0.1469 -0.0006  0.7842
  270MOL    O7522133   2.325   0.902   4.048  0.2080  0.0019  0.6960
  270MOL    H7622134   2.323   0.693   4.034  3.3568 -0.2772  0.7949
  270MOL    H7722135   2.423   0.754   4.159 -0.1758 -2.0067  0.2242
  270MOL    C7822136   2.370   1.001   4.130 -0.3977  0.1548 -0.2124
  270MOL    O7922137   2.386   1.125   4.061  0.0229  0.3889 -0.0590
  270MOL    H8022138   2.467   0.980   4.174 -0.5331  0.6777  0.3411
  270MOL    H8122139   2.303   1.018   4.214  0.4848 -3.1099  1.2365
  270MOL    H8222140   2.307   1.177   4.066 -0.8082 -0.9175  0.8404
  271MOL     C122141   6.291   2.365   6.209  0.9967 -0.6953 -0.1824
  271MOL     O222142   6.299   2.419   6.342 -0.4122  0.6657  0.6204
  271MOL     H322143   6.379   2.405   6.159  0.5140 -0.2493 -0.6723
  271MOL     H422144   6.292   2.256   6.215 -0.5682 -0.7356 -0.6101
  271MOL     H522145   6.213   2.402   6.143  0.2364  0.3378  1.2443
  271MOL     C622146   6.411   2.360   6.415 -0.1251  0.6143 -0.3055
  271MOL     O722147   6.431   2.424   6.532 -0.0777 -0.9845 -0.0843
  271MOL     H822148   6.509   2.358   6.368 -0.3922 -1.6502 -0.8325
  271MOL     H922149   6.391   2.255   6.438  1.1014  0.9198  2.3199
  271MOL    C1022150   6.498   2.547   6.518 -0.4471  0.4283  0.5765
  271MOL    O1122151   6.628   2.536   6.467  0.3089 -0.0581  0.5804
  271MOL    H1222152   6.516   2.588   6.617  3.2793  3.0841 -1.0814
  271MOL    H1322153   6.442   2.608   6.447 -0.3745  0.0130  0.1568
  271MOL    C1422154   6.707   2.461   6.559 -0.0234  0.9875  0.1894
  271MOL    O1522155   6.742   2.546   6.665 -0.3166 -0.0070  0.5545
  271MOL    H1622156   6.802   2.437   6.512  0.6282  0.6586  1.6570
  271MOL    H1722157   6.658   2.370   6.592  1.9814 -0.1148  0.1959
  271MOL    C1822158   6.828   2.648   6.631 -0.4471 -0.0440  0.2217
  271MOL    O1922159   6.957   2.596   6.621 -0.0608 -0.7129 -0.3243
  271MOL    H2022160   6.809   2.710   6.719  2.8512 -0.0974  1.0274
  271MOL    H2122161   6.796   2.696   6.539 -1.8883 -0.6568  0.3827
  271MOL    C2222162   7.005   2.535   6.733 -0.0405  0.0714 -0.2564
  271MOL    O2322163   7.143   2.503   6.717 -0.5409 -0.0085 -0.2361
  271MOL    H2422164   6.942   2.453   6.768  0.1952  0.1785  0.4404
  271MOL    H2522165   6.997   2.611   6.812  0.6713 -0.6273  0.5017
  271MOL    C2622166   7.161   2.387   6.656 -0.0135 -0.0057  1.0690
  271MOL    O2722167   7.290   2.385   6.600  0.3400  0.5465  0.1985
  271MOL    H2822168   7.096   2.361   6.572  2.1842  3.9101 -2.0044
  271MOL    H2922169   7.156   2.307   6.731 -3.1427 -1.1225 -0.2559
  271MOL    C3022170   7.397   2.359   6.680 -0.3793  0.1264  0.2741
  271MOL    O3122171   7.509   2.394   6.604 -0.2723  0.1880 -0.6390
  271MOL    H3222172   7.403   2.255   6.712  0.8225  0.3589  0.8310
  271MOL    H3322173   7.385   2.428   6.764 -1.9261  2.0817 -1.4825
  271MOL    C3422174   7.580   2.286   6.555 -0.0101 -0.2514 -0.0380
  271MOL    O3522175   7.636   2.204   6.660 -0.2933 -1.0066  0.1036
  271MOL    H3622176   7.664   2.322   6.496 -0.5393  1.7783  0.4243
  271MOL    H3722177   7.523   2.215   6.495 -0.5448  1.4691 -1.6150
  271MOL    C3822178   7.704   2.284   6.747 -0.2314  0.5881 -0.6290
  271MOL    O3922179   0.010   2.216   6.833  0.2626 -0.1215 -0.5065
  271MOL    H4022180   7.646   2.342   6.818 -1.9779 -2.8718  0.8814
  271MOL    H4122181   7.769   2.354   6.694 -1.1650  2.8253  1.1217
  271MOL    C4222182   7.731   2.116   6.900  0.8378 -0.0530  1.0945
  271MOL    O4322183   7.631   2.160   6.990 -0.0405  0.1037 -0.0374
  271MOL    H4422184   0.030   2.052   6.935  0.6224 -1.7396 -1.3848
  271MOL    H4522185   7.676   2.046   6.837  1.3214 -1.6877  2.4352
  271MOL    C4622186   7.688   2.235   7.094  0.0208  1.0966  0.4904
  271MOL    O4722187   7.773   2.156   7.172  0.2052  0.1315 -0.3224
  271MOL    H4822188   7.600   2.254   7.156 -0.3304  0.4739  0.1831
  271MOL    H4922189   7.737   2.331   7.076  1.7413 -0.1687 -1.8692
  271MOL    C5022190   0.124   2.196   7.176  0.2941  0.6860 -0.1118
  271MOL    O5122191   0.144   2.313   7.245  0.0927 -0.1382  0.3646
  271MOL    H5222192   0.162   2.212   7.076  1.9358  2.6855  0.8020
  271MOL    H5322193   0.183   2.117   7.222 -3.7134 -1.2090  2.0968
  271MOL    C5422194   0.115   2.303   7.381  0.1947  0.5571 -0.4166
  271MOL    O5522195   0.217   2.233   7.450 -0.0371  0.1885  0.1925
  271MOL    H5622196   0.018   2.260   7.404  0.5709  0.6482  1.4147
  271MOL    H5722197   0.111   2.406   7.417  3.8603 -0.0256  1.9462
  271MOL    C5822198   0.333   2.305   7.468  0.7383 -0.5827 -0.1780
  271MOL    O5922199   0.326   2.390   7.575 -0.1254  0.7158  0.3038
  271MOL    H6022200   0.363   2.360   7.379  1.8143 -2.3287 -0.9225
  271MOL    H6122201   0.411   2.230   7.476  1.0727 -0.5777 -2.7589
  271MOL    C6222202   0.374   2.335   7.692 -0.0096  0.6637  0.1095
  271MOL    O6322203   0.516   2.312   7.694  0.3401  0.4245  0.2753
  271MOL    H6422204   0.320   2.241   7.708  0.6989  0.4054  1.0600
  271MOL    H6522205   0.334   2.382   7.782 -0.6918 -0.9530  0.6769
  271MOL    C6622206   0.578   2.428   7.719 -0.1549  0.4583 -0.4407
  271MOL    O6722207   0.574   2.473   0.067  0.4805  0.1971 -0.3133
  271MOL    H6822208   0.529   2.510   7.666  1.1689  1.2708 -0.4392
  271MOL    H6922209   0.682   2.427   7.687  0.4636 -1.5355  1.5114
  271MOL    C7022210   0.647   2.380   0.146  1.1179 -0.2172  0.2169
  271MOL    O7122211   0.783   2.399   0.128 -0.3378  0.1390 -0.3864
  271MOL    H7222212   0.610   2.280   0.127  0.5176 -0.1717  1.1386
  271MOL    H7322213   0.617   2.408   0.247  0.5782  1.5844 -0.4140
  271MOL    C7422214   0.865   2.314   0.202  0.7133  0.9870 -0.6729
  271MOL    O7522215   0.984   2.379   0.235  0.0032  0.4612  0.6678
  271MOL    H7622216   0.914   2.234   0.146  1.6863  1.8057 -1.0161
  271MOL    H7722217   0.810   2.283   0.290  1.6053 -1.0460 -0.8075
  271MOL    C7822218   0.950   2.470   0.336  0.6629 -0.2449  0.2444
  271MOL    O7922219   0.952   2.411   0.461  0.0774  0.3708 -0.2264
  271MOL    H8022220   0.856   2.523   0.320 -0.3558 -2.7469 -2.5027
  271MOL    H8122221   1.035   2.538   0.335  1.4468 -1.2271 -0.9370
  271MOL    H8222222   1.036   2.422   0.502  0.6879 -0.1928 -1.2933
  272MOL     C122223   1.834   1.017   0.176 -0.2895 -0.5690 -0.3306
  272MOL     O222224   1.739   0.933   0.116  0.0100 -0.0330 -0.4164
  272MOL     H322225   1.867   1.092   0.104 -2.2935  0.9134  0.2462
  272MOL     H422226   1.797   1.074   0.261  1.9363  0.5592 -0.0504
  272MOL     H522227   1.916   0.954   0.211 -0.7745 -1.2766 -0.4597
  272MOL     C622228   1.685   0.847   0.214  0.3613 -0.1229  0.8592
  272MOL     O722229   1.779   0.766   0.279  0.1758  0.1349 -0.5727
  272MOL     H822230   1.619   0.783   0.156  0.4416  0.4222  0.1490
  272MOL     H922231   1.632   0.896   0.295 -1.3384  1.4917 -1.1461
  272MOL    C1022232   1.815   0.648   0.224  0.6593  0.0369  0.2238
  272MOL    O1122233   1.699   0.574   0.210  0.1159  0.1453 -0.5925
  272MOL    H1222234   1.891   0.594   0.280  1.7742 -0.4124 -1.6777
  272MOL    H1322235   1.857   0.664   0.125  0.5230 -0.0801  0.1470
  272MOL    C1422236   1.625   0.530   0.323  0.5590 -0.0203 -0.7464
  272MOL    O1522237   1.676   0.412   0.373  0.0577 -0.3319  0.0294
  272MOL    H1622238   1.523   0.524   0.286  0.2294  1.2093 -0.0738
  272MOL    H1722239   1.627   0.603   0.404  1.0680 -3.4315  2.3972
  272MOL    C1822240   1.670   0.308   0.286  0.9592  0.1189  0.6843
  272MOL    O1922241   1.721   0.190   0.339 -0.1051  0.1274 -0.0324
  272MOL    H2022242   1.727   0.324   0.195  0.2085  0.3344  0.2469
  272MOL    H2122243   1.567   0.278   0.266  1.2437 -0.3353 -0.1432
  272MOL    C2222244   1.660   0.151   0.463  0.3658 -0.0709 -0.9844
  272MOL    O2322245   1.522   0.135   0.445  0.0943 -0.0794 -0.0416
  272MOL    H2422246   1.685   0.222   0.542 -1.2317 -0.9313  0.3163
  272MOL    H2522247   1.707   0.064   0.509 -2.3528 -2.3740 -2.3920
  272MOL    C2622248   1.484   0.007   0.411 -0.3906 -0.2894 -0.3861
  272MOL    O2722249   1.479   7.703   0.520 -0.2009 -0.6701 -0.0397
  272MOL    H2822250   1.552   7.759   0.332 -0.7063 -3.5608  0.5940
  272MOL    H2922251   1.381   0.007   0.376 -1.6910  0.8845  3.2192
  272MOL    C3022252   1.484   7.574   0.484 -0.2266 -0.4828 -0.0022
  272MOL    O3122253   1.371   7.536   0.415 -0.3483  0.8559 -0.1536
  272MOL    H3222254   1.488   7.509   0.571 -0.0866  1.5420  1.5360
  272MOL    H3322255   1.576   7.559   0.426  0.9164  1.3941  1.2562
  272MOL    C3422256   1.261   7.545   0.502  0.1106  0.1257  0.0695
  272MOL    O3522257   1.148   7.464   0.464 -0.1310 -0.5332 -0.5194
  272MOL    H3622258   1.244   7.652   0.512  0.5200  0.1364  0.6712
  272MOL    H3722259   1.282   7.517   0.605  0.6318 -1.8798 -0.5585
  272MOL    C3822260   1.037   7.501   0.529 -0.5181 -0.3517 -0.1991
  272MOL    O3922261   1.025   7.434   0.652  0.2887 -0.0800 -0.1828
  272MOL    H4022262   0.955   7.470   0.464  0.2769 -0.6893 -1.0514
  272MOL    H4122263   1.015   7.607   0.543  0.5743 -0.2847  1.1383
  272MOL    C4222264   0.914   7.353   0.671 -0.5092  0.7223 -0.1673
  272MOL    O4322265   0.956   7.236   0.737  0.1234  0.0669 -0.2234
  272MOL    H4422266   0.869   7.321   0.577  1.1438 -0.7976 -0.4730
  272MOL    H4522267   0.841   7.400   0.737  0.8160  0.4121  1.5641
  272MOL    C4622268   1.004   7.141   0.645  0.0709 -0.1871  0.1319
  272MOL    O4722269   1.009   7.014   0.694  0.4849 -0.5546 -0.2134
  272MOL    H4822270   1.095   7.168   0.592  0.7152 -0.7077  0.9551
  272MOL    H4922271   0.937   7.124   0.561 -1.8866  3.2282  0.9016
  272MOL    C5022272   1.093   7.001   0.807 -0.4760  0.1097  0.1501
  272MOL    O5122273   1.231   7.023   0.782  0.1365  0.1805  0.6274
  272MOL    H5222274   1.082   6.901   0.850  1.3590  0.2002  0.8825
  272MOL    H5322275   1.067   7.078   0.879  0.8915  0.9931 -0.2820
  272MOL    C5422276   1.299   6.920   0.709  0.6887 -0.4810  0.2344
  272MOL    O5522277   1.291   6.792   0.770 -0.2192  0.0500  0.0612
  272MOL    H5622278   1.406   6.928   0.691  0.4281 -1.3522 -1.8907
  272MOL    H5722279   1.240   6.902   0.620 -0.7992  1.6705  0.7410
  272MOL    C5822280   1.407   6.769   0.848 -0.4378  0.3162  0.0800
  272MOL    O5922281   1.519   6.742   0.766  0.2950  0.1967 -0.1495
  272MOL    H6022282   1.373   6.695   0.921  1.4441 -0.4311  0.1981
  272MOL    H6122283   1.428   6.856   0.910 -0.5929  0.8176 -0.5670
  272MOL    C6222284   1.509   6.620   0.702  0.2250  0.4598 -0.2295
  272MOL    O6322285   1.529   6.511   0.791  0.3328 -0.0500 -0.4016
  272MOL    H6422286   1.589   6.625   0.627  0.3729 -1.9808 -0.2779
  272MOL    H6522287   1.413   6.620   0.651  0.2282 -3.2927 -0.3704
  272MOL    C6622288   1.663   6.498   0.829 -0.0152  0.3195  0.1162
  272MOL    O6722289   1.755   6.458   0.735  0.0145 -0.2221  0.4433
  272MOL    H6822290   1.653   6.411   0.894 -0.0712 -1.4164 -2.1583
  272MOL    H6922291   1.682   6.598   0.869 -0.2486  0.6515 -0.6098
  272MOL    C7022292   1.877   6.409   0.793  0.1000 -0.6180  0.2377
  272MOL    O7122293   1.963   6.363   0.692  0.1350 -0.0485  0.2113
  272MOL    H7222294   1.868   6.335   0.872 -2.7572  0.7939  1.2998
  272MOL    H7322295   1.936   6.494   0.829 -0.2401 -0.1496 -0.3057
  272MOL    C7422296   1.900   6.265   0.617 -0.0640 -0.1126 -0.6158
  272MOL    O7522297   1.990   6.196   0.537 -0.2833  0.0468 -0.3069
  272MOL    H7622298   1.826   6.320   0.559  2.3621  2.2967 -1.5213
  272MOL    H7722299   1.849   6.199   0.686  1.9198  0.4760  1.4605
  272MOL    C7822300   2.063   6.106   0.614  0.2565  1.1069 -0.0437
  272MOL    O7922301   2.098   6.000   0.530  0.6274 -0.2315  0.6533
  272MOL    H8022302   2.022   6.064   0.705  0.8880 -0.6633 -0.5531
  272MOL    H8122303   2.158   6.155   0.633  1.4137 -1.5182  1.1615
  272MOL    H8222304   2.164   6.035   0.473 -1.2586  3.7021  0.6738
  273MOL     C122305   2.042   4.471   0.386  0.1643  0.0455  0.3353
  273MOL     O222306   1.902   4.435   0.363  0.2597  0.3455 -0.5780
  273MOL     H322307   2.099   4.380   0.403  3.1328  1.5524 -1.2393
  273MOL     H422308   2.090   4.518   0.300 -0.2428 -2.2517 -1.1773
  273MOL     H522309   2.060   4.539   0.469 -0.6786  1.4795 -0.6371
  273MOL     C622310   1.845   4.379   0.478  0.1486 -0.4284  0.2307
  273MOL     O722311   1.810   4.477   0.571 -0.5574 -0.7245 -0.2207
  273MOL     H822312   1.902   4.292   0.511  3.3120  1.4369 -0.0957
  273MOL     H922313   1.751   4.340   0.438 -0.3451  2.9120 -2.0336
  273MOL    C1022314   1.752   4.423   0.687 -0.6202  0.5206  0.2932
  273MOL    O1122315   1.627   4.369   0.651  0.7097 -0.0121  0.2224
  273MOL    H1222316   1.739   4.509   0.753  0.7231  0.8525  0.1503
  273MOL    H1322317   1.822   4.363   0.746 -0.5407  0.0963 -0.2291
  273MOL    C1422318   1.555   4.319   0.766 -0.0237  0.5904 -0.4257
  273MOL    O1522319   1.615   4.207   0.809 -0.0660 -0.5694  0.9308
  273MOL    H1622320   1.450   4.303   0.739 -0.1546 -2.7082  1.7359
  273MOL    H1722321   1.557   4.394   0.845  0.3284 -0.4342  0.5592
  273MOL    C1822322   1.586   4.091   0.728  1.1340 -1.2054  0.0485
  273MOL    O1922323   1.680   3.991   0.753  0.3296  0.0735 -0.1637
  273MOL    H2022324   1.592   4.119   0.623 -1.6564 -2.8232 -0.5783
  273MOL    H2122325   1.484   4.057   0.746  0.6108  0.1749 -0.1992
  273MOL    C2222326   1.806   4.028   0.704 -0.4377  0.0483 -0.2775
  273MOL    O2322327   1.811   4.037   0.563  0.4755 -0.2766  0.2764
  273MOL    H2422328   1.869   3.946   0.738 -2.5360 -2.3946 -2.0692
  273MOL    H2522329   1.827   4.123   0.754  0.3715  0.1392 -0.7717
  273MOL    C2622330   1.818   3.914   0.503 -0.3595 -0.0207 -0.3207
  273MOL    O2722331   1.925   3.828   0.551  0.2442 -0.1779  0.4548
  273MOL    H2822332   1.824   3.937   0.397 -0.1326 -0.5001 -0.4143
  273MOL    H2922333   1.723   3.872   0.535  1.1182 -1.7103  1.9522
  273MOL    C3022334   2.045   3.872   0.504  0.0402 -0.4036 -0.3673
  273MOL    O3122335   2.051   3.861   0.368 -0.2670 -0.2583 -0.0997
  273MOL    H3222336   2.117   3.800   0.545  0.3887  1.4218  2.3730
  273MOL    H3322337   2.072   3.974   0.533 -0.7585 -0.4053  0.4216
  273MOL    C3422338   2.163   3.918   0.308  0.5284 -0.1814  0.4668
  273MOL    O3522339   2.174   4.061   0.303  0.3522  0.3530 -0.2905
  273MOL    H3622340   2.187   3.888   0.206  2.7554  0.0391  0.9002
  273MOL    H3722341   2.244   3.882   0.370 -0.1449 -2.1940  0.2062
  273MOL    C3822342   2.086   4.123   0.216  0.4462 -0.2011 -1.0162
  273MOL    O3922343   2.113   4.097   0.084 -0.3060  0.0438  0.2810
  273MOL    H4022344   2.087   4.231   0.232 -0.0621 -0.3656  0.2428
  273MOL    H4122345   1.983   4.090   0.235  0.5378  0.9515  1.7167
  273MOL    C4222346   2.226   4.163   0.034  0.3995 -1.0366 -0.0619
  273MOL    O4322347   2.199   4.305   0.032  0.1033 -0.2926 -0.2367
  273MOL    H4422348   2.258   4.117   7.724  0.8139  1.1680 -1.0294
  273MOL    H4522349   2.308   4.144   0.104 -0.2113  0.5072  1.1057
  273MOL    C4622350   2.132   4.339   7.703 -0.1532  0.4950  0.3380
  273MOL    O4722351   2.215   4.348   7.583  0.4976 -0.4161 -0.0537
  273MOL    H4822352   2.084   4.435   7.723  2.0032  1.0117  3.2751
  273MOL    H4922353   2.050   4.268   7.691  1.2789 -0.9589 -1.0478
  273MOL    C5022354   2.244   4.481   7.547 -0.0074 -0.6435  0.0911
  273MOL    O5122355   2.143   4.551   7.482 -0.4064  0.2474 -0.6708
  273MOL    H5222356   2.331   4.478   7.482  0.7538  0.9158  1.0100
  273MOL    H5322357   2.277   4.540   7.633 -0.7186 -0.9757  0.5943
  273MOL    C5422358   2.100   4.497   7.362 -0.6578  0.0624 -0.5550
  273MOL    O5522359   1.975   4.542   7.317 -0.3041 -0.3170  0.4580
  273MOL    H5622360   2.105   4.389   7.352 -0.2108  0.0366 -0.0875
  273MOL    H5722361   2.178   4.528   7.293 -0.6922  2.4722  0.4081
  273MOL    C5822362   1.944   4.484   7.193 -0.1655 -0.2112  0.3853
  273MOL    O5922363   1.888   4.353   7.208 -0.4028 -0.0760 -0.3014
  273MOL    H6022364   2.037   4.484   7.135 -1.8646 -1.3963 -2.4475
  273MOL    H6122365   1.865   4.550   7.159  1.7950  2.8116  1.4834
  273MOL    C6222366   1.772   4.352   7.275  0.0879  0.9111  0.2366
  273MOL    O6322367   1.674   4.435   7.213 -0.5846 -0.7424  0.0338
  273MOL    H6422368   1.798   4.399   7.370  0.1324  2.8267 -0.6992
  273MOL    H6522369   1.731   4.254   7.301 -0.5692  1.3946  1.0315
  273MOL    C6622370   1.575   4.489   7.301 -0.3556  0.3072  0.3797
  273MOL    O6722371   1.439   4.472   7.270 -0.5026  0.3362  0.2818
  273MOL    H6822372   1.590   4.597   7.306  1.2339  0.0370  1.9828
  273MOL    H6922373   1.587   4.451   7.403 -1.1372  0.4001  0.5114
  273MOL    C7022374   1.394   4.340   7.292 -0.0289 -0.4649  0.0333
  273MOL    O7122375   1.397   4.306   7.428  0.0056  0.3537 -0.3630
  273MOL    H7222376   1.448   4.269   7.229 -1.6662 -1.8211  0.1340
  273MOL    H7322377   1.292   4.340   7.254 -0.2549 -1.0465  0.6396
  273MOL    C7422378   1.314   4.384   7.516  0.4526  0.6554 -0.0034
  273MOL    O7522379   1.194   4.316   7.529 -0.6002  0.4431 -0.2302
  273MOL    H7622380   1.284   4.482   7.477 -1.3533 -0.2860 -1.0333
  273MOL    H7722381   1.368   4.399   7.610 -1.8942  2.7027  1.0907
  273MOL    C7822382   1.204   4.221   7.631 -0.2108 -0.3428  0.0446
  273MOL    O7922383   1.088   4.140   7.641  0.4052  0.0272 -0.0712
  273MOL    H8022384   1.230   4.260   7.729 -3.2007 -1.3540  1.2896
  273MOL    H8122385   1.285   4.155   7.598  0.4816  0.3180  0.4002
  273MOL    H8222386   1.067   4.108   7.554  0.1710  2.2549 -0.8607
  274MOL     C122387   3.776   6.060   1.958  0.2720 -0.4387  0.4731
  274MOL     O222388   3.749   6.133   1.835 -0.3415  0.6671 -0.5741
  274MOL     H322389   3.770   5.954   1.935  0.3101 -0.1521 -0.9234
  274MOL     H422390   3.872   6.091   2.000  0.1546 -0.1187  0.5065
  274MOL     H522391   3.696   6.075   2.030  1.0031 -0.3443  1.2752
  274MOL     C622392   3.764   6.269   1.867 -0.5146  1.5953 -0.0104
  274MOL     O722393   3.660   6.314   1.946  0.1168  0.1928  0.1042
  274MOL     H822394   3.777   6.329   1.777  0.1228  2.2703  0.5282
  274MOL     H922395   3.852   6.291   1.927 -0.1239 -0.2803  0.1377
  274MOL    C1022396   3.530   6.307   1.894  0.4138  0.7646 -0.5130
  274MOL    O1122397   3.502   6.395   1.788  0.4705 -0.5210  0.0917
  274MOL    H1222398   3.458   6.316   1.976  0.3800 -3.8854  0.1275
  274MOL    H1322399   3.521   6.201   1.869  3.1753  0.7591 -1.6699
  274MOL    C1422400   3.417   6.335   1.702 -0.6355 -0.2806  0.7503
  274MOL    O1522401   3.474   6.241   1.616  0.0422 -0.2948 -0.2782
  274MOL    H1622402   3.392   6.416   1.634  2.0209 -0.0336 -0.0156
  274MOL    H1722403   3.328   6.291   1.745 -1.8231  1.4636  0.1122
  274MOL    C1822404   3.581   6.282   1.539 -0.3746  0.1813 -0.2749
  274MOL    O1922405   3.537   6.361   1.432  0.2707 -0.4098  0.3397
  274MOL    H2022406   3.641   6.201   1.497  0.1994  0.6256 -0.3256
  274MOL    H2122407   3.650   6.340   1.600 -0.8082  0.7868 -0.3602
  274MOL    C2222408   3.476   6.290   1.333 -0.5761  0.1241  0.0446
  274MOL    O2322409   3.571   6.204   1.273  0.8233  0.1377 -0.0976
  274MOL    H2422410   3.432   6.361   1.262 -2.1757 -1.1470 -0.2624
  274MOL    H2522411   3.398   6.225   1.372 -1.6187  1.2232 -0.1882
  274MOL    C2622412   3.644   6.254   1.169 -0.0090 -0.3217 -0.7170
  274MOL    O2722413   3.569   6.277   1.056  0.3134  0.3792 -0.1613
  274MOL    H2822414   3.736   6.198   1.153  2.8099  3.0319  2.6063
  274MOL    H2922415   3.680   6.353   1.198  0.0376 -0.1545 -1.3557
  274MOL    C3022416   3.630   6.366   0.967  0.0945  0.2248 -0.5253
  274MOL    O3122417   3.771   6.346   0.936  0.1732 -0.1207 -0.5466
  274MOL    H3222418   3.620   6.465   1.011  2.0396  1.8662 -3.5810
  274MOL    H3322419   3.573   6.368   0.874 -1.7203 -1.5859  0.5013
  274MOL    C3422420   3.785   6.225   0.866  0.2550 -0.1951  0.2322
  274MOL    O3522421   3.919   6.189   0.851 -0.4206  0.0852 -0.8391
  274MOL    H3622422   3.752   6.242   0.764 -0.4725  1.7406  0.7533
  274MOL    H3722423   3.721   6.147   0.908  0.4222 -0.5472 -0.1680
  274MOL    C3822424   3.988   6.271   0.753 -0.0431 -0.1626 -0.1796
  274MOL    O3922425   3.958   6.227   0.626  0.3900  0.4559 -0.6983
  274MOL    H4022426   4.096   6.267   0.766 -0.1511 -1.0809  0.4980
  274MOL    H4122427   3.953   6.374   0.761  0.9780  0.2409 -0.8701
  274MOL    C4222428   4.010   6.101   0.591 -0.1961 -0.4354  0.0712
  274MOL    O4322429   3.946   6.046   0.480 -0.1570  0.2753  0.3944
  274MOL    H4422430   3.994   6.035   0.676 -1.3027 -0.7186 -0.3588
  274MOL    H4522431   4.117   6.122   0.595 -0.5773  1.7559 -0.2510
  274MOL    C4622432   3.954   6.133   0.369 -0.3511  0.3745 -0.0627
  274MOL    O4722433   4.088   6.142   0.331  0.1885 -0.1484 -0.4502
  274MOL    H4822434   3.916   6.233   0.392 -2.2835 -0.6652  1.4175
  274MOL    H4922435   3.890   6.083   0.297  0.9167 -0.2005 -0.8148
  274MOL    C5022436   4.129   6.039   0.252  0.9447 -0.0041 -0.1423
  274MOL    O5122437   4.092   6.066   0.118 -0.2010 -0.3008  0.1163
  274MOL    H5222438   4.100   5.946   0.301 -1.2995  1.0515  0.5820
  274MOL    H5322439   4.238   6.044   0.247  0.9931 -1.5148 -0.6569
  274MOL    C5422440   4.122   5.958   0.032 -0.3597  0.2617  0.0411
  274MOL    O5522441   4.037   5.852   0.056  0.4068 -0.0934 -0.1724
  274MOL    H5622442   4.225   5.925   0.047 -0.4408  0.8224  1.8714
  274MOL    H5722443   4.112   5.995   7.714 -0.9630 -1.5915 -0.6047
  274MOL    C5822444   4.067   5.731   7.780  0.0315  0.1230  0.5508
  274MOL    O5922445   4.057   5.725   7.637 -0.8716 -0.0741  0.1003
  274MOL    H6022446   4.003   5.654   0.039 -0.5142  1.5871  2.4647
  274MOL    H6122447   4.172   5.711   0.020  0.1507 -0.4245 -0.4435
  274MOL    C6222448   3.923   5.735   7.603  0.5300 -1.3957 -0.1745
  274MOL    O6322449   3.849   5.623   7.637 -0.0902  0.0190 -0.0071
  274MOL    H6422450   3.919   5.761   7.497  1.6676 -2.1497 -0.4132
  274MOL    H6522451   3.861   5.811   7.650  1.1594 -0.6707 -0.5016
  274MOL    C6622452   3.885   5.504   7.570  0.4075 -0.7034  0.2653
  274MOL    O6722453   3.806   5.398   7.605  0.2162 -0.4178  0.1760
  274MOL    H6822454   3.992   5.496   7.592  0.1738  0.2918  1.8740
  274MOL    H6922455   3.872   5.535   7.467  0.7445  1.1006  0.7523
  274MOL    C7022456   3.692   5.381   7.526  0.2272  0.0410 -0.0795
  274MOL    O7122457   3.606   5.283   7.578 -0.1188 -0.4942 -0.3875
  274MOL    H7222458   3.703   5.361   7.419  0.3102 -2.2715  0.3217
  274MOL    H7322459   3.631   5.471   7.533  1.5833  1.0897 -1.3516
  274MOL    C7422460   3.671   5.164   7.570 -0.1527  0.0748 -0.0661
  274MOL    O7522461   3.699   5.116   7.443  0.2286 -0.7406  0.5705
  274MOL    H7622462   3.601   5.104   7.629  1.1184 -0.1509  1.2257
  274MOL    H7722463   3.767   5.179   7.619 -0.6363  2.7258  0.1391
  274MOL    C7822464   3.589   5.103   7.353 -0.2612 -0.4598  0.0977
  274MOL    O7922465   3.622   5.014   7.249  0.0673 -0.0802 -0.4155
  274MOL    H8022466   3.575   5.204   7.314 -0.0113 -0.0438  1.0641
  274MOL    H8122467   3.497   5.067   7.400  0.1193  0.3674  1.5229
  274MOL    H8222468   3.609   4.930   7.290 -1.5217 -0.1124 -0.9569
  275MOL     C122469   0.949   6.733   2.893  0.2047 -0.3013  0.6752
  275MOL     O222470   0.813   6.758   2.854  0.0656 -0.1151  0.6959
  275MOL     H322471   0.956   6.670   2.981  1.7493 -0.9386  0.1090
  275MOL     H422472   0.992   6.687   2.804 -0.8814  2.6838 -1.4897
  275MOL     H522473   1.002   6.827   2.912  1.3487 -0.5523 -1.1696
  275MOL     C622474   0.745   6.861   2.909  0.0968 -0.2332  0.6341
  275MOL     O722475   0.641   6.900   2.830  0.0368 -0.1737  0.7041
  275MOL     H822476   0.803   6.951   2.889 -0.9603  0.9488  2.5957
  275MOL     H922477   0.726   6.857   3.017 -2.0967 -1.4383  0.2300
  275MOL    C1022478   0.527   6.825   2.853 -0.0125 -0.3268  0.3783
  275MOL    O1122479   0.484   6.822   2.992  0.5537  0.2659  0.7134
  275MOL    H1222480   0.546   6.722   2.823 -1.7418 -0.7790  0.7588
  275MOL    H1322481   0.449   6.862   2.787 -0.2032 -0.8654  0.2976
  275MOL    C1422482   0.435   6.945   3.032 -0.2865  0.0620  0.8064
  275MOL    O1522483   0.371   6.927   3.160  0.4135 -0.0696 -0.2455
  275MOL    H1622484   0.354   6.963   2.960 -1.1009 -2.6955  0.9662
  275MOL    H1722485   0.502   7.031   3.030 -0.1053 -0.0878 -1.5446
  275MOL    C1822486   0.461   6.903   3.258  0.0174 -0.1001 -0.2982
  275MOL    O1922487   0.537   7.020   3.294 -0.1457 -0.7012  0.5342
  275MOL    H2022488   0.534   6.828   3.229 -1.5079 -2.0989  0.9166
  275MOL    H2122489   0.413   6.847   3.338 -1.4398  1.1546 -0.2645
  275MOL    C2222490   0.452   7.134   3.315 -0.2098  0.3418  0.3213
  275MOL    O2322491   0.528   7.241   3.349  0.5001 -0.9567 -0.4223
  275MOL    H2422492   0.397   7.112   3.407  1.2086 -2.0130  0.6599
  275MOL    H2522493   0.381   7.158   3.236 -1.1886 -0.2855  0.9916
  275MOL    C2622494   0.616   7.285   3.248 -0.5335  0.1706 -0.2485
  275MOL    O2722495   0.551   7.328   3.132 -0.0560  0.0123 -0.2300
  275MOL    H2822496   0.683   7.203   3.220  0.2314  1.0011 -0.8697
  275MOL    H2922497   0.682   7.363   3.285 -1.2858  0.9556 -0.5657
  275MOL    C3022498   0.470   7.444   3.150 -0.0742  0.2812  0.3079
  275MOL    O3122499   0.538   7.557   3.178  0.1614  0.4844  0.1671
  275MOL    H3222500   0.388   7.430   3.220 -0.5135  0.8486 -0.0924
  275MOL    H3322501   0.414   7.448   3.057  0.0334 -0.2385  0.2138
  275MOL    C3422502   0.616   7.598   3.064  0.5196  0.3473  0.6324
  275MOL    O3522503   0.542   7.631   2.953 -0.1618  0.0757 -0.2197
  275MOL    H3622504   0.690   7.520   3.047  0.1697  0.3389 -0.9648
  275MOL    H3722505   0.688   7.675   3.089  0.8470 -0.1198  1.1234
  275MOL    C3822506   0.466   7.747   2.979 -0.2027  0.3267  0.5241
  275MOL    O3922507   0.529   0.074   2.924  0.2336  0.3850 -0.2164
  275MOL    H4022508   0.451   7.774   3.084  1.0743 -3.6945  1.8102
  275MOL    H4122509   0.369   7.741   2.930  1.4624  0.5648 -2.9617
  275MOL    C4222510   0.511   0.086   2.788  0.4893  0.2434 -0.4738
  275MOL    O4322511   0.594   0.180   2.725  0.0411  0.2580 -0.0889
  275MOL    H4422512   0.409   0.123   2.777  0.6670  1.2734  1.1226
  275MOL    H4522513   0.523   7.774   2.737  0.6020  0.9056 -1.7063
  275MOL    C4622514   0.584   0.305   2.783 -0.6762  0.3409 -1.1008
  275MOL    O4722515   0.459   0.364   2.777  0.0238  0.0897 -0.0736
  275MOL    H4822516   0.656   0.360   2.722 -0.6920  0.3359 -1.1241
  275MOL    H4922517   0.601   0.306   2.891 -2.2200  0.4389 -0.8500
  275MOL    C5022518   0.416   0.398   2.646  0.1854 -0.4505 -0.0941
  275MOL    O5122519   0.505   0.475   2.567  0.0076  0.4134  0.2080
  275MOL    H5222520   0.319   0.448   2.643  0.9776  1.1712  0.6514
  275MOL    H5322521   0.400   0.303   2.595 -0.1657 -0.4047 -0.0679
  275MOL    C5422522   0.539   0.600   2.619  0.5439 -0.7642 -0.3051
  275MOL    O5522523   0.423   0.676   2.647 -0.0512  0.7884 -0.4169
  275MOL    H5622524   0.603   0.648   2.545  1.1468 -0.7316  0.2338
  275MOL    H5722525   0.603   0.585   2.706 -0.2353 -0.2776  0.3534
  275MOL    C5822526   0.364   0.744   2.547  0.4023 -0.0861  0.2308
  275MOL    O5922527   0.441   0.857   2.513 -0.0329 -0.3786 -0.0015
  275MOL    H6022528   0.266   0.776   2.584  1.0936  0.7520  1.3594
  275MOL    H6122529   0.344   0.680   2.461  0.9757  1.2038 -0.8882
  275MOL    C6222530   0.460   0.952   2.616 -0.9555 -0.9818 -0.0274
  275MOL    O6322531   0.524   1.065   2.565  0.2747  0.5553 -0.8683
  275MOL    H6422532   0.531   0.918   2.691  1.2817  0.5526 -1.4088
  275MOL    H6522533   0.368   0.986   2.664  1.1438  2.3689  1.8644
  275MOL    C6622534   0.453   1.134   2.465 -0.1481  0.3042 -0.1408
  275MOL    O6722535   0.343   1.208   2.521 -0.2813  0.0976 -0.5725
  275MOL    H6822536   0.408   1.062   2.396 -0.7389  0.8769 -0.3606
  275MOL    H6922537   0.521   1.205   2.418  1.4202 -0.7633  0.4912
  275MOL    C7022538   0.383   1.322   2.577 -0.0751  0.2645  0.5001
  275MOL    O7122539   0.437   1.410   2.482 -0.3209 -0.2111  0.3116
  275MOL    H7222540   0.461   1.307   2.652  0.9098 -2.7084 -1.0389
  275MOL    H7322541   0.304   1.368   2.636 -2.7987 -2.8718 -0.5567
  275MOL    C7422542   0.340   1.485   2.421  0.3758 -0.6019 -0.2505
  275MOL    O7522543   0.281   1.586   2.501  0.0263  0.0049  0.0203
  275MOL    H7622544   0.254   1.425   2.390  1.0845 -1.9258  0.3108
  275MOL    H7722545   0.384   1.534   2.334  1.5908  1.4260  1.4917
  275MOL    C7822546   0.386   1.678   2.539  0.1506 -0.0605  0.4134
  275MOL    O7922547   0.331   1.800   2.594 -0.1344  0.6546  0.1399
  275MOL    H8022548   0.456   1.698   2.458  0.7326  0.4505  1.0388
  275MOL    H8122549   0.441   1.627   2.619  1.0631 -1.8465 -1.2908
  275MOL    H8222550   0.289   1.785   2.678  1.9527 -0.6428  1.0045
  276MOL     C122551   1.082   4.030   6.284  0.0156 -0.5813  0.2567
  276MOL     O222552   1.128   4.107   6.178 -0.8139 -0.0812  0.1115
  276MOL     H322553   0.984   3.987   6.262 -0.1002 -1.6873  2.8048
  276MOL     H422554   1.165   3.969   6.318 -0.2200 -0.4501  1.0674
  276MOL     H522555   1.065   4.106   6.359 -2.5434  0.5179 -1.3669
  276MOL     C622556   1.106   4.038   6.058  0.3082  0.0483  0.0037
  276MOL     O722557   1.164   3.906   6.047  0.7556  0.9151 -0.0635
  276MOL     H822558   1.160   4.098   5.985 -0.3305 -1.6174 -1.8834
  276MOL     H922559   0.999   4.044   6.037  0.5893 -1.2659 -1.9973
  276MOL    C1022560   1.116   3.844   5.932  0.1221 -0.4178  0.7240
  276MOL    O1122561   1.030   3.738   5.979 -0.0396  0.2712  0.3626
  276MOL    H1222562   1.196   3.816   5.863 -0.9067 -0.5058 -0.4574
  276MOL    H1322563   1.050   3.914   5.881 -0.8422 -0.2795  2.1526
  276MOL    C1422564   1.093   3.621   6.005  0.4022  0.2564 -0.5614
  276MOL    O1522565   1.108   3.556   5.879 -0.2957 -0.2549 -0.6205
  276MOL    H1622566   1.025   3.562   6.067 -1.3606  1.5922 -1.1921
  276MOL    H1722567   1.193   3.636   6.047  0.6582  0.7425 -1.3294
  276MOL    C1822568   0.986   3.518   5.825  0.1466 -0.0936 -0.3884
  276MOL    O1922569   0.937   3.405   5.878  0.2788  0.0423 -0.6174
  276MOL    H2022570   1.006   3.484   5.723 -1.4862 -1.7628 -0.1630
  276MOL    H2122571   0.917   3.602   5.823  1.9966  1.4595 -0.9490
  276MOL    C2222572   1.002   3.283   5.836  0.0324  0.4801  0.1291
  276MOL    O2322573   0.957   3.238   5.712 -0.2317  0.3004 -0.6837
  276MOL    H2422574   0.982   3.206   5.911 -1.4428  2.8876  2.2810
  276MOL    H2522575   1.111   3.292   5.836  0.0475  0.3105  0.3615
  276MOL    C2622576   1.019   3.121   5.677 -0.5179  0.9256  0.4632
  276MOL    O2722577   1.153   3.135   5.641 -0.1435  0.3864 -0.3142
  276MOL    H2822578   0.963   3.071   5.597  2.4430  0.7915 -1.6134
  276MOL    H2922579   1.021   3.046   5.755  0.5745  1.1683  0.6698
  276MOL    C3022580   1.177   3.173   5.510  0.4327  0.2961 -1.1112
  276MOL    O3122581   1.309   3.184   5.475 -0.1909 -0.3612  0.1685
  276MOL    H3222582   1.132   3.270   5.488  2.2640  1.0857 -1.4773
  276MOL    H3322583   1.130   3.098   5.446 -2.0832 -0.2604  1.2412
  276MOL    C3422584   1.330   3.203   5.335 -0.0363  0.0629  0.1956
  276MOL    O3522585   1.263   3.316   5.281 -0.4729 -0.6376 -0.5033
  276MOL    H3622586   1.298   3.115   5.279 -1.3054 -0.6621  2.0447
  276MOL    H3722587   1.435   3.225   5.313 -0.4739 -0.0225 -2.1718
  276MOL    C3822588   1.327   3.441   5.301 -0.3110  0.1965  0.6472
  276MOL    O3922589   1.432   3.467   5.215  0.4351  0.3072 -0.0821
  276MOL    H4022590   1.363   3.438   5.404  0.1755 -0.5311  0.4574
  276MOL    H4122591   1.242   3.509   5.292 -0.6684 -0.2764  0.4554
  276MOL    C4222592   1.396   3.464   5.081 -0.1510  0.2706 -0.0002
  276MOL    O4322593   1.498   3.491   4.994  0.1516  0.4617 -0.0243
  276MOL    H4422594   1.307   3.525   5.063  0.2288  0.9114  0.2875
  276MOL    H4522595   1.373   3.359   5.064 -2.9270  0.6736  0.9102
  276MOL    C4622596   1.547   3.625   5.003 -0.2048 -0.0326  0.3319
  276MOL    O4722597   1.649   3.645   4.903  0.0810 -0.4609 -0.0608
  276MOL    H4822598   1.585   3.644   5.103  3.6254 -1.7347 -0.7021
  276MOL    H4922599   1.468   3.699   4.990 -0.0997 -0.1869 -1.3283
  276MOL    C5022600   1.602   3.657   4.780 -0.3382  0.1440  0.0081
  276MOL    O5122601   1.691   3.599   4.691  0.6051  0.5648 -0.6959
  276MOL    H5222602   1.601   3.765   4.770 -1.2797  0.0975 -0.4370
  276MOL    H5322603   1.498   3.637   4.754 -0.1597 -0.7765 -0.0154
  276MOL    C5422604   1.658   3.470   4.664  0.1122 -0.6210  0.8749
  276MOL    O5522605   1.531   3.462   4.610  0.3895 -0.0842  0.3379
  276MOL    H5622606   1.652   3.422   4.761  0.5121  1.6767  2.0715
  276MOL    H5722607   1.737   3.435   4.597 -0.0508 -0.2688  0.4911
  276MOL    C5822608   1.515   3.520   4.484 -0.0644  0.3026  0.0931
  276MOL    O5922609   1.572   3.436   4.385 -0.3504  0.3934  0.8146
  276MOL    H6022610   1.544   3.624   4.465  0.6547  0.2519  0.8657
  276MOL    H6122611   1.407   3.515   4.467  0.0981  0.9571 -1.1689
  276MOL    C6222612   1.556   3.484   4.257 -0.4499 -0.3181  0.6013
  276MOL    O6322613   1.420   3.515   4.230  0.0381  0.4359 -0.3867
  276MOL    H6422614   1.592   3.414   4.182 -0.6940 -0.1270  0.3062
  276MOL    H6522615   1.604   3.581   4.243 -0.7435 -0.1747  0.5834
  276MOL    C6622616   1.354   3.398   4.197  0.5818  0.3647  0.0211
  276MOL    O6722617   1.389   3.342   4.075 -0.8938 -0.6931 -0.0143
  276MOL    H6822618   1.247   3.416   4.195  0.3704 -0.8491 -1.5732
  276MOL    H6922619   1.369   3.318   4.269  1.4887  1.4288  1.0323
  276MOL    C7022620   1.346   3.425   3.968 -0.3427  0.5053  0.2210
  276MOL    O7122621   1.207   3.419   3.956  0.2383  0.4439  0.1355
  276MOL    H7222622   1.396   3.379   3.883 -0.9170  1.3731 -0.5869
  276MOL    H7322623   1.385   3.525   3.983 -0.0891  0.4555 -0.1058
  276MOL    C7422624   1.157   3.292   3.922  0.1445 -0.3349  0.0057
  276MOL    O7522625   1.033   3.305   3.867 -0.1710 -0.2692  0.2517
  276MOL    H7622626   1.159   3.219   4.003  0.1193  2.1439  2.3116
  276MOL    H7722627   1.217   3.245   3.843 -1.2539 -0.8310 -0.7713
  276MOL    C7822628   0.941   3.333   3.966 -0.4821 -0.4862 -0.5649
  276MOL    O7922629   0.823   3.377   3.909  0.5030 -0.1846 -0.2409
  276MOL    H8022630   0.970   3.410   4.036  0.0741 -0.0444 -1.2713
  276MOL    H8122631   0.914   3.242   4.020 -0.4399 -1.2903 -1.8516
  276MOL    H8222632   0.842   3.459   3.867  1.6507  0.0443  0.7024
  277MOL     C122633   5.005   6.164   4.723  0.0895 -0.2474  0.3215
  277MOL     O222634   5.023   6.125   4.862 -0.5955 -0.1877 -0.5790
  277MOL     H322635   5.082   6.121   4.659  1.1741 -1.1070  2.1610
  277MOL     H422636   4.908   6.129   4.689 -0.3741 -1.3285  2.6351
  277MOL     H522637   5.011   6.273   4.727 -0.7373 -0.1577 -0.7345
  277MOL     C622638   4.907   6.124   4.941 -0.1253 -0.0765  0.3846
  277MOL     O722639   4.860   6.250   4.966  0.0133 -0.0882  0.0780
  277MOL     H822640   4.918   6.071   5.036 -0.8628 -0.9342  0.0015
  277MOL     H922641   4.838   6.063   4.882  1.0794  0.4114 -1.5489
  277MOL    C1022642   4.948   6.335   5.043 -0.1691  0.6841  0.5841
  277MOL    O1122643   4.941   6.302   5.181 -0.4189  0.0029 -0.6413
  277MOL    H1222644   4.907   6.435   5.029 -1.6624  0.2239  1.6358
  277MOL    H1322645   5.044   6.329   4.992 -0.6491 -0.6984 -0.1971
  277MOL    C1422646   4.806   6.305   5.223  0.5772 -0.3085 -0.0758
  277MOL    O1522647   4.740   6.421   5.190  0.0107  0.7765 -0.2398
  277MOL    H1622648   4.805   6.299   5.332 -0.1349  2.8793  0.1532
  277MOL    H1722649   4.743   6.219   5.202 -2.0167  0.3576  4.3257
  277MOL    C1822650   4.781   6.535   5.264 -0.5217  0.4601 -0.3632
  277MOL    O1922651   4.725   6.545   5.392  0.2105  0.3053 -0.7571
  277MOL    H2022652   4.749   6.627   5.215 -0.4316 -0.4026 -2.0708
  277MOL    H2122653   4.890   6.534   5.266 -0.5076 -1.0122 -0.8934
  277MOL    C2222654   4.588   6.553   5.403  0.1436  0.3661 -0.4321
  277MOL    O2322655   4.539   6.577   5.535  0.5303  0.3648 -0.2664
  277MOL    H2422656   4.546   6.457   5.374 -0.3041  0.6209 -0.6280
  277MOL    H2522657   4.547   6.631   5.338  1.3169  1.7398  0.4581
  277MOL    C2622658   4.563   6.707   5.583 -0.4597 -0.1167 -0.7767
  277MOL    O2722659   4.494   6.809   5.523 -0.3722 -0.2146  0.1621
  277MOL    H2822660   4.671   6.724   5.589 -0.1355 -1.7949 -1.7484
  277MOL    H2922661   4.524   6.706   5.685  0.5593  0.8733 -0.3584
  277MOL    C3022662   4.354   6.787   5.524 -0.1453  0.4792 -0.3733
  277MOL    O3122663   4.280   6.811   5.642  0.6717  0.2575  0.0054
  277MOL    H3222664   4.325   6.686   5.491 -0.8120  0.2546  0.8742
  277MOL    H3322665   4.306   6.853   5.452 -1.1992 -0.5434 -0.6295
  277MOL    C3422666   4.254   6.948   5.670  0.7892 -0.1885  0.2069
  277MOL    O3522667   4.163   6.958   5.782  0.3397  0.0624 -0.2934
  277MOL    H3622668   4.207   6.999   5.586  2.9308  0.8226 -0.4135
  277MOL    H3722669   4.346   7.006   5.682 -0.1288  0.8635  2.4786
  277MOL    C3822670   4.211   6.904   5.904  0.8450  0.3303 -0.3882
  277MOL    O3922671   4.300   6.986   5.966  0.6076 -0.1339 -0.2744
  277MOL    H4022672   4.255   6.808   5.879 -3.7925 -1.6885 -1.3228
  277MOL    H4122673   4.118   6.899   5.961  1.5831  0.5846  0.8570
  277MOL    C4222674   4.308   6.965   6.101  0.8686  0.6369 -0.5899
  277MOL    O4322675   4.204   7.034   6.161  0.1919  0.2404 -0.3939
  277MOL    H4422676   4.395   7.019   6.137  0.6395  1.0733 -0.6994
  277MOL    H4522677   4.312   6.857   6.115  0.9362  0.3392 -2.7210
  277MOL    C4622678   4.212   7.028   6.302  0.1195 -0.1511  0.8970
  277MOL    O4722679   4.165   6.915   6.349 -0.0563 -0.7216 -0.5327
  277MOL    H4822680   4.156   7.113   6.341  1.5670  2.2738 -2.0940
  277MOL    H4922681   4.316   7.035   6.336 -0.4478 -0.5404  2.7829
  277MOL    C5022682   4.019   6.910   6.369  0.5952  0.5827  0.0408
  277MOL    O5122683   3.970   6.788   6.429  0.8441 -0.8342 -0.0020
  277MOL    H5222684   3.961   6.923   6.277  0.1631  0.0735  0.2355
  277MOL    H5322685   3.987   6.990   6.435 -1.7634 -1.7132  1.7884
  277MOL    C5422686   4.025   6.764   6.556  0.0974  0.3293 -0.2777
  277MOL    O5522687   4.008   6.627   6.579  0.2390 -0.3676 -0.0839
  277MOL    H5622688   4.002   6.830   6.640  0.1893  0.7161 -0.5585
  277MOL    H5722689   4.132   6.782   6.550  0.1421  0.4224  0.7516
  277MOL    C5822690   3.876   6.607   6.625  0.6086  0.3023 -0.1682
  277MOL    O5922691   3.845   6.476   6.647 -0.3038  0.0439  0.0055
  277MOL    H6022692   3.813   6.654   6.550  1.0146  1.5639  0.2516
  277MOL    H6122693   3.876   6.659   6.721  0.7387 -3.4382  1.9185
  277MOL    C6222694   3.842   6.404   6.526 -0.4276  0.3283 -0.4657
  277MOL    O6322695   3.784   6.279   6.545  0.0984 -0.1163 -0.4215
  277MOL    H6422696   3.946   6.392   6.495 -0.0913  2.1642 -0.1037
  277MOL    H6522697   3.777   6.457   6.456 -1.2732  0.8715  0.7098
  277MOL    C6622698   3.862   6.189   6.603 -0.0925 -0.0085 -0.4278
  277MOL    O6722699   3.969   6.138   6.524  0.1466 -0.3187  0.3248
  277MOL    H6822700   3.801   6.110   6.646  1.3916 -0.1209  1.5897
  277MOL    H6922701   3.902   6.235   6.694 -0.8584  0.3080 -0.2472
  277MOL    C7022702   3.928   6.048   6.429 -0.0395  0.3694 -0.2649
  277MOL    O7122703   3.904   5.923   6.487 -0.8264  0.2354 -0.2059
  277MOL    H7222704   4.014   6.053   6.361  1.4635  1.3116  1.6420
  277MOL    H7322705   3.843   6.090   6.376  0.4011  1.0993 -0.3972
  277MOL    C7422706   3.839   5.834   6.395 -0.5482  0.1497  0.3618
  277MOL    O7522707   3.929   5.779   6.310 -0.3789  0.1363  0.0661
  277MOL    H7622708   3.771   5.892   6.332  0.3967  2.5156  1.4597
  277MOL    H7722709   3.780   5.758   6.447 -2.1968  1.2755  0.1873
  277MOL    C7822710   4.002   5.675   6.370 -0.0277 -0.0905  0.1620
  277MOL    O7922711   4.116   5.647   6.296  0.0513 -0.3363 -0.0832
  277MOL    H8022712   3.945   5.582   6.369 -2.7597  1.5046  0.1928
  277MOL    H8122713   4.032   5.697   6.472  0.3186  0.1869  0.0024
  277MOL    H8222714   4.180   5.624   6.361 -0.6688 -0.5809  0.5409
  278MOL     C122715   7.027   6.343   5.462  0.3183 -0.3945  0.2775
  278MOL     O222716   7.063   6.269   5.575 -0.1181 -0.2529  0.6698
  278MOL     H322717   7.089   6.433   5.464  0.3275 -0.3759 -0.6645
  278MOL     H422718   7.048   6.300   5.365 -0.8071  1.5875 -0.8994
  278MOL     H522719   6.926   6.385   5.463  0.3633 -0.0556 -2.8414
  278MOL     C622720   7.009   6.146   5.576 -0.2346  0.0018 -0.0344
  278MOL     O722721   6.875   6.131   5.538  0.9483  0.2727  0.1897
  278MOL     H822722   7.015   6.104   5.677 -0.8751 -1.4605 -0.5876
  278MOL     H922723   7.076   6.079   5.522 -0.0217  0.5009 -0.3805
  278MOL    C1022724   6.788   6.156   5.638  0.3277 -0.0589 -0.1035
  278MOL    O1122725   6.777   6.047   5.728 -0.3037  0.0414  0.6661
  278MOL    H1222726   6.693   6.169   5.588  0.0551  0.0626  0.4416
  278MOL    H1322727   6.818   6.246   5.693  0.6358  0.6155 -1.3469
  278MOL    C1422728   6.696   6.069   5.838 -0.4830 -0.7601  0.3781
  278MOL    O1522729   6.568   6.114   5.797  0.4519  0.3091  0.0025
  278MOL    H1622730   6.742   6.142   5.905  0.0344  1.0781 -1.9142
  278MOL    H1722731   6.680   5.978   5.897 -0.9117 -0.1671  1.1879
  278MOL    C1822732   6.479   6.152   5.896  0.0929  0.1437  0.3964
  278MOL    O1922733   6.526   6.266   5.961 -0.7457 -0.5776 -0.1908
  278MOL    H2022734   6.465   6.080   5.976  2.1927 -0.4220  0.3014
  278MOL    H2122735   6.383   6.175   5.849  0.2736  1.0935  0.4648
  278MOL    C2222736   6.517   6.383   5.877  0.2127 -0.1406  0.5573
  278MOL    O2322737   6.385   6.406   5.843  0.2578 -0.3779  0.2397
  278MOL    H2422738   6.580   6.362   5.790  0.9508 -1.8425  1.4774
  278MOL    H2522739   6.574   6.459   5.930  1.4954  1.0226 -2.3558
  278MOL    C2622740   6.326   6.475   5.953  0.0665 -0.8323 -0.0805
  278MOL    O2722741   6.190   6.481   5.956  0.0863 -0.4228  0.0764
  278MOL    H2822742   6.352   6.581   5.953 -1.2904 -0.4839  1.9487
  278MOL    H2922743   6.371   6.435   6.043  2.5524  1.4614 -0.2280
  278MOL    C3022744   6.143   6.357   5.984 -0.2904 -0.3091 -1.0044
  278MOL    O3122745   6.066   6.362   6.103  0.2843 -0.1897 -0.4544
  278MOL    H3222746   6.210   6.272   5.973 -0.0596 -0.1188 -1.0499
  278MOL    H3322747   6.067   6.347   5.906 -0.3814 -0.0580 -0.9469
  278MOL    C3422748   6.150   6.374   6.209  0.3694  0.5401  0.2897
  278MOL    O3522749   6.238   6.263   6.220  1.0150 -0.5232  0.7820
  278MOL    H3622750   6.083   6.388   6.294 -2.3647  1.4858 -1.9596
  278MOL    H3722751   6.208   6.466   6.213  2.0409 -0.5080  0.8552
  278MOL    C3822752   6.186   6.149   6.276  0.2034  0.1961  1.0108
  278MOL    O3922753   6.140   6.164   6.403 -0.1738  0.1990  0.5674
  278MOL    H4022754   6.266   6.078   6.252 -0.1366  0.6570 -1.6283
  278MOL    H4122755   6.094   6.119   6.226  1.1463 -1.5688  0.2711
  278MOL    C4222756   6.239   6.185   6.495  0.2615 -0.7561 -0.4500
  278MOL    O4322757   6.320   6.074   6.508 -0.3283 -0.1022  0.5548
  278MOL    H4422758   6.179   6.203   6.584 -1.9031 -1.3868 -1.7387
  278MOL    H4522759   6.297   6.273   6.464  0.6622 -1.6055 -2.1369
  278MOL    C4622760   6.436   6.111   6.575 -0.0446  0.3942  0.8758
  278MOL    O4722761   6.523   6.178   6.488  0.2279 -0.6054 -0.6917
  278MOL    H4822762   6.474   6.017   6.615 -1.5006  0.4175  2.3459
  278MOL    H4922763   6.411   6.175   6.659 -0.7137  2.1011 -0.5822
  278MOL    C5022764   6.604   6.098   6.405  0.8393 -0.5249  0.1757
  278MOL    O5122765   6.704   6.025   6.472  0.4862 -1.0206 -0.3514
  278MOL    H5222766   6.651   6.159   6.328 -0.7544 -0.5215 -0.8100
  278MOL    H5322767   6.526   6.034   6.364 -2.4706  2.3142  1.7587
  278MOL    C5422768   6.788   6.104   6.553  0.7672  0.5453 -0.3358
  278MOL    O5522769   6.900   6.019   6.575  0.2407  0.1887  0.8482
  278MOL    H5622770   6.741   6.144   6.643  1.0768 -2.2905  1.1683
  278MOL    H5722771   6.815   6.193   6.496 -0.0377  0.3398 -1.0296
  278MOL    C5822772   6.996   6.033   6.480  0.0876 -0.6986 -0.7743
  278MOL    O5922773   7.060   6.154   6.481 -0.0192 -0.3103  0.5715
  278MOL    H6022774   6.945   6.017   6.385  2.4848 -1.2142 -2.0130
  278MOL    H6122775   7.064   5.952   6.506  0.0324 -0.0087  1.6812
  278MOL    C6222776   7.146   6.165   6.589  0.2448 -0.4130  0.0797
  278MOL    O6322777   7.254   6.070   6.594  0.2187 -0.1068 -0.3783
  278MOL    H6422778   7.091   6.157   6.683 -0.6312 -1.8065 -0.5385
  278MOL    H6522779   7.175   6.270   6.586 -3.5582  0.7000 -0.1151
  278MOL    C6622780   7.368   6.107   6.524 -0.3147 -0.1639 -0.6350
  278MOL    O6722781   7.456   6.183   6.604  0.0978 -0.7811  0.7770
  278MOL    H6822782   7.339   6.170   6.440  1.2825 -3.0859 -3.5264
  278MOL    H6922783   7.417   6.021   6.476 -0.2791 -0.2196 -0.4976
  278MOL    C7022784   7.538   6.108   6.693 -0.1758 -0.4044 -0.3191
  278MOL    O7122785   7.615   6.024   6.614 -0.3268  0.2389 -0.4194
  278MOL    H7222786   7.474   6.057   6.764  0.7227 -1.4063 -0.2127
  278MOL    H7322787   7.600   6.175   6.752  0.2882 -0.5464 -0.6385
  278MOL    C7422788   7.687   5.931   6.689  0.0806 -0.0138 -0.6192
  278MOL    O7522789   0.011   5.991   6.762 -0.7848 -0.1802  0.2629
  278MOL    H7622790   7.724   5.850   6.626  0.4387  0.7406 -1.3926
  278MOL    H7722791   7.621   5.874   6.755  3.9792  0.9074  4.4141
  278MOL    C7822792   0.107   6.048   6.680  0.3262 -0.2038  0.1847
  278MOL    O7922793   0.179   5.951   6.612 -0.0094  0.2448 -0.3885
  278MOL    H8022794   0.175   6.100   6.747 -1.8154  1.2323  1.2929
  278MOL    H8122795   0.071   6.125   6.611  1.6824 -1.2730 -1.7412
  278MOL    H8222796   0.213   5.878   6.661  0.7691  0.1947 -1.0066
  279MOL     C122797   1.238   6.675   2.057 -0.1781 -0.0389  0.9664
  279MOL     O222798   1.174   6.573   2.135  0.2779  0.3215  0.2012
  279MOL     H322799   1.170   6.758   2.039 -0.7022 -0.8868 -1.1356
  279MOL     H422800   1.330   6.704   2.108  0.6457 -0.2048 -0.3987
  279MOL     H522801   1.262   6.646   1.954 -1.8596 -0.4147  0.6696
  279MOL     C622802   1.258   6.473   2.170 -0.7463 -0.1549  0.5217
  279MOL     O722803   1.199   6.390   2.260  0.1552 -0.3759  0.4587
  279MOL     H822804   1.345   6.509   2.225  1.7426 -2.7945 -1.5261
  279MOL     H922805   1.302   6.413   2.091 -0.0246 -1.1107  1.6317
  279MOL    C1022806   1.113   6.301   2.193 -0.4045 -0.1801 -0.1873
  279MOL    O1122807   0.999   6.365   2.132  0.6184 -0.0091 -0.4876
  279MOL    H1222808   1.079   6.235   2.273  2.5653  2.3625  3.3378
  279MOL    H1322809   1.159   6.237   2.118  2.7528 -0.6948  2.0902
  279MOL    C1422810   0.902   6.396   2.227 -0.2635 -0.1252 -0.2142
  279MOL    O1522811   0.848   6.284   2.285 -0.2149 -0.3966  0.1227
  279MOL    H1622812   0.822   6.465   2.200  1.6330  2.0603 -0.3607
  279MOL    H1722813   0.958   6.446   2.306 -2.8830  0.9902  0.9752
  279MOL    C1822814   0.780   6.207   2.194 -0.6835  1.0421 -0.2520
  279MOL    O1922815   0.714   6.102   2.258 -0.3644  0.2973 -0.2727
  279MOL    H2022816   0.847   6.154   2.126 -2.4384 -0.6886 -0.6735
  279MOL    H2122817   0.706   6.257   2.132  0.3122 -0.2220 -2.5052
  279MOL    C2222818   0.587   6.151   2.307 -0.2704 -0.0215  0.0243
  279MOL    O2322819   0.495   6.180   2.203  0.1371 -0.8089 -0.4722
  279MOL    H2422820   0.607   6.243   2.361 -2.1578 -0.0681  0.8486
  279MOL    H2522821   0.549   6.082   2.383  1.5092  1.5378  2.4023
  279MOL    C2622822   0.457   6.063   2.133 -0.0410 -0.1478  0.4363
  279MOL    O2722823   0.380   5.980   2.207 -0.0762 -0.3236 -0.0625
  279MOL    H2822824   0.547   6.012   2.098  0.1303  0.6875 -0.3520
  279MOL    H2922825   0.391   6.087   2.050 -1.3102  1.4390  1.8512
  279MOL    C3022826   0.258   6.042   2.242 -0.0814  0.2783 -0.2687
  279MOL    O3122827   0.159   6.051   2.139  0.0502  0.0590  0.5397
  279MOL    H3222828   0.279   6.143   2.277  1.8421 -0.8130  1.9115
  279MOL    H3322829   0.212   5.986   2.324  0.5732  0.7406  0.4192
  279MOL    C3422830   0.111   5.922   2.096 -0.2665 -0.0738  0.1488
  279MOL    O3522831   0.045   5.928   1.965 -0.1119 -0.5673  0.1498
  279MOL    H3622832   0.031   5.895   2.164 -1.7960  0.9316 -1.2212
  279MOL    H3722833   0.189   5.845   2.099  0.6310  0.7691 -1.1504
  279MOL    C3822834   7.717   6.010   1.976  0.1575 -0.3785  0.5190
  279MOL    O3922835   7.672   6.036   1.849  0.9310  0.1496 -0.6880
  279MOL    H4022836   7.748   6.105   2.021 -0.4096 -0.0643  0.2520
  279MOL    H4122837   7.633   5.970   2.031 -0.5329 -1.1913 -1.0989
  279MOL    C4222838   7.621   5.926   1.781 -0.6361 -0.1109 -0.5061
  279MOL    O4322839   7.484   5.905   1.804  0.0079 -0.1931 -0.6695
  279MOL    H4422840   7.685   5.840   1.797 -2.2232 -1.5220 -1.4813
  279MOL    H4522841   7.641   5.963   1.680  1.2683 -0.1473 -0.1531
  279MOL    C4622842   7.419   5.832   1.710  0.1046  0.0046  0.7795
  279MOL    O4722843   7.413   5.896   1.586 -0.0760 -0.3434  0.3388
  279MOL    H4822844   7.321   5.792   1.736 -1.1138  0.6046 -2.5644
  279MOL    H4922845   7.484   5.747   1.687  0.4845  0.4589  0.1356
  279MOL    C5022846   7.289   5.962   1.563 -0.3251 -0.2272 -0.5421
  279MOL    O5122847   7.189   5.870   1.529  0.6243  0.0656 -0.1132
  279MOL    H5222848   7.305   6.033   1.481 -0.4769 -1.0028 -1.2583
  279MOL    H5322849   7.261   6.020   1.651 -0.7907  0.9753 -1.4574
  279MOL    C5422850   7.209   5.802   1.415  0.0514  0.4811  0.1893
  279MOL    O5522851   7.117   5.695   1.403 -0.0451  0.2567  0.0923
  279MOL    H5622852   7.311   5.766   1.404 -0.1870 -0.2797  0.4516
  279MOL    H5722853   7.198   5.873   1.333 -0.6256  2.2802  1.8006
  279MOL    C5822854   7.124   5.606   1.511 -0.1779 -0.7022  1.1450
  279MOL    O5922855   7.233   5.519   1.511 -0.4414 -0.0936 -0.4201
  279MOL    H6022856   7.039   5.539   1.508 -1.0380  0.4158  0.0772
  279MOL    H6122857   7.114   5.654   1.609 -2.8744 -0.7386  0.9223
  279MOL    C6222858   7.264   5.450   1.393  0.4970 -0.8699 -0.0664
  279MOL    O6322859   7.392   5.395   1.395 -0.2317  0.3594 -0.4029
  279MOL    H6422860   7.252   5.517   1.308 -1.6998  1.9998  2.4030
  279MOL    H6522861   7.189   5.371   1.397 -1.7769  1.1298 -1.8691
  279MOL    C6622862   7.485   5.504   1.388 -0.9947 -0.2081  0.2599
  279MOL    O6722863   7.502   5.560   1.257 -0.4529 -0.0474  0.1438
  279MOL    H6822864   7.573   5.459   1.434  0.2020  2.7533  1.0078
  279MOL    H6922865   7.453   5.592   1.444  1.7953  2.0436 -1.5362
  279MOL    C7022866   7.601   5.501   1.176 -0.2605  0.9655  0.1138
  279MOL    O7122867   7.733   5.545   1.196  0.8594 -0.0951 -0.1097
  279MOL    H7222868   7.573   5.531   1.075  0.8228  1.4288 -0.0519
  279MOL    H7322869   7.600   5.392   1.173  2.6151  0.8855  0.8000
  279MOL    C7422870   7.745   5.678   1.224 -0.4453  0.6825  0.2992
  279MOL    O7522871   7.711   5.714   1.356  0.2575 -0.3864  0.6343
  279MOL    H7622872   7.697   5.743   1.151 -1.1156 -0.1649 -0.0214
  279MOL    H7722873   0.065   5.702   1.203 -0.2638 -0.2429  0.1292
  279MOL    C7822874   0.022   5.677   1.443 -0.8288 -0.5952  0.7494
  279MOL    O7922875   7.767   5.713   1.570  0.0745 -0.2523  0.1835
  279MOL    H8022876   0.116   5.723   1.415  0.0461 -1.8482  1.5522
  279MOL    H8122877   0.038   5.570   1.433  0.8326 -0.4068  1.1759
  279MOL    H8222878   0.011   5.804   1.571 -0.0016 -0.2002 -1.2610
  280MOL     C122879   3.413   5.348   0.543 -0.2027 -0.2351  0.1497
  280MOL     O222880   3.551   5.360   0.558 -0.5549  0.0705  0.6272
  280MOL     H322881   3.363   5.421   0.607 -0.4153  0.9930 -1.4093
  280MOL     H422882   3.369   5.362   0.445  0.0191  0.4732  0.1530
  280MOL     H522883   3.375   5.250   0.573  0.1448 -0.5086 -0.2853
  280MOL     C622884   3.607   5.474   0.509 -0.0828  0.0816  0.3578
  280MOL     O722885   3.570   5.592   0.574  0.1725  0.0028  0.1527
  280MOL     H822886   3.576   5.485   0.405 -1.9521  0.0338  0.8892
  280MOL     H922887   3.714   5.471   0.488  0.0442  0.3670  0.9325
  280MOL    C1022888   3.617   5.597   0.708 -0.6788  0.1388  0.0352
  280MOL    O1122889   3.596   5.725   0.765 -0.1933  0.3164 -0.0358
  280MOL    H1222890   3.722   5.568   0.707  0.2136  3.1786 -1.0417
  280MOL    H1322891   3.569   5.520   0.769  0.4707  0.6146  1.5705
  280MOL    C1422892   3.641   5.831   0.684 -0.2681 -0.5562  0.2280
  280MOL    O1522893   3.615   5.953   0.747 -0.4123 -0.1322  0.2818
  280MOL    H1622894   3.584   5.835   0.592  0.8024  1.0985 -0.3926
  280MOL    H1722895   3.746   5.812   0.660 -0.0493  0.2153  0.5496
  280MOL    C1822896   3.478   5.989   0.737 -0.1656 -0.4409  0.1201
  280MOL    O1922897   3.438   6.021   0.598  0.5199 -0.8179  0.4428
  280MOL    H2022898   3.459   6.073   0.803 -1.7936 -2.1188  1.8541
  280MOL    H2122899   3.407   5.917   0.777 -0.4452 -0.2246  0.0113
  280MOL    C2222900   3.469   6.147   0.559  0.3156 -0.3219 -0.6001
  280MOL    O2322901   3.411   6.237   0.655 -0.1539  0.0065  0.0048
  280MOL    H2422902   3.438   6.161   0.456 -1.0829 -0.6056 -0.2301
  280MOL    H2522903   3.578   6.153   0.560  0.5356 -3.1661 -2.0012
  280MOL    C2622904   3.272   6.243   0.652 -0.6281  0.4810 -0.3491
  280MOL    O2722905   3.232   6.280   0.525  0.1922 -0.0841  0.5949
  280MOL    H2822906   3.230   6.302   0.733  2.0573 -1.1718  2.3555
  280MOL    H2922907   3.230   6.143   0.663  0.6613  0.1847  2.2960
  280MOL    C3022908   3.251   6.412   0.501  0.8333  0.2856  0.4298
  280MOL    O3122909   3.241   6.433   0.363  0.2277  0.4338  0.1121
  280MOL    H3222910   3.349   6.452   0.528  0.8702  2.0905 -2.1509
  280MOL    H3322911   3.175   6.473   0.549  1.3920  1.9819 -0.8100
  280MOL    C3422912   3.218   6.564   0.321 -0.2393 -0.2029  0.3333
  280MOL    O3522913   3.086   6.600   0.332 -0.0153 -0.2742  0.4488
  280MOL    H3622914   3.247   6.566   0.216  2.0138 -1.4738  0.9051
  280MOL    H3722915   3.271   6.635   0.385  0.0368  0.1359 -0.2694
  280MOL    C3822916   2.995   6.544   0.243  0.0409  0.3093  0.2872
  280MOL    O3922917   2.868   6.568   0.296  0.2078  0.8921  1.0978
  280MOL    H4022918   3.012   6.437   0.246 -0.0755  0.2987  0.5991
  280MOL    H4122919   3.006   6.583   0.141  1.5520  0.3186  0.4379
  280MOL    C4222920   2.765   6.545   0.204  0.9143 -0.1072  0.0651
  280MOL    O4322921   2.755   6.405   0.166 -0.2733 -0.5214 -0.9788
  280MOL    H4422922   2.780   6.613   0.121 -1.4303 -1.9435 -1.9760
  280MOL    H4522923   2.672   6.582   0.248  0.6139 -0.4947 -0.2316
  280MOL    C4622924   2.638   6.368   0.104 -0.6240 -0.1767 -0.3055
  280MOL    O4722925   2.533   6.371   0.200  0.2785  0.2709  0.5776
  280MOL    H4822926   2.648   6.274   0.050 -0.1857  0.7986 -1.9369
  280MOL    H4922927   2.609   6.442   0.030 -0.2969  1.2753  0.9846
  280MOL    C5022928   2.410   6.335   0.153 -0.6558  0.5337 -0.2351
  280MOL    O5122929   2.418   6.197   0.137  0.4891  0.3579  0.0203
  280MOL    H5222930   2.394   6.390   0.060 -1.8824  3.3880  1.6004
  280MOL    H5322931   2.319   6.345   0.212 -1.3006  0.6403 -1.2324
  280MOL    C5422932   2.392   6.121   0.254 -0.1859  0.1377  0.4569
  280MOL    O5522933   2.254   6.115   0.270  0.1284  0.1435  0.4489
  280MOL    H5622934   2.437   6.168   0.341  2.1623 -2.4440  0.7101
  280MOL    H5722935   2.438   6.023   0.242 -2.7323 -0.7444 -2.8798
  280MOL    C5822936   2.189   6.029   0.182 -0.6803  0.3578 -0.3522
  280MOL    O5922937   2.224   5.903   0.197 -0.6568  0.0885  0.7424
  280MOL    H6022938   2.204   6.048   0.076  1.0383 -0.8886 -0.3622
  280MOL    H6122939   2.084   6.041   0.207 -0.2785  1.9030  0.6275
  280MOL    C6222940   2.129   5.811   0.231  0.2265  0.5935 -0.3311
  280MOL    O6322941   2.014   5.808   0.140  0.2036  0.2738 -0.8941
  280MOL    H6422942   2.109   5.821   0.338  1.1940 -0.5974 -0.0312
  280MOL    H6522943   2.171   5.711   0.227  2.7326  1.5822  0.2900
  280MOL    C6622944   2.034   5.748   0.017  0.1989  0.6013  0.7511
  280MOL    O6722945   1.923   5.745   7.714 -0.1874  0.5829 -0.5281
  280MOL    H6822946   2.050   5.642   0.036 -5.3548 -0.7268 -1.2849
  280MOL    H6922947   2.119   5.794   7.749 -0.1821  2.6509  1.8721
  280MOL    C7022948   1.816   5.662   7.751 -0.4880  0.0765 -0.3814
  280MOL    O7122949   1.837   5.531   7.702 -0.1442  0.7807  0.2776
  280MOL    H7222950   1.728   5.701   7.699  0.3067  3.1814  0.4817
  280MOL    H7322951   1.808   5.672   0.075  1.2450  0.2091 -0.2458
  280MOL    C7422952   1.849   5.526   7.563  0.1475  0.7989 -0.5259
  280MOL    O7522953   1.892   5.401   7.524 -0.0892 -0.1446  0.4173
  280MOL    H7622954   1.924   5.600   7.537  1.1094 -0.2413 -0.7443
  280MOL    H7722955   1.755   5.542   7.510 -0.3376 -0.5997 -0.1416
  280MOL    C7822956   1.804   5.297   7.555  0.0222  0.4130 -0.2453
  280MOL    O7922957   1.869   5.170   7.552  0.2088  0.3660 -0.1238
  280MOL    H8022958   1.715   5.299   7.492  0.3389 -0.7408 -0.7366
  280MOL    H8122959   1.759   5.301   7.654  0.2438 -0.2436 -0.1098
  280MOL    H8222960   1.887   5.152   7.461  0.1506  0.7757 -0.2175
  281MOL     C122961   6.627   2.107   4.560 -0.1127 -1.1280  0.6918
  281MOL     O222962   6.703   1.989   4.529 -0.2281 -0.0335  0.2814
  281MOL     H322963   6.526   2.106   4.519  0.4149 -0.5580 -0.6372
  281MOL     H422964   6.620   2.102   4.669 -3.9135  2.2426  0.7191
  281MOL     H522965   6.691   2.192   4.535 -0.4548 -0.7677  1.0305
  281MOL     C622966   6.709   1.955   4.389 -0.3822 -0.3420  0.7003
  281MOL     O722967   6.744   2.059   4.305 -0.2483  0.2206 -0.4120
  281MOL     H822968   6.608   1.922   4.364 -0.2016 -0.4895  0.1513
  281MOL     H922969   6.769   1.864   4.384 -1.6627 -1.2051  0.7344
  281MOL    C1022970   6.868   2.055   4.249  0.3579 -0.1315 -0.9318
  281MOL    O1122971   6.971   2.038   4.347 -0.2613  0.6898 -0.0798
  281MOL    H1222972   6.872   2.154   4.204  0.3116  2.0586  3.5034
  281MOL    H1322973   6.877   1.977   4.175  0.6914  0.3879 -1.4392
  281MOL    C1422974   7.000   2.150   4.421 -0.1755 -0.7867 -0.6641
  281MOL    O1522975   7.099   2.228   4.359  0.8034 -0.4445 -0.3282
  281MOL    H1622976   7.019   2.114   4.522  2.2664 -0.5817 -1.0227
  281MOL    H1722977   6.912   2.215   4.425  0.0089 -0.3670 -2.6224
  281MOL    C1822978   7.157   2.326   4.445 -0.1685 -0.7913 -0.3432
  281MOL    O1922979   7.190   2.268   4.564 -0.3135 -0.6411  0.3343
  281MOL    H2022980   7.079   2.402   4.450  1.3837  0.7282  1.1885
  281MOL    H2122981   7.241   2.373   4.395 -1.2326  1.5867  0.0287
  281MOL    C2222982   7.256   2.352   4.649  0.1020 -0.1662  0.1069
  281MOL    O2322983   7.165   2.447   4.696  0.1492 -0.4635 -0.4586
  281MOL    H2422984   7.341   2.401   4.603  1.0427 -0.8200  1.1223
  281MOL    H2522985   7.294   2.296   4.735  1.2505  1.1491  0.4540
  281MOL    C2622986   7.096   2.407   4.812 -0.1108 -0.0875 -0.8567
  281MOL    O2722987   7.179   2.420   4.927 -0.0852 -0.7499 -0.8592
  281MOL    H2822988   7.072   2.301   4.802  0.1441 -0.1943 -0.3046
  281MOL    H2922989   7.006   2.468   4.821  0.2019  0.1930  0.3393
  281MOL    C3022990   7.179   2.550   4.964 -0.3577  1.3674 -0.4765
  281MOL    O3122991   7.062   2.571   5.043 -0.1052  0.1136  0.3756
  281MOL    H3222992   7.173   2.618   4.878  2.0598 -1.7637 -3.2451
  281MOL    H3322993   7.272   2.572   5.015 -0.5168 -0.0756  0.4509
  281MOL    C3422994   7.044   2.707   5.079 -0.3859  0.5254 -1.1585
  281MOL    O3522995   7.011   2.783   4.966  1.2440 -0.7859  0.0248
  281MOL    H3622996   7.138   2.745   5.119 -0.1760 -0.2189 -0.9302
  281MOL    H3722997   6.973   2.726   5.159  1.2868  0.5328  0.3607
  281MOL    C3822998   6.867   2.771   4.943 -0.1933 -0.6481 -0.1894
  281MOL    O3922999   6.796   2.829   5.050  0.2150 -0.1078 -0.4608
  281MOL    H4023000   6.838   2.666   4.950 -0.8384 -0.4692 -0.1916
  281MOL    H4123001   6.842   2.805   4.843  0.6366 -1.6028 -0.7320
  281MOL    C4223002   6.662   2.779   5.052 -0.2647 -0.6577  0.0766
  281MOL    O4323003   6.658   2.656   5.116  0.0762  0.0076  0.9714
  281MOL    H4423004   6.624   2.773   4.950 -1.5118  1.4958  0.3876
  281MOL    H4523005   6.610   2.859   5.105  0.7942  0.1709 -0.1169
  281MOL    C4623006   6.554   2.645   5.205 -0.4416 -0.1470 -0.0012
  281MOL    O4723007   6.578   2.716   5.328  0.1496  0.7741  0.5646
  281MOL    H4823008   6.529   2.541   5.226 -2.2156 -0.1658 -2.0530
  281MOL    H4923009   6.461   2.683   5.163 -0.5729  0.7745  1.0738
  281MOL    C5023010   6.469   2.694   5.416  0.8852  0.2358  0.0057
  281MOL    O5123011   6.349   2.749   5.370  0.3870  0.6286 -0.2794
  281MOL    H5223012   6.494   2.737   5.513 -2.0202  3.6842 -0.6446
  281MOL    H5323013   6.456   2.586   5.420 -0.6945  0.4287  0.5095
  281MOL    C5423014   6.340   2.880   5.393  0.7809 -0.8367 -0.1186
  281MOL    O5523015   6.289   2.914   5.525 -0.0991  0.1712 -0.0742
  281MOL    H5623016   6.266   2.911   5.319  0.0094 -2.4176 -0.0207
  281MOL    H5723017   6.436   2.929   5.377  0.6067  0.3475  2.2369
  281MOL    C5823018   6.157   2.874   5.557 -1.0527 -0.0401 -0.5607
  281MOL    O5923019   6.122   2.894   5.687 -0.2455 -0.1847 -0.1532
  281MOL    H6023020   6.147   2.767   5.538 -0.8341  0.0456 -1.1721
  281MOL    H6123021   6.086   2.928   5.494  0.8076  1.2931 -1.5662
  281MOL    C6223022   6.028   2.798   5.727  0.0130  0.1199  0.7800
  281MOL    O6323023   6.088   2.684   5.785  0.0691 -0.0948  0.5130
  281MOL    H6423024   5.968   2.762   5.644  3.2292 -1.6599 -0.8775
  281MOL    H6523025   5.955   2.842   5.795  2.3309  2.4212  1.8770
  281MOL    C6623026   6.148   2.711   5.913  0.4921  0.5297  0.8036
  281MOL    O6723027   6.062   2.778   6.007  0.3093 -0.0539 -0.1872
  281MOL    H6823028   6.235   2.774   5.896 -0.2444  1.0905 -1.0568
  281MOL    H6923029   6.192   2.622   5.959  0.6082  0.0548 -0.2003
  281MOL    C7023030   6.004   2.684   6.094 -0.4282  0.5864 -0.2583
  281MOL    O7123031   6.093   2.626   6.184  0.1388  0.0296  0.0889
  281MOL    H7223032   5.954   2.604   6.040  0.2754  1.5850 -2.4284
  281MOL    H7323033   5.918   2.736   6.137 -0.3093  0.9895 -0.5019
  281MOL    C7423034   6.123   2.710   6.288 -0.5349  0.0687  0.2449
  281MOL    O7523035   6.034   2.707   6.398  0.0561  0.0872  0.3755
  281MOL    H7623036   6.146   2.813   6.260  0.6660 -0.2634 -0.0542
  281MOL    H7723037   6.217   2.674   6.330 -2.3133 -0.2811  4.1205
  281MOL    C7823038   5.969   2.584   6.420  0.0051  0.1628 -0.1291
  281MOL    O7923039   5.915   2.584   6.544  0.1959 -0.2554 -0.0536
  281MOL    H8023040   6.043   2.504   6.416  0.7114  0.7707  0.6544
  281MOL    H8123041   5.892   2.566   6.345  0.4769 -3.8172  0.2356
  281MOL    H8223042   5.971   2.520   6.585  1.8731  0.2100 -1.5515
  282MOL     C123043   2.493   6.003   4.382 -0.0061  0.0110 -0.3526
  282MOL     O223044   2.419   6.117   4.341 -0.6634  0.2741 -0.0883
  282MOL     H323045   2.423   5.923   4.405  0.6964 -0.6811 -0.6159
  282MOL     H423046   2.551   5.961   4.300  2.1226  0.5696  0.8279
  282MOL     H523047   2.545   6.010   4.478 -0.1074  0.4524 -0.3267
  282MOL     C623048   2.342   6.171   4.449  0.1952  0.0149 -0.4698
  282MOL     O723049   2.356   6.307   4.463 -0.2040  0.1732 -0.5482
  282MOL     H823050   2.373   6.132   4.546  0.7160  4.2712  1.1950
  282MOL     H923051   2.235   6.156   4.439  0.7180 -3.1699 -1.7079
  282MOL    C1023052   2.349   6.374   4.352  0.4691  0.7610  0.9493
  282MOL    O1123053   2.233   6.365   4.287 -0.1862 -0.1560  0.5441
  282MOL    H1223054   2.429   6.344   4.284  0.8161 -0.6945  1.9657
  282MOL    H1323055   2.366   6.479   4.376  0.8272  0.7449  0.7730
  282MOL    C1423056   2.126   6.416   4.357  0.3527 -0.3902 -0.1253
  282MOL    O1523057   2.108   6.552   4.361 -0.1824 -0.4093 -0.6021
  282MOL    H1623058   2.134   6.380   4.460 -0.4986  0.2347  0.1652
  282MOL    H1723059   2.040   6.369   4.309  1.3780 -0.4343 -1.9599
  282MOL    C1823060   2.100   6.607   4.231 -0.2534 -0.1213 -1.5719
  282MOL    O1923061   1.983   6.574   4.162 -0.4245 -0.5728  0.7008
  282MOL    H2023062   2.191   6.576   4.179 -0.4679 -0.4588 -1.7503
  282MOL    H2123063   2.113   6.713   4.254 -3.7109 -0.0121  0.2098
  282MOL    C2223064   1.872   6.640   4.206  0.2499  0.1815 -0.1241
  282MOL    O2323065   1.872   6.774   4.177 -0.3627  0.1198 -0.0317
  282MOL    H2423066   1.870   6.637   4.315  0.0693  0.5354 -0.1183
  282MOL    H2523067   1.778   6.604   4.164  0.3796  0.5924 -0.7802
  282MOL    C2623068   1.865   6.809   4.039  0.1382  0.7784 -0.3084
  282MOL    O2723069   1.836   6.945   4.031 -0.6641 -0.0694  0.5542
  282MOL    H2823070   1.799   6.754   3.972  0.6458 -0.1186 -0.0831
  282MOL    H2923071   1.961   6.782   3.994 -0.0934 -1.6420  0.6064
  282MOL    C3023072   1.700   6.971   4.011 -0.0366  0.6402 -0.1884
  282MOL    O3123073   1.659   6.924   3.887 -0.5415  0.1982  0.4620
  282MOL    H3223074   1.684   7.079   4.005 -1.2126  0.5451  0.9387
  282MOL    H3323075   1.654   6.925   4.097  0.6763 -0.7030 -0.5201
  282MOL    C3423076   1.521   6.884   3.881 -0.3521 -0.0283 -0.2719
  282MOL    O3523077   1.438   6.980   3.935  0.6215 -0.8401  0.0312
  282MOL    H3623078   1.517   6.800   3.950  0.3751  0.2661  0.1316
  282MOL    H3723079   1.501   6.847   3.780  0.4217 -0.2104 -0.3596
  282MOL    C3823080   1.400   7.079   3.845  0.4630 -0.3222  0.3966
  282MOL    O3923081   1.332   7.016   3.744  0.5665  0.1390  0.1035
  282MOL    H4023082   1.484   7.134   3.803  0.6338  0.2954  1.5287
  282MOL    H4123083   1.331   7.145   3.898 -0.2631 -1.2648  0.6391
  282MOL    C4223084   1.194   7.019   3.754 -0.0149 -0.2115  0.1896
  282MOL    O4323085   1.149   7.150   3.744  0.4546  0.0260  0.6626
  282MOL    H4423086   1.156   6.967   3.841 -0.8340 -0.8141 -0.5088
  282MOL    H4523087   1.158   6.962   3.668  0.3617  0.5045 -0.4491
  282MOL    C4623088   1.015   7.173   3.781 -0.5775  0.0027 -0.0616
  282MOL    O4723089   0.932   7.129   3.677  0.0041 -0.1662 -0.0839
  282MOL    H4823090   1.003   7.273   3.822  0.0710  1.3690 -3.0797
  282MOL    H4923091   0.989   7.109   3.866  0.5965 -1.7629 -0.9953
  282MOL    C5023092   0.913   7.229   3.591  0.1955 -0.0158 -0.6267
  282MOL    O5123093   0.823   7.321   3.645  0.5321 -0.1573  0.1700
  282MOL    H5223094   0.849   7.193   3.511 -0.7611 -0.9682  0.5472
  282MOL    H5323095   1.012   7.263   3.561  0.7750  2.8021  3.9951
  282MOL    C5423096   0.692   7.274   3.663 -0.2735  0.4070  0.0515
  282MOL    O5523097   0.685   7.205   3.784 -1.0437 -0.0258  0.2707
  282MOL    H5623098   0.651   7.205   3.589 -0.7523 -0.0864  0.7744
  282MOL    H5723099   0.626   7.360   3.671 -2.1160 -1.0415  0.7505
  282MOL    C5823100   0.667   7.293   3.895 -0.2744  1.0128  0.2025
  282MOL    O5923101   0.543   7.356   3.895  0.4335  0.4711 -0.2864
  282MOL    H6023102   0.754   7.358   3.895  1.5245 -1.3118 -0.8583
  282MOL    H6123103   0.674   7.245   3.992  0.2725  0.3929 -0.1363
  282MOL    C6223104   0.440   7.264   3.927 -0.3602 -0.5611 -0.5082
  282MOL    O6323105   0.318   7.329   3.908  0.3566  0.0370 -0.6382
  282MOL    H6423106   0.449   7.227   4.029 -1.6413 -1.0129 -0.5585
  282MOL    H6523107   0.437   7.184   3.852 -0.5230  0.8292 -2.0064
  282MOL    C6623108   0.295   7.431   4.005 -0.0885  1.3902  0.7241
  282MOL    O6723109   0.247   7.372   4.124  0.0765  0.7034  0.8114
  282MOL    H6823110   0.229   7.508   3.963  2.2789  2.4712 -1.1325
  282MOL    H6923111   0.389   7.484   4.017  0.3952  0.7916 -0.4221
  282MOL    C7023112   0.227   7.467   4.228  0.2348  0.0288  0.1690
  282MOL    O7123113   0.342   7.535   4.269  0.4948 -0.1715  0.6096
  282MOL    H7223114   0.193   7.416   4.318  0.8189 -0.8221 -0.0878
  282MOL    H7323115   0.155   7.537   4.186  1.5725  0.9674 -0.6183
  282MOL    C7423116   0.425   7.459   4.350 -0.6256 -0.1848 -0.4239
  282MOL    O7523117   0.399   7.448   4.484  0.3327 -0.0069 -0.2951
  282MOL    H7623118   0.528   7.492   4.338 -1.0883  1.1751 -0.7808
  282MOL    H7723119   0.439   7.361   4.303  2.5108 -1.0940  2.2352
  282MOL    C7823120   0.387   7.573   4.541  0.4765  0.5300 -0.1489
  282MOL    O7923121   0.357   7.569   4.675 -0.1712 -0.4386  0.2834
  282MOL    H8023122   0.313   7.638   4.495 -0.2833  0.0100  0.3054
  282MOL    H8123123   0.483   7.625   4.538  0.2523  0.8750 -1.7681
  282MOL    H8223124   0.432   7.536   4.724 -1.0952 -2.4926  0.3704
  283MOL     C123125   2.009   7.614   4.682 -0.4374 -0.6767  0.6537
  283MOL     O223126   2.072   7.609   4.809  0.0749 -0.5005  0.3326
  283MOL     H323127   2.087   7.606   4.607 -0.5296 -3.2314  0.8114
  283MOL     H423128   1.945   7.530   4.657 -0.1100 -0.1134 -2.2254
  283MOL     H523129   1.953   7.707   4.666  0.7341  0.0525  0.7007
  283MOL     C623130   2.132   7.487   4.839 -0.3058 -0.0591 -0.5176
  283MOL     O723131   2.202   7.479   4.962 -0.3723  0.2021 -0.2969
  283MOL     H823132   2.196   7.455   4.756 -2.4423  0.1643 -2.3060
  283MOL     H923133   2.054   7.411   4.840 -0.3949  0.0337 -0.4709
  283MOL    C1023134   2.306   7.569   4.973  0.1323  0.9246 -0.0328
  283MOL    O1123135   2.413   7.514   4.902  0.4657 -0.3055 -0.0377
  283MOL    H1223136   2.317   7.577   5.081  2.3171 -3.7713  0.1959
  283MOL    H1323137   2.281   7.668   4.935 -0.9334  0.5431 -0.3579
  283MOL    C1423138   2.542   7.565   4.935  1.0651  0.1025  0.1775
  283MOL    O1523139   2.583   7.549   5.060 -0.5162 -0.5556 -0.6549
  283MOL    H1623140   2.534   7.671   4.911 -0.8932 -0.2303 -0.7040
  283MOL    H1723141   2.611   7.511   4.871  0.8131  1.3319 -1.1511
  283MOL    C1823142   2.572   7.420   5.108  0.0379 -0.3355 -0.3470
  283MOL    O1923143   2.669   7.342   5.053  0.0804  0.1036  0.3254
  283MOL    H2023144   2.474   7.383   5.077  1.1099 -0.4938 -3.6905
  283MOL    H2123145   2.577   7.423   5.217 -1.5466  1.1152 -0.2857
  283MOL    C2223146   2.799   7.362   5.097 -1.0375 -0.0607 -0.3881
  283MOL    O2323147   2.828   7.321   5.229  0.0287  0.3982  0.1590
  283MOL    H2423148   2.828   7.466   5.113 -2.4133  0.2028  0.4415
  283MOL    H2523149   2.865   7.317   5.023 -2.2004 -0.0502 -1.4439
  283MOL    C2623150   2.820   7.184   5.246  0.3684 -0.0438 -0.0101
  283MOL    O2723151   2.910   7.118   5.158 -0.3960 -0.4106  0.0177
  283MOL    H2823152   2.718   7.149   5.235  0.6516 -0.8603 -0.1086
  283MOL    H2923153   2.842   7.161   5.350  0.7290 -1.6678 -0.4251
  283MOL    C3023154   2.869   6.990   5.122 -0.2495 -0.6073 -0.6048
  283MOL    O3123155   2.757   6.990   5.053  0.3727 -0.1352 -0.6305
  283MOL    H3223156   2.850   6.932   5.212  1.7579  2.0153  1.6044
  283MOL    H3323157   2.951   6.940   5.071  0.7043 -0.3954  0.6867
  283MOL    C3423158   2.762   7.021   4.915  0.4592  0.3104  0.2522
  283MOL    O3523159   2.858   6.951   4.847 -0.3044 -0.2853  0.2797
  283MOL    H3623160   2.782   7.127   4.906  2.5807 -0.0128  0.8695
  283MOL    H3723161   2.666   7.010   4.864  0.8855 -0.1540 -0.4443
  283MOL    C3823162   2.872   6.979   4.713  0.5491  0.3814  0.1454
  283MOL    O3923163   2.755   6.944   4.642  0.1158  0.2749  0.0080
  283MOL    H4023164   2.962   6.928   4.677 -0.8704 -0.7832 -1.8154
  283MOL    H4123165   2.891   7.087   4.710  0.9019  0.3301  0.4478
  283MOL    C4223166   2.748   6.992   4.513  0.2569 -0.0657  0.6017
  283MOL    O4323167   2.825   6.924   4.419 -0.1447 -0.3977 -0.2057
  283MOL    H4423168   2.772   7.099   4.505  0.0566 -0.0544  0.1715
  283MOL    H4523169   2.647   6.973   4.477  0.6550 -0.4645 -0.3207
  283MOL    C4623170   2.784   6.793   4.395 -0.6389  0.3549 -0.2867
  283MOL    O4723171   2.671   6.785   4.313 -0.0747  0.6466 -0.5729
  283MOL    H4823172   2.776   6.741   4.491 -2.6215  3.2572  1.2087
  283MOL    H4923173   2.864   6.739   4.346  0.7355  0.9346  1.2809
  283MOL    C5023174   2.699   6.767   4.178  0.9355  0.7779 -0.0879
  283MOL    O5123175   2.580   6.777   4.107 -0.1418 -0.0519 -0.1398
  283MOL    H5223176   2.748   6.673   4.154 -1.0149  0.0236 -1.2470
  283MOL    H5323177   2.752   6.852   4.135  2.1208  0.7226  1.2374
  283MOL    C5423178   2.499   6.667   4.126  0.1394  0.9610  0.3913
  283MOL    O5523179   2.548   6.555   4.062  0.3231  0.3651  0.3463
  283MOL    H5623180   2.397   6.691   4.100  0.5035  1.7549 -0.3151
  283MOL    H5723181   2.489   6.634   4.229 -2.0473 -0.3746 -0.2253
  283MOL    C5823182   2.470   6.512   3.952  0.5391 -0.0239 -0.0949
  283MOL    O5923183   2.348   6.454   3.982 -0.4262 -0.0445  0.4858
  283MOL    H6023184   2.521   6.442   3.886  0.7907  1.0605 -1.0715
  283MOL    H6123185   2.463   6.602   3.890  0.2398  1.1608  1.6014
  283MOL    C6223186   2.278   6.410   3.871 -0.1619  0.0103 -0.2738
  283MOL    O6323187   2.244   6.505   3.780  0.0933 -0.2477 -0.0477
  283MOL    H6423188   2.195   6.354   3.914 -0.9726  0.3510 -1.3642
  283MOL    H6523189   2.336   6.331   3.822  1.2707 -0.2078  1.7521
  283MOL    C6623190   2.140   6.598   3.824 -0.0784  0.8497  0.4483
  283MOL    O6723191   2.014   6.540   3.820  0.1503  0.7239  0.3751
  283MOL    H6823192   2.137   6.682   3.756  0.6336 -0.2172 -0.9244
  283MOL    H6923193   2.170   6.637   3.921  1.2682  0.9186  0.0104
  283MOL    C7023194   1.965   6.527   3.694 -0.0930  0.3116  0.3936
  283MOL    O7123195   1.852   6.448   3.688  0.4181  0.5673 -0.1220
  283MOL    H7223196   2.043   6.501   3.622  0.3575  1.1511  0.5704
  283MOL    H7323197   1.945   6.627   3.657 -0.6717 -0.2719 -0.9252
  283MOL    C7423198   1.748   6.497   3.754 -0.5990  0.2873 -0.0083
  283MOL    O7523199   1.708   6.617   3.698 -0.4847 -0.0168  0.2386
  283MOL    H7623200   1.776   6.509   3.858  1.0897 -1.2844 -0.2646
  283MOL    H7723201   1.676   6.415   3.759  2.0214 -1.9477  2.3013
  283MOL    C7823202   1.645   6.598   3.580 -1.0578  0.1318  0.0420
  283MOL    O7923203   1.595   6.721   3.531 -0.4139 -0.3212  0.1195
  283MOL    H8023204   1.563   6.526   3.588 -0.2086 -1.1421 -2.1793
  283MOL    H8123205   1.712   6.551   3.508 -0.3036 -0.1166  0.8974
  283MOL    H8223206   1.650   6.792   3.559  0.9704 -0.0512 -3.0091
  284MOL     C123207   7.459   1.502   6.828 -0.0607 -0.3315 -0.3952
  284MOL     O223208   7.442   1.372   6.773  0.1695  0.0603  0.0944
  284MOL     H323209   7.394   1.516   6.915 -0.8747 -3.0777 -0.4902
  284MOL     H423210   7.557   1.518   6.873 -0.4176  2.7644 -0.6067
  284MOL     H523211   7.435   1.587   6.764 -0.8813 -2.3778 -2.8905
  284MOL     C623212   7.483   1.366   6.644 -0.0554 -0.1543  0.4823
  284MOL     O723213   7.397   1.445   6.566 -0.1011  0.1019 -0.0461
  284MOL     H823214   7.487   1.265   6.604  3.3293  0.6943 -1.5347
  284MOL     H923215   7.583   1.408   6.634  0.2498 -1.2505 -1.4402
  284MOL    C1023216   7.268   1.373   6.556  0.3832 -0.4641  0.3757
  284MOL    O1123217   7.169   1.451   6.501 -0.0607 -0.0906 -0.0354
  284MOL    H1223218   7.229   1.342   6.653  0.7480 -0.2799  0.5809
  284MOL    H1323219   7.282   1.282   6.497 -1.6611 -1.8231  1.9186
  284MOL    C1423220   7.190   1.477   6.363 -0.2068  0.3017  1.1958
  284MOL    O1523221   7.105   1.575   6.306  0.2727  0.2335  0.3648
  284MOL    H1623222   7.185   1.384   6.306  3.3196  0.2133  0.9607
  284MOL    H1723223   7.293   1.509   6.347 -0.5837  1.2580  0.6378
  284MOL    C1823224   6.979   1.519   6.287  0.0029  0.4396 -0.1187
  284MOL    O1923225   6.963   1.426   6.182  0.0968 -0.0510 -0.1173
  284MOL    H2023226   6.899   1.593   6.280 -1.4442 -1.2225 -1.7620
  284MOL    H2123227   6.941   1.469   6.376  0.2241  0.3606 -0.0695
  284MOL    C2223228   6.977   1.490   6.063 -0.4359  0.1646 -0.3142
  284MOL    O2323229   6.988   1.398   5.958  0.2029 -0.0792  0.1700
  284MOL    H2423230   7.062   1.558   6.056 -0.2632  0.4799  3.4721
  284MOL    H2523231   6.887   1.548   6.046  0.7302  2.5057  1.1260
  284MOL    C2623232   7.121   1.338   5.943 -0.3856 -0.6421  0.1000
  284MOL    O2723233   7.204   1.423   5.873 -0.3315 -0.0714 -0.9192
  284MOL    H2823234   7.123   1.238   5.900 -1.1280 -0.0766 -1.2934
  284MOL    H2923235   7.176   1.343   6.037 -0.2563 -2.3582  0.1340
  284MOL    C3023236   7.172   1.427   5.741  0.1032 -0.5060  0.0879
  284MOL    O3123237   7.234   1.324   5.672 -0.2752 -0.4269  0.4165
  284MOL    H3223238   7.197   1.528   5.708 -2.3544  0.6320  1.5501
  284MOL    H3323239   7.064   1.421   5.729  0.1597 -1.9731  0.1983
  284MOL    C3423240   7.368   1.346   5.649 -0.1069 -0.3999 -0.7872
  284MOL    O3523241   7.408   1.258   5.554 -0.1989  0.2528  0.2325
  284MOL    H3623242   7.420   1.340   5.744 -3.7973  2.3415  1.5782
  284MOL    H3723243   7.380   1.447   5.611  0.0064  0.2286  0.8664
  284MOL    C3823244   7.426   1.126   5.607 -0.5124 -0.3596  0.2439
  284MOL    O3923245   7.519   1.132   5.716  0.1618  0.2723 -0.7750
  284MOL    H4023246   7.464   1.071   5.520  2.6394  0.0105  1.3364
  284MOL    H4123247   7.329   1.087   5.638 -0.0831  0.0200  2.1180
  284MOL    C4223248   7.653   1.122   5.674  0.5403 -0.6057 -0.4308
  284MOL    O4323249   7.684   1.000   5.624  0.0501 -0.6334 -0.1454
  284MOL    H4423250   7.717   1.144   5.760 -0.4577 -0.5015  0.2841
  284MOL    H4523251   7.687   1.199   5.604 -0.6322 -0.0695 -0.4238
  284MOL    C4623252   7.693   0.900   5.729 -0.4323  0.3161  0.0203
  284MOL    O4723253   0.028   0.922   5.802 -0.0999  0.1568 -0.3364
  284MOL    H4823254   7.696   0.800   5.684  0.7351  0.2353  0.2770
  284MOL    H4923255   7.612   0.904   5.801  1.1998  1.5924  1.8073
  284MOL    C5023256   0.140   0.898   5.723  0.6521  0.5084 -0.0890
  284MOL    O5123257   0.167   0.760   5.723  0.0497 -0.1070 -0.0336
  284MOL    H5223258   0.230   0.949   5.757  0.2185  1.8500 -0.9073
  284MOL    H5323259   0.127   0.941   5.624 -2.2489  1.6697  0.7234
  284MOL    C5423260   0.222   0.709   5.834  0.7018 -0.2431  0.6385
  284MOL    O5523261   0.350   0.760   5.867  0.1462 -0.0093 -0.2130
  284MOL    H5623262   0.240   0.604   5.811  0.4291  0.3847 -2.7110
  284MOL    H5723263   0.143   0.713   5.909  0.2314  1.0133  0.0960
  284MOL    C5823264   0.455   0.729   5.783  0.4092 -0.4783  0.2501
  284MOL    O5923265   0.501   0.599   5.801  0.4005  0.2401 -0.7184
  284MOL    H6023266   0.536   0.795   5.813 -0.3827 -0.1218  1.6408
  284MOL    H6123267   0.423   0.745   5.681  0.8922 -2.1204 -0.1789
  284MOL    C6223268   0.613   0.576   5.723  0.1317  0.5025  0.3019
  284MOL    O6323269   0.591   0.592   5.585  0.0441 -0.1737  0.2667
  284MOL    H6423270   0.630   0.472   5.749  0.0605  0.6239  0.8344
  284MOL    H6523271   0.696   0.636   5.759 -0.4404  0.3583  1.9108
  284MOL    C6623272   0.525   0.480   5.530 -0.0599  0.4557 -0.5528
  284MOL    O6723273   0.605   0.371   5.508 -0.4297 -0.3160 -0.3981
  284MOL    H6823274   0.493   0.524   5.436  2.2663 -0.2624 -1.7055
  284MOL    H6923275   0.439   0.450   5.589  1.1989 -1.4690  0.3483
  284MOL    C7023276   0.707   0.386   5.413 -0.3806  0.0560  0.0140
  284MOL    O7123277   0.665   0.439   5.290  0.5441 -0.0146 -0.3080
  284MOL    H7223278   0.761   0.294   5.394  1.4554  1.3217 -1.1422
  284MOL    H7323279   0.782   0.451   5.457 -1.7346  0.2727  2.0585
  284MOL    C7423280   0.598   0.342   5.217  0.1457 -0.1800  0.6697
  284MOL    O7523281   0.683   0.247   5.170  0.1444 -0.3128  0.0998
  284MOL    H7623282   0.552   0.393   5.132 -1.2699 -1.5614  0.5942
  284MOL    H7723283   0.522   0.289   5.274  1.5011 -1.4815  1.2789
  284MOL    C7823284   0.788   0.295   5.089  0.6745  0.0622  0.2641
  284MOL    O7923285   0.863   0.188   5.030 -0.5439 -0.9334 -0.1823
  284MOL    H8023286   0.857   0.366   5.135  1.0432 -0.9135  1.2472
  284MOL    H8123287   0.748   0.356   5.008  1.7902  0.6632  0.1514
  284MOL    H8223288   0.824   0.182   4.944 -0.2825 -0.0251 -0.3711
  285MOL     C123289   2.154   0.006   6.589  0.0499 -0.1608 -0.6011
  285MOL     O223290   2.095   7.744   6.468  0.0319 -0.1253  0.2376
  285MOL     H323291   2.213   7.709   6.632 -0.3962 -1.0450 -1.6238
  285MOL     H423292   2.226   0.086   6.570  0.6015 -1.1140 -2.7337
  285MOL     H523293   2.068   0.026   6.653 -0.9590 -0.0587 -1.9553
  285MOL     C623294   2.014   0.056   6.412 -0.7458  0.0187 -0.1173
  285MOL     O723295   1.895   0.055   6.469  0.3493  0.4461 -0.1544
  285MOL     H823296   2.008   0.034   6.306  2.7727  1.5653 -0.7127
  285MOL     H923297   2.070   0.149   6.422  0.4446 -0.8320  1.3321
  285MOL    C1023298   1.809   0.165   6.440  0.0553 -0.0910 -0.2034
  285MOL    O1123299   1.766   0.175   6.309  0.2391 -0.5275  0.5100
  285MOL    H1223300   1.865   0.249   6.482 -0.3372 -0.0238  0.1833
  285MOL    H1323301   1.720   0.155   6.502  1.3584  0.5282  1.8400
  285MOL    C1423302   1.681   0.069   6.272  0.0430  0.4618  0.9990
  285MOL    O1523303   1.761   7.743   6.237  0.0799 -0.5405 -0.0101
  285MOL    H1623304   1.619   0.097   6.187  0.9770 -1.7550 -0.4664
  285MOL    H1723305   1.605   0.050   6.347 -0.1082 -0.1635  0.6903
  285MOL    C1823306   1.706   7.639   6.162  0.2147 -0.1016 -0.5032
  285MOL    O1923307   1.564   7.621   6.182  0.0726 -1.1760 -0.0438
  285MOL    H2023308   1.763   7.549   6.186  2.7462  1.4580 -0.5399
  285MOL    H2123309   1.728   7.671   6.060 -1.7792 -1.0846 -1.2704
  285MOL    C2223310   1.508   7.525   6.106 -0.1605  0.0862  0.1005
  285MOL    O2323311   1.508   7.562   5.971 -0.9508 -0.5754 -0.1705
  285MOL    H2423312   1.403   7.510   6.130 -0.8026  0.2049 -2.5705
  285MOL    H2523313   1.556   7.429   6.125 -0.3443  0.4471  2.5514
  285MOL    C2623314   1.438   7.678   5.946  0.2487 -0.4728 -0.5707
  285MOL    O2723315   1.319   7.656   5.886  0.5674  0.3390 -0.1558
  285MOL    H2823316   1.497   7.725   5.868  3.0391 -0.2230  1.5940
  285MOL    H2923317   1.428   7.744   6.032  0.7438 -0.2861 -0.6565
  285MOL    C3023318   1.251   7.773   5.849 -0.2133  0.4851 -0.2863
  285MOL    O3123319   1.319   0.051   5.740 -0.2472  0.0158  0.0391
  285MOL    H3223320   1.249   0.051   5.939 -0.1348 -2.1146  1.5548
  285MOL    H3323321   1.148   7.744   5.831 -0.4307 -0.2713  1.9975
  285MOL    C3423322   1.324   7.758   5.629  0.2424 -0.1426  0.2676
  285MOL    O3523323   1.202   7.715   5.576 -0.7288 -0.0329 -0.2040
  285MOL    H3623324   1.394   7.674   5.637 -1.0590 -1.6162 -3.0428
  285MOL    H3723325   1.369   0.033   5.549 -1.0862  0.6924  0.1202
  285MOL    C3823326   1.125   0.032   5.520 -0.0887 -0.1281 -0.0496
  285MOL    O3923327   1.170   0.097   5.409  0.6030 -0.0968  0.5555
  285MOL    H4023328   1.120   0.097   5.608  0.1129 -0.0021 -0.1305
  285MOL    H4123329   1.034   7.760   5.496  0.3115  0.4677 -3.2303
  285MOL    C4223330   1.078   0.187   5.355 -0.5434  0.6341 -0.3472
  285MOL    O4323331   1.043   0.294   5.441 -0.7531 -0.7106  0.1263
  285MOL    H4423332   0.980   0.139   5.345 -0.4028 -0.1243  1.7842
  285MOL    H4523333   1.117   0.222   5.259  0.0219  0.3304 -0.2253
  285MOL    C4623334   1.154   0.380   5.466  0.2603  0.1680  0.4854
  285MOL    O4723335   1.206   0.445   5.360  0.2127  0.3939 -0.0335
  285MOL    H4823336   1.230   0.311   5.502 -0.3889 -0.2804  1.0111
  285MOL    H4923337   1.123   0.446   5.547 -0.4372 -0.2208  0.5467
  285MOL    C5023338   1.120   0.535   5.299 -0.3513  0.4955  0.4130
  285MOL    O5123339   1.172   0.617   5.194 -0.2740  0.4961 -0.4275
  285MOL    H5223340   1.096   0.616   5.368  2.2032  1.2517  0.4864
  285MOL    H5323341   1.024   0.499   5.264  0.6926  0.5160 -2.5775
  285MOL    C5423342   1.187   0.546   5.069 -0.5104 -0.6323 -1.0556
  285MOL    O5523343   1.069   0.483   5.031 -0.0080  0.1869 -0.1291
  285MOL    H5623344   1.266   0.473   5.080  1.2474  1.3325 -0.2257
  285MOL    H5723345   1.234   0.602   4.987 -0.7789  1.2659  0.0480
  285MOL    C5823346   0.984   0.584   4.968  0.5640 -0.0587  0.0201
  285MOL    O5923347   1.011   0.592   4.828  0.3094 -0.6043 -0.6346
  285MOL    H6023348   0.993   0.687   5.002 -0.1502 -0.0854  0.3044
  285MOL    H6123349   0.881   0.550   4.981  0.8550 -0.6111  0.9546
  285MOL    C6223350   0.977   0.474   4.758 -0.1233  0.6618  0.3574
  285MOL    O6323351   0.841   0.460   4.738  0.3773 -0.3569  0.4092
  285MOL    H6423352   1.011   0.384   4.808  2.0910  1.3039  0.0462
  285MOL    H6523353   1.038   0.490   4.669 -0.3468 -2.2188 -0.3420
  285MOL    C6623354   0.780   0.563   4.672  0.0117 -0.0024 -0.9316
  285MOL    O6723355   0.685   0.512   4.596  0.5705  0.2075 -0.3402
  285MOL    H6823356   0.858   0.609   4.611  1.0747 -1.0913 -0.3922
  285MOL    H6923357   0.737   0.633   4.744  0.0790 -0.2380 -0.6648
  285MOL    C7023358   0.636   0.602   4.511  0.2181  0.1688  0.6406
  285MOL    O7123359   0.721   0.627   4.407 -0.4016 -0.2104  0.2531
  285MOL    H7223360   0.598   0.694   4.555  0.7419  0.4117  0.5868
  285MOL    H7323361   0.547   0.559   4.465 -0.8209  2.3209  0.5752
  285MOL    C7423362   0.680   0.717   4.305  0.3353  0.7523 -0.0278
  285MOL    O7523363   0.592   0.659   4.219 -0.0967 -0.4593  0.1168
  285MOL    H7623364   0.759   0.767   4.250  3.1001 -1.2895  2.0026
  285MOL    H7723365   0.623   0.796   4.354 -0.3528 -1.3755  2.7217
  285MOL    C7823366   0.644   0.555   4.150 -0.2627 -0.1739  0.6363
  285MOL    O7923367   0.555   0.499   4.071 -0.1477 -0.5957 -0.2656
  285MOL    H8023368   0.695   0.485   4.216  2.3015  2.0883  1.1115
  285MOL    H8123369   0.720   0.599   4.085 -2.7569 -0.2013 -2.4289
  285MOL    H8223370   0.475   0.484   4.120 -0.4106 -0.4773 -0.6557
  286MOL     C123371   1.857   5.177   6.387 -0.1418  0.3119 -0.0245
  286MOL     O223372   1.800   5.271   6.298  0.7198  0.0774 -0.6922
  286MOL     H323373   1.789   5.092   6.394  0.0541  0.2382  1.0549
  286MOL     H423374   1.951   5.134   6.353 -0.1247  0.9930 -0.8529
  286MOL     H523375   1.874   5.216   6.488  0.6962  0.1803 -0.1077
  286MOL     C623376   1.894   5.377   6.276 -0.0256 -0.1866  0.0314
  286MOL     O723377   1.892   5.469   6.387 -0.3047  0.0249 -0.4135
  286MOL     H823378   1.848   5.428   6.191 -0.5921 -0.7232  0.0198
  286MOL     H923379   1.994   5.340   6.253 -0.5852 -0.5125 -1.9882
  286MOL    C1023380   1.781   5.550   6.380 -0.3768  0.4638 -0.2423
  286MOL    O1123381   1.785   5.628   6.269 -0.7055  0.2165 -0.0823
  286MOL    H1223382   1.793   5.616   6.466  2.7955 -0.6517  0.2508
  286MOL    H1323383   1.694   5.485   6.378  1.8676 -2.6813 -0.4522
  286MOL    C1423384   1.692   5.735   6.266 -0.0204 -0.0463 -0.3193
  286MOL    O1523385   1.700   5.811   6.374  0.1406 -0.4397 -0.3984
  286MOL    H1623386   1.589   5.699   6.268  0.1616 -0.6424 -1.3582
  286MOL    H1723387   1.712   5.795   6.177  4.1922  0.5407  0.9369
  286MOL    C1823388   1.807   5.905   6.360  0.1142  0.3026  0.3406
  286MOL    O1923389   1.768   6.036   6.345  0.1110 -0.2333 -0.0689
  286MOL    H2023390   1.890   5.873   6.297  0.3008 -0.6828  1.0724
  286MOL    H2123391   1.858   5.895   6.456  0.1269  0.2247  0.3262
  286MOL    C2223392   1.711   6.065   6.226  0.4199  0.0365 -0.1734
  286MOL    O2323393   1.798   6.060   6.122  0.1199  0.5321  0.2236
  286MOL    H2423394   1.691   6.172   6.227  1.1800  0.1840 -0.5804
  286MOL    H2523395   1.618   6.011   6.204 -0.3778  0.7522  1.3845
  286MOL    C2623396   1.732   6.105   6.005 -0.3608  0.7041 -0.2202
  286MOL    O2723397   1.679   5.996   5.927  0.0803 -0.3218  0.2182
  286MOL    H2823398   1.817   6.147   5.951  0.0891 -0.1172 -0.1703
  286MOL    H2923399   1.663   6.187   6.020 -0.7310  0.1341  1.2645
  286MOL    C3023400   1.771   5.908   5.869  0.5448 -0.3953 -0.5411
  286MOL    O3123401   1.809   5.941   5.737 -0.0498 -0.2520 -0.2172
  286MOL    H3223402   1.735   5.805   5.869  0.8306 -0.4973 -0.6482
  286MOL    H3323403   1.853   5.900   5.941 -1.5625 -1.5625  1.8372
  286MOL    C3423404   1.714   5.904   5.645 -0.3898 -0.1313  0.4190
  286MOL    O3523405   1.730   5.770   5.601 -0.1522  0.1364 -0.3042
  286MOL    H3623406   1.740   5.959   5.555 -3.2710  1.9700  0.7959
  286MOL    H3723407   1.608   5.926   5.662 -0.5757  0.0574 -0.9207
  286MOL    C3823408   1.849   5.746   5.548 -0.0573  1.1777  0.2857
  286MOL    O3923409   1.876   5.818   5.428 -0.1183  0.1367 -0.1483
  286MOL    H4023410   1.842   5.639   5.525  0.6050  1.4755 -1.3883
  286MOL    H4123411   1.936   5.767   5.610  0.1026  3.4741 -0.6888
  286MOL    C4223412   1.796   5.774   5.322 -0.3200  0.3252  0.1910
  286MOL    O4323413   1.837   5.641   5.285  0.3982  0.1528  0.0253
  286MOL    H4423414   1.807   5.842   5.237  1.4264 -0.9109 -0.5783
  286MOL    H4523415   1.695   5.771   5.363  0.9461 -0.9365  3.3930
  286MOL    C4623416   1.795   5.598   5.164 -0.0820  0.0213  0.1902
  286MOL    O4723417   1.867   5.662   5.063  0.1293 -0.0132 -0.5743
  286MOL    H4823418   1.687   5.603   5.150 -0.2295 -0.0398  1.2611
  286MOL    H4923419   1.828   5.496   5.184 -0.3545 -0.1223 -0.0899
  286MOL    C5023420   1.998   5.621   5.052 -0.1926  0.0815 -0.1313
  286MOL    O5123421   2.082   5.727   5.017 -0.1742  0.3496 -0.1512
  286MOL    H5223422   1.995   5.555   4.965  1.8564  0.2143 -0.3425
  286MOL    H5323423   2.041   5.549   5.121  0.2960 -0.7461 -1.2784
  286MOL    C5423424   2.115   5.813   5.126  0.1865  0.0940 -0.2480
  286MOL    O5523425   2.186   5.749   5.225  0.9319 -0.1243  0.1477
  286MOL    H5623426   2.025   5.868   5.151 -0.3291 -0.1914 -1.4125
  286MOL    H5723427   2.184   5.886   5.085 -0.4888  1.2463  0.6497
  286MOL    C5823428   2.215   5.833   5.333  0.0404  0.0517 -0.6935
  286MOL    O5923429   2.333   5.903   5.326  0.0062  0.1740 -0.2441
  286MOL    H6023430   2.208   5.777   5.427 -1.2482  2.8088  0.9438
  286MOL    H6123431   2.138   5.909   5.349 -0.8172 -0.7731 -0.8533
  286MOL    C6223432   2.441   5.823   5.353 -0.0480  0.2533 -0.4009
  286MOL    O6323433   2.446   5.774   5.485  0.1735  0.8680 -0.5864
  286MOL    H6423434   2.532   5.878   5.332  1.2295 -2.1226 -1.2481
  286MOL    H6523435   2.457   5.742   5.281 -0.5931 -0.8216  0.6632
  286MOL    C6623436   2.475   5.880   5.579  0.3375 -0.5996 -0.0423
  286MOL    O6723437   2.601   5.930   5.561  0.0019  0.4377  0.4857
  286MOL    H6823438   2.462   5.835   5.678 -2.0105 -0.2632 -0.1833
  286MOL    H6923439   2.403   5.960   5.567 -2.5178 -2.8205  1.6529
  286MOL    C7023440   2.651   6.000   5.669  0.0663  0.6057  0.6359
  286MOL    O7123441   2.788   6.007   5.654 -0.8456  0.7029  0.2456
  286MOL    H7223442   2.622   5.952   5.763 -0.6377  0.7974  0.5232
  286MOL    H7323443   2.596   6.094   5.665  1.0373  1.1199 -1.8265
  286MOL    C7423444   2.836   6.097   5.554  0.1444  0.0307 -0.7656
  286MOL    O7523445   2.822   6.227   5.595 -0.8006  0.2378 -0.3261
  286MOL    H7623446   2.776   6.094   5.462 -1.1046  1.2748 -0.0125
  286MOL    H7723447   2.939   6.066   5.537  0.1959 -0.3983  0.2813
  286MOL    C7823448   2.914   6.246   5.695  0.3763  0.0381 -0.1681
  286MOL    O7923449   2.932   6.386   5.712 -0.1253 -0.0067 -0.8045
  286MOL    H8023450   3.014   6.208   5.676  0.3159 -0.1096 -0.1875
  286MOL    H8123451   2.876   6.196   5.784  0.3661 -0.3687 -0.3997
  286MOL    H8223452   2.992   6.409   5.643  1.3278 -0.7441  0.2020
  287MOL     C123453   1.934   2.756   1.074 -0.4943  0.7561  0.4310
  287MOL     O223454   1.890   2.763   0.936  0.0397  0.9304 -0.3760
  287MOL     H323455   1.856   2.757   1.150 -0.5589  0.4836  0.3657
  287MOL     H423456   1.982   2.659   1.090 -1.9209  0.0912  0.7088
  287MOL     H523457   2.003   2.839   1.093 -1.3018  2.2210 -2.6522
  287MOL     C623458   1.795   2.664   0.901 -0.5691 -0.1629 -0.2898
  287MOL     O723459   1.672   2.702   0.942 -0.6914  0.2813  0.4170
  287MOL     H823460   1.820   2.566   0.941 -0.8447  0.1908  0.7473
  287MOL     H923461   1.806   2.656   0.793  1.7155 -1.0669 -0.0270
  287MOL    C1023462   1.629   2.812   0.862 -0.0187  0.2010  0.3364
  287MOL    O1123463   1.604   2.781   0.728 -0.1671  0.3866 -0.1793
  287MOL    H1223464   1.696   2.896   0.878 -0.4452  0.2228  2.1592
  287MOL    H1323465   1.539   2.847   0.911 -0.5560  0.8131 -1.0690
  287MOL    C1423466   1.495   2.698   0.719  0.3951  0.1972 -0.3473
  287MOL    O1523467   1.459   2.669   0.586  0.2606 -0.8920 -0.2641
  287MOL    H1623468   1.407   2.747   0.760  0.7080 -0.4800  1.1660
  287MOL    H1723469   1.504   2.605   0.775  2.1882 -0.6851 -2.0374
  287MOL    C1823470   1.551   2.582   0.530  0.1056  0.0198 -0.6694
  287MOL    O1923471   1.525   2.457   0.585  0.2904  0.6936  0.2693
  287MOL    H2023472   1.652   2.621   0.545 -0.7014  1.6332  0.7697
  287MOL    H2123473   1.530   2.568   0.424  2.0880 -3.8171 -0.6583
  287MOL    C2223474   1.600   2.345   0.554 -0.0668 -0.2831 -0.6401
  287MOL    O2323475   1.589   2.311   0.421 -0.2797  0.0630 -0.2185
  287MOL    H2423476   1.575   2.262   0.621  0.2741  0.0262 -0.1225
  287MOL    H2523477   1.708   2.352   0.570  0.2782 -0.1014 -2.9363
  287MOL    C2623478   1.462   2.263   0.390  0.8680 -0.3790 -0.0150
  287MOL    O2723479   1.441   2.244   0.254 -0.0820  0.5639  0.0414
  287MOL    H2823480   1.383   2.330   0.425 -1.6897 -3.4729  0.4633
  287MOL    H2923481   1.446   2.167   0.439 -1.7499 -0.1535 -0.3467
  287MOL    C3023482   1.518   2.136   0.203  1.1167  0.3728  0.6053
  287MOL    O3123483   1.467   2.018   0.242  0.0147  0.0946  0.0354
  287MOL    H3223484   1.623   2.141   0.233  1.8367 -0.1425 -1.7409
  287MOL    H3323485   1.533   2.139   0.095  1.9635  0.2388  0.7175
  287MOL    C3423486   1.354   1.973   0.173  0.5004  0.3720  1.0432
  287MOL    O3523487   1.382   1.868   0.083 -0.5364 -0.2851 -0.1537
  287MOL    H3623488   1.301   2.051   0.119  3.0476  0.3753 -1.6277
  287MOL    H3723489   1.285   1.939   0.250 -0.0064  3.5672  2.0383
  287MOL    C3823490   1.443   1.908   7.749  0.2141  0.1218  0.2444
  287MOL    O3923491   1.459   1.799   7.668  0.2013 -0.0054 -0.0831
  287MOL    H4023492   1.542   1.943   7.777  1.4652  0.1618 -3.8510
  287MOL    H4123493   1.377   1.980   7.701  0.0933  0.8894  1.5437
  287MOL    C4223494   1.559   1.708   7.702  0.9305 -0.3775  0.0577
  287MOL    O4323495   1.674   1.744   7.637  0.5627 -0.0500  0.1630
  287MOL    H4423496   1.518   1.613   7.667  2.2515 -0.9609  0.0746
  287MOL    H4523497   1.578   1.691   0.024  0.3947 -0.5695  0.1278
  287MOL    C4623498   1.685   1.692   7.502  0.2788  0.2434  0.6557
  287MOL    O4723499   1.740   1.563   7.513  0.1130  0.1596  0.0840
  287MOL    H4823500   1.747   1.762   7.446 -0.9817  0.8853  0.0450
  287MOL    H4923501   1.591   1.674   7.451  1.3544  0.2422 -1.3450
  287MOL    C5023502   1.874   1.563   7.544 -0.3571 -0.0025  0.2383
  287MOL    O5123503   1.918   1.445   7.603  0.3039 -0.0449  0.3306
  287MOL    H5223504   1.901   1.650   7.603  2.9004  1.9525 -3.8539
  287MOL    H5323505   1.924   1.579   7.448 -1.8167  2.3558 -0.1553
  287MOL    C5423506   2.061   1.427   7.611  0.7439  0.0482 -0.1642
  287MOL    O5523507   2.126   1.536   7.656 -0.2351 -0.0183  0.1989
  287MOL    H5623508   2.087   1.417   7.506 -1.6260 -2.5982 -0.5448
  287MOL    H5723509   2.083   1.329   7.654  0.2877  0.3649  0.8126
  287MOL    C5823510   2.080   1.567   7.782  0.1072 -0.2417  0.2094
  287MOL    O5923511   2.115   1.481   0.096 -0.5797  0.4703  0.0089
  287MOL    H6023512   1.972   1.580   7.773  0.1653  0.6612  0.7727
  287MOL    H6123513   2.109   1.669   0.024  1.2892 -0.5317  0.0257
  287MOL    C6223514   2.251   1.484   0.119  0.0608 -0.0210 -0.2991
  287MOL    O6323515   2.297   1.603   0.177  0.5595  0.3982 -0.4147
  287MOL    H6423516   2.306   1.462   0.028  0.5952  1.1089 -0.2503
  287MOL    H6523517   2.268   1.408   0.196  0.4741  1.0166  0.6548
  287MOL    C6623518   2.428   1.595   0.227 -0.8786  0.6388 -0.4231
  287MOL    O6723519   2.448   1.493   0.322 -0.5285  0.0021  0.1610
  287MOL    H6823520   2.459   1.691   0.269 -0.2238  0.5321 -0.6667
  287MOL    H6923521   2.496   1.564   0.148 -2.1423 -2.9382 -0.2016
  287MOL    C7023522   2.409   1.526   0.450 -0.9366 -0.3912  0.7658
  287MOL    O7123523   2.491   1.635   0.497 -0.0945 -0.3679 -0.2135
  287MOL    H7223524   2.422   1.432   0.503  0.3050 -0.6673 -0.0099
  287MOL    H7323525   2.303   1.549   0.442 -0.6161  2.1034  3.1493
  287MOL    C7423526   2.624   1.594   0.529 -0.0983  0.0406 -0.3446
  287MOL    O7523527   2.626   1.507   0.639 -0.4294 -0.4248 -0.1520
  287MOL    H7623528   2.694   1.678   0.538 -1.2426  1.0459 -0.6663
  287MOL    H7723529   2.666   1.528   0.454  2.1758 -0.4248  1.2701
  287MOL    C7823530   2.597   1.567   0.762  0.0741 -0.4599  0.3412
  287MOL    O7923531   2.598   1.468   0.864 -0.4447  1.0657  0.2895
  287MOL    H8023532   2.507   1.629   0.763  1.2386  1.2625 -0.2226
  287MOL    H8123533   2.673   1.643   0.778 -0.9762  0.7493 -0.3030
  287MOL    H8223534   2.528   1.408   0.841  0.6579 -0.3005  0.4722
  288MOL     C123535   0.032   3.313   6.686 -0.2285 -0.0877 -0.3187
  288MOL     O223536   0.070   3.240   6.569 -0.2740 -0.1698 -0.0103
  288MOL     H323537   7.730   3.263   6.732  0.9136 -0.5211  1.3789
  288MOL     H423538   0.106   3.305   6.765 -0.3433  1.2252 -0.0579
  288MOL     H523539   0.020   3.422   6.679  1.2663  0.3853  3.4190
  288MOL     C623540   7.769   3.276   6.460  0.5087 -0.6058 -0.0003
  288MOL     O723541   7.648   3.210   6.473  0.3050 -0.7163  0.4676
  288MOL     H823542   0.034   3.253   6.365  1.4729  3.4847 -0.6278
  288MOL     H923543   7.759   3.384   6.443  1.3744 -0.5693 -0.2875
  288MOL    C1023544   7.648   3.081   6.409 -1.0621 -0.7326  0.2407
  288MOL    O1123545   7.659   3.093   6.272 -0.1153  0.5146 -0.2341
  288MOL    H1223546   7.555   3.034   6.441 -2.2890  1.5331  0.1403
  288MOL    H1323547   7.733   3.024   6.447 -1.9119 -2.2445 -0.1126
  288MOL    C1423548   7.539   3.147   6.217 -0.8031 -0.2185 -0.2964
  288MOL    O1523549   7.549   3.152   6.081 -0.5768  0.5152 -0.3344
  288MOL    H1623550   7.538   3.252   6.249  0.4011  0.2305 -1.6945
  288MOL    H1723551   7.450   3.098   6.257 -0.4762 -0.7395 -0.2011
  288MOL    C1823552   7.527   3.025   6.019  0.8879 -0.6679 -0.2834
  288MOL    O1923553   7.403   2.971   6.058  0.2633 -0.1439 -0.5287
  288MOL    H2023554   7.606   2.953   6.040  0.6682 -0.7665  0.2205
  288MOL    H2123555   7.526   3.043   5.912  1.2434  1.5222  0.0593
  288MOL    C2223556   7.294   3.035   6.017 -0.0202  0.2907  0.1940
  288MOL    O2323557   7.180   2.953   6.037  0.6523 -0.0515 -0.8300
  288MOL    H2423558   7.297   3.055   5.910 -1.4971 -0.1255  0.0638
  288MOL    H2523559   7.279   3.131   6.068  0.7412  0.4787  0.0712
  288MOL    C2623560   7.133   2.957   6.166 -0.3308 -0.0408  0.0906
  288MOL    O2723561   7.003   2.901   6.170 -0.4985  0.5806  0.6263
  288MOL    H2823562   7.130   3.057   6.208  0.8584  0.5337 -1.1768
  288MOL    H2923563   7.196   2.898   6.232 -2.6704 -1.4515  1.1517
  288MOL    C3023564   6.905   2.972   6.105  0.2210 -0.1114  0.5577
  288MOL    O3123565   6.831   3.042   6.197 -0.3061  0.1847 -0.5941
  288MOL    H3223566   6.835   2.899   6.064 -2.8541  2.5339  0.9403
  288MOL    H3323567   6.953   3.021   6.021  0.1412  1.2322  1.2901
  288MOL    C3423568   6.750   3.139   6.133 -0.2732  0.3620 -0.2717
  288MOL    O3523569   6.823   3.239   6.081 -0.3673 -0.2363 -0.7406
  288MOL    H3623570   6.681   3.182   6.206  0.5607  0.9384  0.1812
  288MOL    H3723571   6.700   3.097   6.046  0.7426 -1.7790  0.1234
  288MOL    C3823572   6.901   3.306   6.174  0.0168  0.0722  0.2536
  288MOL    O3923573   6.976   3.411   6.114 -0.2055  0.0422 -0.1131
  288MOL    H4023574   6.967   3.237   6.226 -0.1725 -0.2603  0.0547
  288MOL    H4123575   6.825   3.338   6.245 -1.1484 -1.3510 -0.3128
  288MOL    C4223576   7.090   3.361   6.051  0.1996  0.1113 -0.7833
  288MOL    O4323577   7.185   3.338   6.153 -0.0410  0.1226  0.4121
  288MOL    H4423578   7.114   3.445   5.987 -1.7364  1.5929  0.3596
  288MOL    H4523579   7.067   3.270   5.995  1.0963  0.0700 -1.0905
  288MOL    C4623580   7.219   3.452   6.228 -0.2992  0.5523 -1.0361
  288MOL    O4723581   7.245   3.566   6.147  0.1100  0.1592 -0.2021
  288MOL    H4823582   7.307   3.413   6.280 -1.3910 -0.0953  0.3356
  288MOL    H4923583   7.144   3.479   6.302  0.2820 -0.6695  0.0086
  288MOL    C5023584   7.379   3.593   6.111 -0.3893  0.0773 -0.3268
  288MOL    O5123585   7.392   3.651   5.992 -0.2346 -0.1964  0.6717
  288MOL    H5223586   7.436   3.501   6.097  1.2374  1.4149 -2.8750
  288MOL    H5323587   7.424   3.646   6.195  0.3951  1.1355 -1.3972
  288MOL    C5423588   7.375   3.794   5.991 -0.5423  0.3263 -0.1504
  288MOL    O5523589   7.489   3.862   6.040  0.0287  0.1427  0.0913
  288MOL    H5623590   7.285   3.797   6.053 -1.6608  1.0592 -1.7922
  288MOL    H5723591   7.338   3.835   5.898  1.1896 -0.2699 -1.1255
  288MOL    C5823592   7.588   3.873   5.947 -0.1282  0.6660  0.6918
  288MOL    O5923593   7.545   3.956   5.839 -0.0850 -0.0345 -0.5984
  288MOL    H6023594   7.606   3.771   5.911  0.1273  2.3608 -4.4952
  288MOL    H6123595   7.679   3.909   5.995  0.1237 -0.9991  1.5285
  288MOL    C6223596   7.543   4.089   5.876 -0.3251 -0.3004  0.0698
  288MOL    O6323597   7.660   4.156   5.836 -0.8006 -0.1489  0.0949
  288MOL    H6423598   7.533   4.098   5.984  1.8008  0.6997  0.1928
  288MOL    H6523599   7.453   4.126   5.827 -0.7945 -1.5528 -0.0345
  288MOL    C6623600   7.641   4.292   5.837  0.0029  0.4613 -0.0330
  288MOL    O6723601   7.639   4.344   5.964  0.0507 -0.3273 -0.6442
  288MOL    H6823602   7.550   4.320   5.784  0.3455 -1.6393 -1.8296
  288MOL    H6923603   7.722   4.331   5.775 -1.6268  1.6655 -1.4438
  288MOL    C7023604   7.766   4.372   6.008 -0.6375  0.2406  0.3255
  288MOL    O7123605   0.013   4.508   5.976 -0.1859 -0.2461 -0.6656
  288MOL    H7223606   0.061   4.301   5.983  0.6599  2.3685 -1.8528
  288MOL    H7323607   7.755   4.360   6.116 -2.8193 -0.1947  0.0929
  288MOL    C7423608   0.126   4.521   5.888 -0.0225  0.2289  0.4579
  288MOL    O7523609   0.120   4.637   5.812  0.0368  0.0237  0.4184
  288MOL    H7623610   0.141   4.439   5.817  2.2788  3.0948 -2.5430
  288MOL    H7723611   0.217   4.532   5.947  2.4841 -3.8280 -2.3959
  288MOL    C7823612   0.153   4.748   5.891  0.2258 -0.1096 -0.6879
  288MOL    O7923613   0.166   4.857   5.808  0.7378  0.1595  0.0523
  288MOL    H8023614   0.241   4.745   5.955  1.2780  1.1106 -2.0360
  288MOL    H8123615   0.073   4.769   5.963  1.4769  0.6337  0.5135
  288MOL    H8223616   0.084   4.877   5.766  1.4058  3.1295  0.0464
  289MOL     C123617   7.755   5.186   0.957 -0.0658 -0.0601  0.3156
  289MOL     O223618   7.669   5.070   0.933 -0.4959 -0.7977 -0.4462
  289MOL     H323619   0.048   5.165   1.032 -1.8256 -0.4905  2.0279
  289MOL     H423620   0.039   5.205   0.873  1.0534  1.3834  1.5231
  289MOL     H523621   7.693   5.272   0.981  0.0843  0.1726 -0.1224
  289MOL     C623622   7.595   5.077   0.826 -0.4594 -0.0720  0.1257
  289MOL     O723623   7.508   5.178   0.826 -0.1325  0.3598 -0.4151
  289MOL     H823624   7.558   4.975   0.815  1.6274 -0.9038  0.5887
  289MOL     H923625   7.673   5.087   0.750  1.5854 -1.5293  1.9552
  289MOL    C1023626   7.434   5.203   0.717  0.0179  0.0182 -0.3804
  289MOL    O1123627   7.295   5.167   0.732 -0.3724  0.0255  0.0396
  289MOL    H1223628   7.465   5.154   0.625 -1.3972 -0.6109 -0.5400
  289MOL    H1323629   7.441   5.309   0.695  2.7166 -0.2149 -0.7351
  289MOL    C1423630   7.268   5.027   0.730 -0.2196  0.1425 -0.1222
  289MOL    O1523631   7.279   4.977   0.600  0.1271 -0.2391  0.3164
  289MOL    H1623632   7.170   5.001   0.769 -0.1145 -2.6555 -1.5826
  289MOL    H1723633   7.336   4.979   0.800 -1.0418 -0.0980  0.5145
  289MOL    C1823634   7.155   4.975   0.534  0.2903  0.3598 -0.1409
  289MOL    O1923635   7.093   4.863   0.579 -0.4238 -0.0288  0.2321
  289MOL    H2023636   7.166   4.973   0.426 -0.7972  1.1656 -0.2810
  289MOL    H2123637   7.090   5.060   0.555  1.7688  1.4108  0.1979
  289MOL    C2223638   7.149   4.747   0.526  0.0778  0.1421 -0.1581
  289MOL    O2323639   7.079   4.712   0.409  0.7871  0.0105  0.0154
  289MOL    H2423640   7.131   4.665   0.597  0.5920 -2.4300 -2.8841
  289MOL    H2523641   7.254   4.763   0.504 -0.1537 -0.4837 -1.8065
  289MOL    C2623642   7.083   4.580   0.381 -1.2895 -0.1325  0.4652
  289MOL    O2723643   7.008   4.507   0.479  0.3557 -0.1209 -0.7610
  289MOL    H2823644   7.186   4.545   0.388 -0.5703  1.0677 -3.2012
  289MOL    H2923645   7.051   4.555   0.280  2.3819  1.0697 -1.0722
  289MOL    C3023646   6.875   4.547   0.481 -0.3117  0.9132  0.4994
  289MOL    O3123647   6.796   4.464   0.553 -0.2725 -0.1601 -0.2351
  289MOL    H3223648   6.828   4.544   0.383 -1.2346  0.6930  0.9468
  289MOL    H3323649   6.870   4.646   0.526 -0.4626  1.6331 -1.0752
  289MOL    C3423650   6.840   4.459   0.686  0.0694 -0.0680 -0.5592
  289MOL    O3523651   6.765   4.365   0.756 -0.1762 -0.3414 -0.6307
  289MOL    H3623652   6.816   4.556   0.729 -2.0316 -0.1128 -1.5818
  289MOL    H3723653   6.944   4.431   0.705 -0.1337  0.4314  1.4017
  289MOL    C3823654   6.767   4.238   0.701 -0.1621 -0.1288  0.1039
  289MOL    O3923655   6.762   4.150   0.802  0.0584  0.2215  0.2299
  289MOL    H4023656   6.852   4.217   0.635  0.8294  2.8837  0.3234
  289MOL    H4123657   6.683   4.224   0.632 -1.4302  1.5282  1.2572
  289MOL    C4223658   6.876   4.139   0.877  0.0318  0.4255 -0.2588
  289MOL    O4323659   6.986   4.092   0.803  0.1985 -0.1204 -0.1466
  289MOL    H4423660   6.860   4.071   0.962 -0.9769 -2.6790 -2.8125
  289MOL    H4523661   6.891   4.240   0.914  0.7834  0.1243  0.2818
  289MOL    C4623662   7.105   4.089   0.869 -0.1309 -0.2505  0.6317
  289MOL    O4723663   7.099   4.001   0.976  0.0923 -0.0787  0.2357
  289MOL    H4823664   7.117   4.193   0.900 -2.3601 -0.4156  2.1853
  289MOL    H4923665   7.188   4.061   0.805 -1.0779  0.2591 -0.8424
  289MOL    C5023666   7.213   4.007   1.054 -0.0995  0.0733  0.1320
  289MOL    O5123667   7.250   4.135   1.081 -0.1367 -0.5453 -0.5500
  289MOL    H5223668   7.294   3.965   0.995  0.2914  0.4285  0.4130
  289MOL    H5323669   7.192   3.951   1.145  0.9779  0.0778  0.3867
  289MOL    C5423670   7.163   4.200   1.171 -0.1657  0.8826 -0.0414
  289MOL    O5523671   7.216   4.324   1.200  0.4719  0.3862 -0.5173
  289MOL    H5623672   7.152   4.146   1.265  0.9765 -0.9209 -0.9180
  289MOL    H5723673   7.058   4.196   1.142 -0.5128  2.4926  0.8867
  289MOL    C5823674   7.126   4.423   1.238  0.4540  0.6033 -0.4196
  289MOL    O5923675   7.093   4.422   1.375 -0.4842 -0.5164 -0.0627
  289MOL    H6023676   7.028   4.416   1.190  1.1847  2.5854 -2.3045
  289MOL    H6123677   7.154   4.524   1.207 -0.9540  1.0205 -0.3554
  289MOL    C6223678   7.198   4.464   1.454 -0.2221 -0.3744  0.3825
  289MOL    O6323679   7.151   4.488   1.582  0.0581 -0.4399  0.4499
  289MOL    H6423680   7.246   4.548   1.405  0.8850 -0.1429  1.8517
  289MOL    H6523681   7.270   4.383   1.445 -1.5151 -1.4365 -0.7018
  289MOL    C6623682   7.077   4.599   1.584 -0.4955 -0.4340 -1.0776
  289MOL    O6723683   7.052   4.658   1.708  0.1821 -0.1628  0.2651
  289MOL    H6823684   6.979   4.583   1.540 -1.5977  0.2125  1.0592
  289MOL    H6923685   7.116   4.680   1.522  0.6088  0.6979  1.0370
  289MOL    C7023686   7.164   4.674   1.783  0.0922 -0.1079 -0.0361
  289MOL    O7123687   7.130   4.728   1.908 -0.5945 -0.0822 -0.4851
  289MOL    H7223688   7.224   4.745   1.726  0.4886 -0.0591  0.4422
  289MOL    H7323689   7.228   4.586   1.783 -1.5657 -1.3819 -2.6921
  289MOL    C7423690   7.068   4.639   1.984 -0.8458  0.2801 -0.6477
  289MOL    O7523691   7.140   4.523   2.006  0.2061  0.2437  0.4176
  289MOL    H7623692   6.975   4.603   1.939 -0.8104  0.7400 -1.0864
  289MOL    H7723693   7.057   4.692   2.079  0.9076  1.4962 -1.1018
  289MOL    C7823694   7.255   4.533   2.087  0.4825  0.0903  0.5627
  289MOL    O7923695   7.303   4.405   2.129  0.4533  0.0840  0.0906
  289MOL    H8023696   7.244   4.589   2.180 -0.2021 -0.3986  0.7737
  289MOL    H8123697   7.332   4.584   2.029  0.5040  1.6624  1.9210
  289MOL    H8223698   7.284   4.394   2.221  3.1317 -1.0130  0.5540
  290MOL     C123699   2.973   2.538   7.613 -0.8487  0.5346 -0.0812
  290MOL     O223700   2.914   2.480   7.721  0.2920 -0.1330 -0.3881
  290MOL     H323701   3.005   2.635   7.650  0.8403  0.3346 -0.9992
  290MOL     H423702   3.062   2.478   7.596 -0.7926  0.3537  0.7882
  290MOL     H523703   2.908   2.550   7.527  0.4583  0.3032 -1.1116
  290MOL     C623704   2.856   2.362   7.695 -0.7134  0.3295 -0.1486
  290MOL     O723705   2.727   2.372   7.660 -0.0371  0.3950  0.3218
  290MOL     H823706   2.855   2.307   0.006 -0.0068 -1.1661 -0.9925
  290MOL     H923707   2.925   2.314   7.626 -0.9941 -0.1438 -0.1034
  290MOL    C1023708   2.653   2.250   7.661 -0.1803 -0.3586  0.4000
  290MOL    O1123709   2.711   2.148   7.581 -0.4770 -0.1336 -0.4164
  290MOL    H1223710   2.563   2.287   7.611 -0.7442 -0.8911  1.0037
  290MOL    H1323711   2.638   2.222   7.765 -0.8554  3.2046  1.3512
  290MOL    C1423712   2.751   2.037   7.655  0.5067  0.3850  0.5152
  290MOL    O1523713   2.838   2.064   7.763  0.5414 -0.3644  0.2967
  290MOL    H1623714   2.791   1.970   7.580  0.6855  0.4070  0.5907
  290MOL    H1723715   2.652   2.008   7.691  0.0244  0.8315 -0.4489
  290MOL    C1823716   2.816   1.987   0.092 -0.2010  0.4373 -0.3720
  290MOL    O1923717   2.819   1.851   0.073  0.4635 -0.7394 -0.3184
  290MOL    H2023718   2.721   2.016   0.136 -0.0449  0.1097  0.1901
  290MOL    H2123719   2.898   2.008   0.161  1.2441 -0.0114 -1.9223
  290MOL    C2223720   2.936   1.800   0.017  0.1996  0.6754  0.3361
  290MOL    O2323721   3.039   1.798   0.110  0.6032  0.3763  0.2284
  290MOL    H2423722   2.961   1.861   7.714 -3.1464  0.4989 -0.8020
  290MOL    H2523723   2.920   1.703   7.754  1.1490  0.7764 -0.2268
  290MOL    C2623724   2.996   1.722   0.223 -0.0268  0.0413  0.5447
  290MOL    O2723725   3.012   1.584   0.205  0.1002  0.0094  0.1894
  290MOL    H2823726   2.899   1.752   0.260 -0.1984 -1.0537  1.0278
  290MOL    H2923727   3.071   1.742   0.299 -0.1303 -1.3544  1.0358
  290MOL    C3023728   2.918   1.503   0.267 -0.1081  0.4891  1.0959
  290MOL    O3123729   2.787   1.520   0.209  0.3015 -0.1672 -0.4719
  290MOL    H3223730   2.910   1.518   0.375 -1.1761 -0.0384  1.0894
  290MOL    H3323731   2.947   1.398   0.263  0.8667  0.7370  1.3314
  290MOL    C3423732   2.778   1.443   0.100  0.0309 -0.1360  0.1147
  290MOL    O3523733   2.781   1.304   0.128 -0.2088 -0.1961 -0.0914
  290MOL    H3623734   2.854   1.461   0.024  1.3907  2.9712  2.1241
  290MOL    H3723735   2.692   1.473   0.039  1.6650  1.0592 -1.6842
  290MOL    C3823736   2.660   1.265   0.185 -0.1647  0.5834 -0.1084
  290MOL    O3923737   2.553   1.255   0.098 -0.0127 -0.5874 -0.3614
  290MOL    H4023738   2.638   1.335   0.266  2.8784  0.9342  0.4714
  290MOL    H4123739   2.670   1.174   0.245  1.1559  0.2502 -0.8171
  290MOL    C4223740   2.545   1.133   0.033 -0.0576 -0.2287 -0.3135
  290MOL    O4323741   2.438   1.048   0.081  0.1786 -0.2232 -0.5087
  290MOL    H4423742   2.634   1.071   0.046  0.5159  0.3950 -1.2487
  290MOL    H4523743   2.537   1.151   7.709 -0.8806 -0.1209 -0.2313
  290MOL    C4623744   2.316   1.095   0.030  0.1142 -0.5396 -0.5723
  290MOL    O4723745   2.314   1.075   7.677  0.1457  0.5497 -0.0052
  290MOL    H4823746   2.295   1.197   0.061 -1.6020 -0.3696 -2.1808
  290MOL    H4923747   2.240   1.036   0.081  0.4507  1.3112  2.1210
  290MOL    C5023748   2.318   0.936   7.644 -0.3017 -0.2660  0.8208
  290MOL    O5123749   2.216   0.895   7.565 -0.2690  0.1244 -1.0047
  290MOL    H5223750   2.328   0.865   7.727  1.4003 -0.5727  0.3621
  290MOL    H5323751   2.406   0.922   7.582  0.8317 -1.4342  2.6357
  290MOL    C5423752   2.089   0.893   7.623  0.0900 -0.7417  0.4308
  290MOL    O5523753   2.080   0.812   7.732 -0.2975  0.2565 -0.3765
  290MOL    H5623754   2.006   0.863   7.558 -0.4147  1.0537  0.2270
  290MOL    H5723755   2.069   0.997   7.649 -0.3591 -0.8316  0.4508
  290MOL    C5823756   2.074   0.672   7.698 -0.6887 -0.2779 -0.5944
  290MOL    O5923757   2.201   0.621   7.731  0.1593  0.0395 -0.1672
  290MOL    H6023758   2.068   0.655   7.590 -1.3031  1.1412 -0.7939
  290MOL    H6123759   1.992   0.631   7.756 -1.1379  4.5504  2.5131
  290MOL    C6223760   2.215   0.593   0.083  0.4557  0.0271  0.6104
  290MOL    O6323761   2.160   0.463   0.095 -0.5963 -0.0110  0.1045
  290MOL    H6423762   2.163   0.671   0.138  0.8321  1.1350 -0.5760
  290MOL    H6523763   2.319   0.609   0.112  0.0431  2.8084  0.6992
  290MOL    C6623764   2.241   0.368   0.030 -1.0360 -0.2059 -0.3627
  290MOL    O6723765   2.368   0.349   0.092 -0.2490 -0.0916 -0.4854
  290MOL    H6823766   2.265   0.384   7.708  2.8782 -1.5041  0.2380
  290MOL    H6923767   2.188   0.273   0.029  0.9274 -1.3631  0.7757
  290MOL    C7023768   2.363   0.309   0.221 -0.4663  0.1226 -0.8737
  290MOL    O7123769   2.295   0.193   0.245  0.3510  0.8435 -0.8236
  290MOL    H7223770   2.323   0.386   0.288  1.4719  1.0424 -0.7370
  290MOL    H7323771   2.465   0.294   0.257 -0.6028  0.6793 -0.2431
  290MOL    C7423772   2.258   0.173   0.376  0.2111  0.5943  0.0817
  290MOL    O7523773   2.176   0.273   0.418  0.0795 -0.0518  0.0936
  290MOL    H7623774   2.342   0.170   0.445 -2.8285 -0.2965  3.9405
  290MOL    H7723775   2.203   0.079   0.381  1.3592 -0.0853 -0.0400
  290MOL    C7823776   2.055   0.287   0.354 -1.0929  0.8000  0.3172
  290MOL    O7923777   1.964   0.361   0.436  0.5886 -0.0375  0.1682
  290MOL    H8023778   2.015   0.186   0.339  0.3516  0.5280 -1.9649
  290MOL    H8123779   2.067   0.336   0.258  1.5435 -1.1107 -0.3862
  290MOL    H8223780   1.876   0.365   0.402  1.3183  1.1595 -1.6449
  291MOL     C123781   4.915   5.710   3.567  0.3949 -0.1987  0.0058
  291MOL     O223782   5.026   5.757   3.647  0.7280 -0.3753 -0.1135
  291MOL     H323783   4.913   5.759   3.469 -1.4951  0.5610  0.4082
  291MOL     H423784   4.937   5.606   3.541  0.2251 -0.4723  0.9318
  291MOL     H523785   4.822   5.704   3.623  0.6985  0.3652  0.5795
  291MOL     C623786   5.150   5.727   3.593  0.6023 -0.2829 -0.1980
  291MOL     O723787   5.178   5.798   3.478  0.0694 -0.0938  0.2924
  291MOL     H823788   5.164   5.620   3.583  0.1401 -0.3106 -0.5295
  291MOL     H923789   5.228   5.770   3.657 -1.4874  1.4720  1.2734
  291MOL    C1023790   5.196   5.932   3.498 -0.1682 -0.1262 -0.5123
  291MOL    O1123791   5.201   6.005   3.376 -0.7347  0.0519 -0.0083
  291MOL    H1223792   5.295   5.952   3.540  0.0039  2.0947 -1.8707
  291MOL    H1323793   5.121   5.970   3.568  2.4331  0.2145  2.2165
  291MOL    C1423794   5.074   6.060   3.342 -0.7740  0.3602  0.0980
  291MOL    O1523795   5.051   6.171   3.416 -0.6427  0.6508 -0.0711
  291MOL    H1623796   4.998   5.983   3.351 -0.7996  0.4933  0.9805
  291MOL    H1723797   5.083   6.083   3.235 -0.4434 -0.3464 -0.0319
  291MOL    C1823798   5.138   6.270   3.384 -0.8639 -0.4205  0.0889
  291MOL    O1923799   5.092   6.357   3.282  0.3232 -0.0397 -0.0334
  291MOL    H2023800   5.230   6.227   3.342 -0.7852 -0.6260  0.4717
  291MOL    H2123801   5.152   6.326   3.476 -0.1740 -2.1222  1.0532
  291MOL    C2223802   4.969   6.421   3.316  0.3430  0.3956 -0.3356
  291MOL    O2323803   4.913   6.478   3.194  0.4057  0.2566  0.1579
  291MOL    H2423804   4.992   6.503   3.385  1.7565  0.6477 -1.0959
  291MOL    H2523805   4.901   6.349   3.361  4.2658 -1.2442  3.2531
  291MOL    C2623806   4.842   6.374   3.122 -0.0740  0.3911  0.2188
  291MOL    O2723807   4.716   6.345   3.181  0.1349  0.6483 -0.2174
  291MOL    H2823808   4.903   6.285   3.119 -0.3259  0.2480 -0.8742
  291MOL    H2923809   4.828   6.407   3.019  1.0872 -1.6080 -0.6039
  291MOL    C3023810   4.614   6.442   3.168  0.3252 -1.0683  0.3728
  291MOL    O3123811   4.501   6.412   3.241  0.2064 -0.8660  0.4252
  291MOL    H3223812   4.588   6.447   3.062  1.2407  1.3246  0.2285
  291MOL    H3323813   4.653   6.539   3.197  0.5685 -0.5100 -1.7508
  291MOL    C3423814   4.435   6.301   3.189 -0.1505 -0.4042  0.1872
  291MOL    O3523815   4.338   6.339   3.101 -0.3757 -0.5738 -0.6113
  291MOL    H3623816   4.382   6.258   3.274 -3.3633  2.0508 -0.4492
  291MOL    H3723817   4.509   6.234   3.145 -0.5796 -0.3931 -0.5467
  291MOL    C3823818   4.229   6.392   3.172  0.0347 -0.3112 -0.2341
  291MOL    O3923819   4.138   6.440   3.078 -0.0327 -0.3939 -0.6622
  291MOL    H4023820   4.260   6.478   3.230  3.3696 -1.2012 -0.6357
  291MOL    H4123821   4.176   6.321   3.237  1.3157 -0.8985  0.1913
  291MOL    C4223822   4.088   6.334   2.998  0.3523  0.3395  0.1784
  291MOL    O4323823   4.002   6.252   3.075 -0.6530 -0.0486  0.4419
  291MOL    H4423824   4.161   6.269   2.950 -0.1217  0.5434 -0.8222
  291MOL    H4523825   4.026   6.367   2.915 -1.0378 -0.7097  0.7890
  291MOL    C4623826   3.870   6.295   3.087 -0.1433 -0.0421 -0.3169
  291MOL    O4723827   3.786   6.241   2.977  0.4858  0.3192 -0.0792
  291MOL    H4823828   3.877   6.403   3.096 -0.9925 -0.1811  2.3142
  291MOL    H4923829   3.827   6.260   3.181  0.6602 -0.6580 -0.1727
  291MOL    C5023830   3.671   6.319   2.974 -0.2597 -0.7680  0.0153
  291MOL    O5123831   3.693   6.451   2.940  0.5390  0.7806  0.3046
  291MOL    H5223832   3.630   6.316   3.075 -2.4339 -2.4628 -0.8563
  291MOL    H5323833   3.589   6.284   2.911  0.1515  0.3329 -1.1425
  291MOL    C5423834   3.703   6.465   2.808 -0.2493 -0.4175  0.7498
  291MOL    O5523835   3.746   6.595   2.788 -0.1989  0.1318  0.5455
  291MOL    H5623836   3.598   6.459   2.777 -0.2236 -0.1305  0.5988
  291MOL    H5723837   3.764   6.385   2.766  0.2187  0.3340 -0.0251
  291MOL    C5823838   3.880   6.609   2.812 -0.6905 -0.8855 -0.7144
  291MOL    O5923839   3.962   6.526   2.727  0.1648  0.5175 -0.4858
  291MOL    H6023840   3.892   6.582   2.917  2.7726  2.5822 -0.0860
  291MOL    H6123841   3.905   6.715   2.811 -2.1725 -0.5166  0.0735
  291MOL    C6223842   3.961   6.571   2.599  0.0396 -0.0932 -0.3766
  291MOL    O6323843   4.027   6.698   2.578 -0.4300  0.2650 -0.8849
  291MOL    H6423844   3.861   6.575   2.554  0.1542  0.5894 -0.5847
  291MOL    H6523845   4.013   6.491   2.546 -1.1484 -0.5911 -0.8191
  291MOL    C6623846   4.160   6.678   2.535 -0.7755 -0.0655 -0.1218
  291MOL    O6723847   4.159   6.617   2.407  0.0577  0.3681 -0.6150
  291MOL    H6823848   4.213   6.634   2.619 -0.9925 -0.0059  0.0473
  291MOL    H6923849   4.201   6.779   2.531  0.0681 -0.4483 -1.6765
  291MOL    C7023850   4.230   6.690   2.308  0.8016  0.3911 -0.7935
  291MOL    O7123851   4.174   6.811   2.287  1.0107  0.4792  0.0612
  291MOL    H7223852   4.221   6.635   2.214 -0.1228 -1.7753  0.5580
  291MOL    H7323853   4.334   6.706   2.338  1.2280  1.0182 -2.5181
  291MOL    C7423854   4.038   6.819   2.247  0.3670  0.1530 -0.4106
  291MOL    O7523855   4.025   6.781   2.113  0.1624 -0.2536  0.1597
  291MOL    H7623856   4.013   6.925   2.248  1.7907  0.5912 -4.3494
  291MOL    H7723857   3.969   6.767   2.314  0.6356  0.9078  0.4660
  291MOL    C7823858   4.098   6.864   2.032  1.4299  0.7495 -0.4363
  291MOL    O7923859   4.095   6.820   1.898 -0.0799  0.1227  0.3501
  291MOL    H8023860   4.201   6.875   2.065  1.5687  0.0475 -0.6285
  291MOL    H8123861   4.053   6.962   2.048 -0.9544 -0.4394  0.3571
  291MOL    H8223862   4.142   6.739   1.888  0.3741  0.2384  1.4611
  292MOL     C123863   1.401   0.899   3.614  0.2878  0.0072  0.0719
  292MOL     O223864   1.493   0.846   3.707 -0.2980  0.9394 -0.1012
  292MOL     H323865   1.344   0.985   3.648  0.6589  0.3676 -0.2121
  292MOL     H423866   1.461   0.941   3.533  0.8142 -2.1754 -0.7150
  292MOL     H523867   1.337   0.819   3.576  1.3645  0.2179 -2.2346
  292MOL     C623868   1.433   0.807   3.826  0.3547 -0.4858 -0.2842
  292MOL     O723869   1.395   0.913   3.918  0.3814 -0.3037 -0.3867
  292MOL     H823870   1.489   0.732   3.882  0.0565 -0.1655  0.4495
  292MOL     H923871   1.341   0.753   3.804  0.3043  0.9157 -3.7214
  292MOL    C1023872   1.499   0.951   3.999 -0.2614 -0.2616  0.0810
  292MOL    O1123873   1.504   0.872   4.110 -0.2965  0.1018  0.6746
  292MOL    H1223874   1.485   1.058   4.015  2.3473  0.1887 -0.4026
  292MOL    H1323875   1.599   0.941   3.956  0.0858  0.6600  0.6619
  292MOL    C1423876   1.430   0.925   4.214 -0.7067 -0.1685  0.3461
  292MOL    O1523877   1.470   1.059   4.259  0.0020  0.2992 -0.4146
  292MOL    H1623878   1.433   0.849   4.292 -2.1917 -0.8591 -0.2459
  292MOL    H1723879   1.325   0.933   4.184 -0.2263  1.5593 -0.9226
  292MOL    C1823880   1.577   1.062   4.347 -0.3543 -0.2174  0.2613
  292MOL    O1923881   1.559   0.973   4.462 -0.1837 -0.0937 -0.6463
  292MOL    H2023882   1.599   1.166   4.370 -0.1999  0.5494 -3.0928
  292MOL    H2123883   1.664   1.020   4.295 -1.9834 -1.1690 -1.8143
  292MOL    C2223884   1.460   1.016   4.552  0.1519  0.2649 -0.1919
  292MOL    O2323885   1.506   1.117   4.636  0.1329 -0.2989  0.3861
  292MOL    H2423886   1.426   0.932   4.613  1.6717  1.6856  2.6979
  292MOL    H2523887   1.381   1.055   4.487 -1.4754  1.1061  2.2182
  292MOL    C2623888   1.600   1.067   4.731  0.3963 -0.4058 -0.4291
  292MOL    O2723889   1.711   1.146   4.715 -0.0251  0.8886 -0.3929
  292MOL    H2823890   1.626   0.963   4.712  0.8070 -0.4019  0.0874
  292MOL    H2923891   1.577   1.063   4.838 -1.9013  0.5665 -0.8617
  292MOL    C3023892   1.692   1.279   4.755 -0.2194 -0.4523 -0.0834
  292MOL    O3123893   1.813   1.350   4.756  0.2580  0.1769 -0.0446
  292MOL    H3223894   1.657   1.271   4.858 -2.0803  1.6929 -0.4981
  292MOL    H3323895   1.613   1.311   4.686  1.0092  0.5546 -1.0435
  292MOL    C3423896   1.857   1.383   4.628  0.2676  0.0224 -0.6028
  292MOL    O3523897   1.782   1.483   4.570  0.5127  0.2393  0.4677
  292MOL    H3623898   1.860   1.294   4.565  1.0341 -0.0944 -0.3998
  292MOL    H3723899   1.960   1.416   4.636  0.4737 -0.7253 -0.1596
  292MOL    C3823900   1.783   1.604   4.639  0.3698 -0.8092  1.1454
  292MOL    O3923901   1.736   1.707   4.552 -0.2973  0.0305  0.1833
  292MOL    H4023902   1.886   1.638   4.651 -0.3024  0.9459  2.0304
  292MOL    H4123903   1.742   1.591   4.739 -2.9600  0.2214 -0.0182
  292MOL    C4223904   1.600   1.680   4.525  0.1183  0.0407  0.2801
  292MOL    O4323905   1.546   1.772   4.432  0.3678  0.0480 -0.9104
  292MOL    H4423906   1.547   1.713   4.615  0.6551  0.0076  0.6124
  292MOL    H4523907   1.573   1.583   4.485 -2.2855  0.9985 -0.5361
  292MOL    C4623908   1.414   1.745   4.412 -0.3424 -0.2744  0.0804
  292MOL    O4723909   1.339   1.767   4.532 -0.1232 -0.2522  0.7296
  292MOL    H4823910   1.399   1.641   4.387 -0.9273 -0.2540  0.3386
  292MOL    H4923911   1.370   1.816   4.341  1.0106  1.0146  0.4914
  292MOL    C5023912   1.331   1.901   4.571  0.5218  0.3153  1.0751
  292MOL    O5123913   1.276   1.903   4.699 -0.2284  0.0186 -0.4452
  292MOL    H5223914   1.267   1.958   4.504  1.3867  0.4790  0.3839
  292MOL    H5323915   1.432   1.941   4.577  1.0592 -0.9262  0.5677
  292MOL    C5423916   1.372   1.890   4.799 -0.3481 -0.8217  0.0320
  292MOL    O5523917   1.458   2.000   4.788  0.7225  1.2442 -0.3373
  292MOL    H5623918   1.432   1.799   4.795  0.2980 -0.3726 -0.4997
  292MOL    H5723919   1.329   1.890   4.899  1.1641 -1.6293  0.7066
  292MOL    C5823920   1.414   2.112   4.870 -0.0935 -0.0295  0.0600
  292MOL    O5923921   1.434   2.093   5.005 -0.1153 -0.9399 -0.1044
  292MOL    H6023922   1.311   2.131   4.841  1.0872  0.0481 -4.5185
  292MOL    H6123923   1.478   2.194   4.837  0.7025 -0.0414  1.5266
  292MOL    C6223924   1.392   2.202   5.082 -0.6284  0.2235 -0.2819
  292MOL    O6323925   1.478   2.307   5.070 -0.5658  0.5468  0.9019
  292MOL    H6423926   1.396   2.173   5.187 -3.7182 -0.9604 -0.4316
  292MOL    H6523927   1.289   2.232   5.060 -1.1240  0.6406  2.4500
  292MOL    C6623928   1.614   2.291   5.113 -0.4796  0.1397  0.1612
  292MOL    O6723929   1.617   2.297   5.253 -0.3465  0.3866  0.0401
  292MOL    H6823930   1.676   2.369   5.068 -0.6905  0.2743  0.1056
  292MOL    H6923931   1.652   2.192   5.089 -0.8535  0.3395 -1.3067
  292MOL    C7023932   1.636   2.428   5.310  0.4216  0.0210  0.2445
  292MOL    O7123933   1.628   2.429   5.446 -0.3498 -0.6245 -0.1771
  292MOL    H7223934   1.560   2.497   5.273 -1.5317 -1.5557  1.2004
  292MOL    H7323935   1.734   2.471   5.290 -0.0969  0.0662 -2.3140
  292MOL    C7423936   1.501   2.419   5.504 -0.0388 -0.1299 -0.5220
  292MOL    O7523937   1.436   2.540   5.478  0.6443  0.1666  0.0824
  292MOL    H7623938   1.513   2.396   5.610  0.2347 -0.2116 -0.5702
  292MOL    H7723939   1.450   2.335   5.458 -0.3286  0.6622 -1.6552
  292MOL    C7823940   1.489   2.640   5.559  0.9182  0.7420  0.7211
  292MOL    O7923941   1.438   2.763   5.510 -0.6705  0.2237  0.1770
  292MOL    H8023942   1.598   2.644   5.547  1.2343  1.3785  3.4695
  292MOL    H8123943   1.472   2.616   5.664 -0.4777 -0.2202  0.2868
  292MOL    H8223944   1.435   2.824   5.582 -1.4073  0.3278  0.0518
  293MOL     C123945   5.840   1.974   1.618  0.4278 -0.5804 -0.4115
  293MOL     O223946   5.739   1.877   1.590 -0.0226 -0.0906 -0.3430
  293MOL     H323947   5.794   2.071   1.636 -1.5981 -1.2698 -1.7039
  293MOL     H423948   5.890   1.951   1.712 -0.5706  1.1832  0.5820
  293MOL     H523949   5.918   1.976   1.542  1.1075  0.7723  0.3094
  293MOL     C623950   5.665   1.900   1.478  0.1790  0.5050  0.3898
  293MOL     O723951   5.715   1.829   1.371  0.7574 -0.3183 -0.1128
  293MOL     H823952   5.649   2.007   1.464  0.6227  0.5508  0.1962
  293MOL     H923953   5.564   1.874   1.508 -0.6400 -0.6848 -3.1643
  293MOL    C1023954   5.635   1.721   1.340 -0.6004 -0.2946  0.8099
  293MOL    O1123955   5.514   1.756   1.282 -0.1016  0.0407 -0.5369
  293MOL    H1223956   5.612   1.665   1.431 -0.2048 -0.8252  0.5854
  293MOL    H1323957   5.700   1.653   1.286 -0.0838 -1.8529  3.2793
  293MOL    C1423958   5.528   1.818   1.159  0.0659  0.1925 -0.1426
  293MOL    O1523959   5.401   1.839   1.107 -0.3257  0.0101  0.0190
  293MOL    H1623960   5.595   1.765   1.091 -0.3002  0.2514 -0.5477
  293MOL    H1723961   5.569   1.915   1.186 -2.1305  1.4405 -1.2127
  293MOL    C1823962   5.335   1.725   1.060  0.0085  0.3705 -0.1287
  293MOL    O1923963   5.410   1.650   0.965  0.1326 -0.5171  0.0505
  293MOL    H2023964   5.233   1.749   1.030  0.8492  1.1330 -2.4876
  293MOL    H2123965   5.326   1.657   1.145  2.2287  1.6009  1.1426
  293MOL    C2223966   5.391   1.703   0.833  0.3001 -0.0561  0.0716
  293MOL    O2323967   5.271   1.656   0.783  0.2679 -0.0559 -0.4932
  293MOL    H2423968   5.473   1.676   0.767  1.8032  1.8918  1.0963
  293MOL    H2523969   5.391   1.812   0.831  1.4500 -0.0455  0.3662
  293MOL    C2623970   5.264   1.523   0.761  0.2220  0.6845  0.6185
  293MOL    O2723971   5.361   1.482   0.672 -0.7900  0.6509  0.1707
  293MOL    H2823972   5.162   1.501   0.731 -0.6880  0.4752  3.6556
  293MOL    H2923973   5.282   1.463   0.851 -0.7399 -2.7977 -1.4429
  293MOL    C3023974   5.426   1.362   0.712 -0.6369  0.5650  0.2672
  293MOL    O3123975   5.339   1.257   0.733 -0.7097  0.2097 -0.7216
  293MOL    H3223976   5.482   1.396   0.799 -0.3704  0.7679  0.0180
  293MOL    H3323977   5.507   1.341   0.643 -1.0101 -2.3909  0.6459
  293MOL    C3423978   5.274   1.221   0.613 -0.3931 -0.2654 -0.4239
  293MOL    O3523979   5.202   1.103   0.629  0.2508  0.6510  0.5358
  293MOL    H3623980   5.329   1.214   0.519 -1.2227 -1.8947 -0.8049
  293MOL    H3723981   5.202   1.300   0.597  0.4642  0.5230 -0.4387
  293MOL    C3823982   5.276   0.985   0.614  0.8334  0.1238 -0.2507
  293MOL    O3923983   5.319   0.959   0.487 -0.3055 -0.1077  0.2458
  293MOL    H4023984   5.223   0.903   0.662 -0.4635  1.0714 -0.0451
  293MOL    H4123985   5.370   1.005   0.666  0.2574  0.2124  0.7656
  293MOL    C4223986   5.202   0.923   0.411  0.0411  1.0298  0.5027
  293MOL    O4323987   5.221   0.898   0.269  0.3276  0.3621 -0.3409
  293MOL    H4423988   5.128   1.001   0.427 -0.1832  0.8457  0.3754
  293MOL    H4523989   5.169   0.831   0.462 -0.2876  0.7740 -0.1649
  293MOL    C4623990   5.319   0.796   0.249  0.5569 -0.9732  0.1286
  293MOL    O4723991   5.446   0.849   0.277  0.1350  0.1433 -0.0347
  293MOL    H4823992   5.326   0.774   0.143  1.7654 -1.7150  0.3539
  293MOL    H4923993   5.287   0.705   0.300 -1.1773  1.3960  3.5093
  293MOL    C5023994   5.548   0.753   0.295 -0.2608 -0.7223  0.6959
  293MOL    O5123995   5.522   0.655   0.397 -0.4971  0.4515 -0.0671
  293MOL    H5223996   5.638   0.812   0.311  0.7663 -2.2631  0.7133
  293MOL    H5323997   5.582   0.703   0.204  0.5812  4.1378 -1.7831
  293MOL    C5423998   5.525   0.710   0.524 -0.0338  0.0631  0.1693
  293MOL    O5523999   5.646   0.686   0.587  0.3844 -0.2043  0.0766
  293MOL    H5624000   5.446   0.658   0.579 -0.6499  1.2878  0.4663
  293MOL    H5724001   5.497   0.814   0.541 -0.2148 -0.1398  1.1768
  293MOL    C5824002   5.678   0.549   0.604 -0.4531 -0.2537  0.6579
  293MOL    O5924003   5.595   0.490   0.698  0.1966  0.0086  0.2709
  293MOL    H6024004   5.782   0.524   0.626 -0.0677  0.6267 -0.1045
  293MOL    H6124005   5.657   0.500   0.509 -3.0372  2.5850 -0.3092
  293MOL    C6224006   5.641   0.513   0.826 -0.7789 -0.4735 -0.5316
  293MOL    O6324007   5.771   0.464   0.853 -0.3863  0.3579 -0.6167
  293MOL    H6424008   5.569   0.465   0.892  2.5727 -1.4562  2.5725
  293MOL    H6524009   5.643   0.621   0.840 -1.0462 -0.9118  3.2786
  293MOL    C6624010   5.768   0.331   0.886  0.3083 -0.2107 -0.0901
  293MOL    O6724011   5.736   0.302   1.016  0.0706 -0.9652  0.5714
  293MOL    H6824012   5.865   0.290   0.861  0.2652 -0.0774 -0.4823
  293MOL    H6924013   5.711   0.266   0.819  0.5498  0.0388 -0.5403
  293MOL    C7024014   5.839   0.329   1.102 -0.0250  0.4680  0.2612
  293MOL    O7124015   5.920   0.218   1.109  0.5262  0.0392  0.1078
  293MOL    H7224016   5.799   0.349   1.201  0.1722  0.5475  0.3263
  293MOL    H7324017   5.906   0.413   1.080  0.8672 -0.1926  0.4114
  293MOL    C7424018   5.862   0.116   1.188 -0.3255  0.3877  0.5472
  293MOL    O7524019   5.868   0.140   1.325  0.0450  0.6151  0.6339
  293MOL    H7624020   5.923   0.027   1.177  1.0804  1.0153  2.7913
  293MOL    H7724021   5.759   0.100   1.155 -0.2345  0.1869  0.3595
  293MOL    C7824022   5.995   0.156   1.367  0.7118  0.5268 -0.6385
  293MOL    O7924023   6.002   0.178   1.510  0.1034 -0.3441 -0.2628
  293MOL    H8024024   6.045   0.234   1.308  1.2158 -0.4023 -1.4424
  293MOL    H8124025   6.060   0.069   1.354 -1.7381 -1.5653  0.7499
  293MOL    H8224026   5.989   0.270   1.528  1.3477 -0.3895  0.8935
  294MOL     C124027   4.460   6.328   5.109  0.3147 -0.6355  0.3143
  294MOL     O224028   4.336   6.351   5.175 -0.0525  0.0307  0.3882
  294MOL     H324029   4.505   6.425   5.090  0.0431 -0.1571  2.1041
  294MOL     H424030   4.530   6.273   5.172  0.6885  1.0298  1.3634
  294MOL     H524031   4.472   6.292   5.006  0.3760 -1.0984  0.4800
  294MOL     C624032   4.283   6.243   5.240 -0.4678 -0.8184 -0.5677
  294MOL     O724033   4.240   6.150   5.145 -0.1649 -0.1702 -0.1329
  294MOL     H824034   4.202   6.274   5.306  1.4458  0.9747  1.0351
  294MOL     H924035   4.366   6.204   5.300 -1.0121 -1.4860 -0.2494
  294MOL    C1024036   4.170   6.047   5.194  0.5036 -0.7022  0.1926
  294MOL    O1124037   4.036   6.073   5.219  0.2915 -0.5988  0.1832
  294MOL    H1224038   4.222   6.008   5.282  0.8325 -1.7834 -0.4700
  294MOL    H1324039   4.185   5.965   5.124 -1.9377 -0.9402 -0.1169
  294MOL    C1424040   3.961   6.112   5.108 -0.7495 -0.9478 -0.2781
  294MOL    O1524041   3.977   6.011   5.009  0.1106  0.3810  1.0228
  294MOL    H1624042   4.009   6.199   5.063 -0.1457 -1.8054 -1.3178
  294MOL    H1724043   3.858   6.146   5.126  0.0276  0.0193  2.6314
  294MOL    C1824044   3.907   5.893   5.033 -0.0222  0.4778 -0.5575
  294MOL    O1924045   3.782   5.883   4.977  0.0249 -0.2853  0.6133
  294MOL    H2024046   3.903   5.871   5.139  0.8560  0.8410 -0.4433
  294MOL    H2124047   3.975   5.817   4.994  0.6368 -0.4596  2.2885
  294MOL    C2224048   3.784   5.900   4.841  0.2896 -0.4349 -0.2743
  294MOL    O2324049   3.666   5.962   4.804 -0.2730 -0.0854  0.0501
  294MOL    H2424050   3.789   5.807   4.783  0.7528 -0.3749 -0.3382
  294MOL    H2524051   3.876   5.949   4.807 -1.3415  3.5537  0.8215
  294MOL    C2624052   3.654   6.089   4.851 -0.7233  0.1809 -0.6568
  294MOL    O2724053   3.523   6.130   4.833  0.1663 -0.0652  0.2578
  294MOL    H2824054   3.725   6.154   4.800 -0.4120  1.0524  0.8229
  294MOL    H2924055   3.675   6.087   4.958 -2.6517 -2.1475 -0.2684
  294MOL    C3024056   3.486   6.247   4.894 -0.8117  0.4682 -0.7877
  294MOL    O3124057   3.574   6.351   4.869 -0.0297 -0.0209  0.1037
  294MOL    H3224058   3.498   6.229   5.001 -1.9014 -0.3451 -0.7993
  294MOL    H3324059   3.383   6.269   4.869 -1.1106 -1.1654 -1.0603
  294MOL    C3424060   3.540   6.427   4.758 -0.0290 -0.2282 -0.3690
  294MOL    O3524061   3.430   6.512   4.782 -0.1751 -0.7744 -0.7360
  294MOL    H3624062   3.529   6.351   4.681  1.8505 -0.8766 -0.0114
  294MOL    H3724063   3.626   6.486   4.727  0.0439  0.0364  0.3057
  294MOL    C3824064   3.467   6.633   4.839 -0.0973 -0.4250 -0.3982
  294MOL    O3924065   3.359   6.713   4.868  0.2226  0.0814  0.5992
  294MOL    H4024066   3.522   6.695   4.769 -1.9708  0.9966 -0.6283
  294MOL    H4124067   3.524   6.600   4.926  2.8256  2.5228 -1.0915
  294MOL    C4224068   3.274   6.661   4.967 -0.1383  0.1602 -0.3704
  294MOL    O4324069   3.326   6.703   5.090 -0.1692  0.1686 -0.5413
  294MOL    H4424070   3.264   6.553   4.960 -2.1691  0.3016  0.0099
  294MOL    H4524071   3.173   6.698   4.948  0.9400  3.0024 -0.8922
  294MOL    C4624072   3.277   6.830   5.124  0.9223  0.7600 -0.5043
  294MOL    O4724073   3.146   6.830   5.162  0.2184  0.4629  0.4209
  294MOL    H4824074   3.287   6.891   5.035  3.2770  0.6563 -0.3362
  294MOL    H4924075   3.340   6.889   5.191 -1.1365  0.2631  1.9598
  294MOL    C5024076   3.115   6.744   5.265 -0.6574 -0.6055 -0.1297
  294MOL    O5124077   3.145   6.798   5.388  0.0877 -0.0253 -0.3851
  294MOL    H5224078   3.161   6.647   5.248  0.1980 -0.0348 -1.2392
  294MOL    H5324079   3.009   6.727   5.250 -0.8922  1.3093 -0.8938
  294MOL    C5424080   3.096   6.929   5.416 -0.2371  0.1104 -0.0282
  294MOL    O5524081   2.961   6.934   5.438  0.3490 -0.7243  0.0949
  294MOL    H5624082   3.135   6.991   5.336 -0.9371  1.7474  0.8892
  294MOL    H5724083   3.142   6.958   5.510 -1.4607  2.1249 -0.0386
  294MOL    C5824084   2.926   6.841   5.545 -0.0132  0.0879 -0.4787
  294MOL    O5924085   2.793   6.850   5.587  0.0717  0.4456 -0.2689
  294MOL    H6024086   2.983   6.873   5.633 -1.3200  1.6489 -0.1632
  294MOL    H6124087   2.941   6.737   5.517 -0.2152  0.0091 -0.2967
  294MOL    C6224088   2.708   6.813   5.482 -0.3594 -0.0870  0.1475
  294MOL    O6324089   2.573   6.836   5.513 -0.7396 -0.4189  0.6071
  294MOL    H6424090   2.733   6.712   5.447  0.3792  0.7778 -1.8651
  294MOL    H6524091   2.736   6.865   5.391 -0.1339 -0.9663 -0.2995
  294MOL    C6624092   2.483   6.817   5.407 -0.1179 -0.5860  0.1170
  294MOL    O6724093   2.497   6.922   5.313  0.4121  0.5422  0.2193
  294MOL    H6824094   2.381   6.808   5.445 -0.6461  3.4867 -0.0838
  294MOL    H6924095   2.512   6.732   5.345  2.9533  0.4667  0.0428
  294MOL    C7024096   2.451   7.046   5.368 -0.9333  0.3813  0.2154
  294MOL    O7124097   2.317   7.061   5.375  0.1847 -0.1070 -0.1503
  294MOL    H7224098   2.493   7.116   5.296  0.4800 -0.6130  0.0532
  294MOL    H7324099   2.482   7.073   5.469  0.1778 -0.3880  0.1018
  294MOL    C7424100   2.268   7.058   5.248  0.5680 -0.3565  0.3494
  294MOL    O7524101   2.306   7.158   5.155 -0.0685  0.0214 -0.5163
  294MOL    H7624102   2.160   7.057   5.261  0.8679 -1.8188  3.3472
  294MOL    H7724103   2.299   6.965   5.200 -0.0872 -0.0886 -0.5940
  294MOL    C7824104   2.269   7.133   5.025  0.1707 -0.3024 -0.1644
  294MOL    O7924105   2.316   7.231   4.936  0.2134 -0.2333  0.3646
  294MOL    H8024106   2.160   7.126   5.022 -0.0606  1.9115  2.3306
  294MOL    H8124107   2.314   7.045   4.978 -1.4365 -0.7041 -0.9945
  294MOL    H8224108   2.284   7.318   4.955  2.4298  1.1262 -1.7873
  295MOL     C124109   4.081   4.974   0.953 -0.2175 -0.5580  0.8560
  295MOL     O224110   4.179   5.002   0.861 -0.6740 -0.3334  0.5716
  295MOL     H324111   4.145   4.951   1.037  1.5756  1.2865  0.0390
  295MOL     H424112   4.015   5.058   0.973 -1.4897 -1.7752  1.9465
  295MOL     H524113   4.022   4.891   0.913 -1.9112  1.0783 -0.1040
  295MOL     C624114   4.245   5.114   0.897 -0.2419  0.2108 -0.2134
  295MOL     O724115   4.277   5.195   0.789 -0.0327  0.8415 -0.2227
  295MOL     H824116   4.331   5.092   0.960  0.2492  4.8167  0.9261
  295MOL     H924117   4.193   5.177   0.969 -0.1129 -0.6991  0.6937
  295MOL    C1024118   4.166   5.271   0.741  0.5629  0.3570 -0.1650
  295MOL    O1124119   4.131   5.367   0.839 -0.2128  0.2875 -0.4469
  295MOL    H1224120   4.082   5.205   0.720  1.5477 -1.7315  2.2456
  295MOL    H1324121   4.190   5.323   0.649  0.4905 -0.9453 -0.9255
  295MOL    C1424122   4.029   5.457   0.796  0.0738 -0.6607  0.3122
  295MOL    O1524123   3.899   5.419   0.827  0.0737  0.2706 -0.0078
  295MOL    H1624124   4.031   5.464   0.687  3.6847 -0.3133  0.3483
  295MOL    H1724125   4.054   5.552   0.844  1.3982 -1.4091  1.1346
  295MOL    C1824126   3.872   5.416   0.965 -0.0596 -0.6531  0.3152
  295MOL    O1924127   3.743   5.383   0.994 -0.4907 -0.3285 -0.3154
  295MOL    H2024128   3.878   5.519   1.000  0.3287  0.4598 -2.9299
  295MOL    H2124129   3.960   5.371   1.012  0.3532  1.7939  2.0054
  295MOL    C2224130   3.721   5.248   0.970 -0.5951  0.2292 -0.3177
  295MOL    O2324131   3.769   5.181   1.083 -0.3917  0.1218  0.2927
  295MOL    H2424132   3.757   5.213   0.872 -1.8435 -0.1475 -0.6462
  295MOL    H2524133   3.613   5.235   0.968 -0.4329 -1.3027 -2.6599
  295MOL    C2624134   3.731   5.042   1.078 -0.2875  0.0956  0.2289
  295MOL    O2724135   3.605   5.023   1.131 -0.5201 -0.0669  0.0499
  295MOL    H2824136   3.798   4.986   1.143 -0.7829  1.5759  2.0536
  295MOL    H2924137   3.740   5.001   0.978  1.4914  1.7421 -0.3022
  295MOL    C3024138   3.585   5.085   1.256 -0.1470  0.0466 -0.1579
  295MOL    O3124139   3.496   5.012   1.332 -0.3650 -0.5739 -0.1237
  295MOL    H3224140   3.535   5.179   1.233 -0.8399  0.2019  1.9136
  295MOL    H3324141   3.675   5.116   1.308 -0.5118  0.7654  0.0432
  295MOL    C3424142   3.560   4.917   1.401  0.1353 -0.6872 -0.0106
  295MOL    O3524143   3.654   4.961   1.489 -0.6539  0.5293 -0.1172
  295MOL    H3624144   3.613   4.845   1.337 -1.2476 -1.6230 -0.1238
  295MOL    H3724145   3.484   4.858   1.452 -0.4372 -0.6928 -0.8498
  295MOL    C3824146   3.594   5.023   1.606 -0.5404  0.1372  0.7038
  295MOL    O3924147   3.517   4.927   1.680  0.8395  0.0509 -0.6683
  295MOL    H4024148   3.540   5.116   1.587 -0.9225 -0.1013  0.6074
  295MOL    H4124149   3.680   5.043   1.669 -0.4874 -2.0960  1.3691
  295MOL    C4224150   3.593   4.819   1.730 -0.0013 -0.1975  0.2280
  295MOL    O4324151   3.674   4.850   1.843  0.7089 -0.6801 -0.1691
  295MOL    H4424152   3.659   4.787   1.649  0.1267  0.8897 -0.1004
  295MOL    H4524153   3.525   4.736   1.748  1.8205 -1.5790  1.0367
  295MOL    C4624154   3.594   4.896   1.947 -0.0094  0.1752  0.1505
  295MOL    O4724155   3.518   4.788   1.997  0.1944  0.2693  0.4543
  295MOL    H4824156   3.545   4.988   1.916 -1.5103 -0.0949  1.6041
  295MOL    H4924157   3.657   4.923   2.032 -0.8499  0.4498  0.6993
  295MOL    C5024158   3.388   4.807   2.044  0.3173 -0.6011 -0.0562
  295MOL    O5124159   3.306   4.874   1.957  0.5866  0.2734 -0.1132
  295MOL    H5224160   3.404   4.868   2.133  0.2591 -1.2135  0.3833
  295MOL    H5324161   3.353   4.711   2.082 -2.1453  0.6651  1.0104
  295MOL    C5424162   3.221   4.785   1.891 -0.3563 -0.0777 -0.4629
  295MOL    O5524163   3.119   4.749   1.973 -0.2050  0.2179 -0.7199
  295MOL    H5624164   3.276   4.704   1.844 -0.0012 -0.6758  0.9550
  295MOL    H5724165   3.171   4.843   1.813 -2.0412  2.4583  2.3858
  295MOL    C5824166   3.043   4.644   1.909  0.3195 -0.0942 -0.4490
  295MOL    O5924167   3.110   4.523   1.917 -0.5833 -0.0224  0.4412
  295MOL    H6024168   3.025   4.668   1.804  1.3941 -1.0372 -0.8566
  295MOL    H6124169   2.948   4.650   1.961  0.4760 -0.1029 -0.1650
  295MOL    C6224170   3.104   4.474   2.049  0.5069 -0.4323  1.0233
  295MOL    O6324171   2.972   4.455   2.099 -0.4355 -0.3723 -0.2595
  295MOL    H6424172   3.160   4.543   2.112  3.0512 -0.9953 -0.5391
  295MOL    H6524173   3.160   4.381   2.046  1.0919 -0.1291  2.4524
  295MOL    C6624174   2.902   4.358   2.024  0.2496 -0.8321  0.2539
  295MOL    O6724175   2.795   4.291   2.093  0.5521  0.1853 -0.3060
  295MOL    H6824176   2.958   4.274   1.981 -0.6259 -1.3320  0.0697
  295MOL    H6924177   2.869   4.412   1.935  1.8294 -0.1668  0.0432
  295MOL    C7024178   2.847   4.216   2.197  0.1280 -0.2589  0.8816
  295MOL    O7124179   2.909   4.097   2.151 -0.0182  0.1913  0.4840
  295MOL    H7224180   2.774   4.189   2.273 -2.0510  2.0078 -0.3262
  295MOL    H7324181   2.911   4.271   2.265 -0.3376  1.3538  0.0397
  295MOL    C7424182   2.830   3.994   2.115  0.3243 -0.1410 -0.0220
  295MOL    O7524183   2.788   3.909   2.225 -0.2669 -0.8481 -0.3337
  295MOL    H7624184   2.884   3.933   2.042 -0.5884 -1.0710  0.0699
  295MOL    H7724185   2.741   4.028   2.063  1.2549  0.4482 -1.2534
  295MOL    C7824186   2.903   3.843   2.285  0.3471 -0.1235 -0.4473
  295MOL    O7924187   2.854   3.760   2.387 -0.5166  0.1798 -0.1109
  295MOL    H8024188   2.950   3.923   2.342 -0.4405 -1.5355  2.2651
  295MOL    H8124189   2.970   3.781   2.225  0.7087  1.5191 -1.7810
  295MOL    H8224190   2.835   3.819   2.458 -1.6323  0.2996 -0.5086
  296MOL     C124191   2.277   0.043   5.244  0.3022 -0.0425  0.0877
  296MOL     O224192   2.227   0.064   5.112 -0.8562  0.0758  0.1725
  296MOL     H324193   2.205   0.052   5.326 -1.2216 -0.2923 -1.1847
  296MOL     H424194   2.317   7.726   5.256 -2.4114 -1.1616  0.0917
  296MOL     H524195   2.357   0.114   5.262 -0.8257  1.1048  0.7081
  296MOL     C624196   2.184   0.193   5.090 -0.3189 -0.9752  0.3250
  296MOL     O724197   2.091   0.241   5.191  0.2359 -0.1112  0.1459
  296MOL     H824198   2.130   0.179   4.997 -0.7030  2.6558 -0.0684
  296MOL     H924199   2.265   0.262   5.065 -2.0739  1.1668  0.3606
  296MOL    C1024200   1.975   0.167   5.197  1.0184  0.6329  0.7061
  296MOL    O1124201   1.902   0.200   5.085  0.0311  0.3800  0.2251
  296MOL    H1224202   1.922   0.193   5.289  1.9292  0.8767  1.1612
  296MOL    H1324203   2.002   0.062   5.199 -2.4739 -0.3190  0.5824
  296MOL    C1424204   1.786   0.129   5.075 -0.1744 -0.1592  0.8507
  296MOL    O1524205   1.793   7.774   5.044 -0.0036 -0.0030  0.0812
  296MOL    H1624206   1.725   0.177   4.998 -0.0384  0.2455  0.9929
  296MOL    H1724207   1.727   0.118   5.165  0.2006  0.3209  1.1602
  296MOL    C1824208   1.822   7.749   4.910  0.1210 -0.1152  0.2312
  296MOL    O1924209   1.723   0.014   4.825  0.3068  0.5761  0.8847
  296MOL    H2024210   1.833   7.643   4.889 -1.2953  0.3882 -3.6334
  296MOL    H2124211   1.916   0.016   4.889  1.0456 -1.1827  1.7475
  296MOL    C2224212   1.613   7.713   4.806  0.5503 -0.2010  0.5501
  296MOL    O2324213   1.649   7.606   4.720  0.1778  0.6193  0.6508
  296MOL    H2424214   1.528   7.767   4.765  0.3659  0.5392  1.8823
  296MOL    H2524215   1.580   7.675   4.903  1.0984  1.5112  1.4270
  296MOL    C2624216   1.647   7.641   4.581 -0.9974  0.2583 -0.8023
  296MOL    O2724217   1.522   7.652   4.542  0.2018  0.1534  0.2097
  296MOL    H2824218   1.708   7.572   4.523  1.2147  1.8072 -0.3628
  296MOL    H2924219   1.700   7.736   4.574  1.2483 -0.8836  0.1840
  296MOL    C3024220   1.462   7.525   4.528 -0.1661  0.0470 -0.1022
  296MOL    O3124221   1.509   7.448   4.422 -0.2464 -0.1310  0.2705
  296MOL    H3224222   1.354   7.534   4.514  0.0182  0.6280 -1.2341
  296MOL    H3324223   1.474   7.466   4.618 -1.1538 -0.7964 -0.5040
  296MOL    C3424224   1.468   7.494   4.294 -0.1452 -0.1653 -0.0137
  296MOL    O3524225   1.544   7.447   4.184 -0.4754 -0.1076 -0.5919
  296MOL    H3624226   1.499   7.597   4.305  1.9021 -0.9258  1.7094
  296MOL    H3724227   1.360   7.486   4.296 -0.2170  1.1151  2.9022
  296MOL    C3824228   1.502   7.331   4.131 -0.2687  0.1481 -0.5508
  296MOL    O3924229   1.383   7.337   4.068  0.1660 -0.1657  0.3435
  296MOL    H4024230   1.507   7.258   4.212 -0.1400  2.0533  1.2031
  296MOL    H4124231   1.578   7.305   4.057  0.7187 -0.0495  0.5132
  296MOL    C4224232   1.381   7.439   3.977 -0.0027  0.5563 -0.0592
  296MOL    O4324233   1.307   7.547   4.025  0.1158  0.0242  0.1211
  296MOL    H4424234   1.358   7.409   3.874  0.6839  1.4980 -0.4967
  296MOL    H4524235   1.478   7.482   3.955 -0.8694  2.1960 -0.8018
  296MOL    C4624236   1.175   7.512   4.042  0.2647  0.1175 -0.6644
  296MOL    O4724237   1.109   7.514   3.923  0.4245  0.5289 -0.2870
  296MOL    H4824238   1.135   7.585   4.114 -0.6683  0.7030 -1.7575
  296MOL    H4924239   1.153   7.418   4.093 -1.6364  0.2696 -1.1749
  296MOL    C5024240   1.125   7.640   3.854 -0.0833  0.6744 -0.7099
  296MOL    O5124241   1.017   7.667   3.772  0.0119 -0.7629  0.0181
  296MOL    H5224242   1.213   7.642   3.789  0.3807 -0.1107 -0.1089
  296MOL    H5324243   1.142   7.714   3.931  2.2475  0.0903 -0.6213
  296MOL    C5424244   1.027   7.593   3.649 -0.4421 -0.5011 -0.3849
  296MOL    O5524245   1.101   7.670   3.554  0.7585  0.9012 -0.7711
  296MOL    H5624246   0.926   7.571   3.614  0.3537 -0.7819 -2.6084
  296MOL    H5724247   1.061   7.494   3.680  0.8474  0.5259  1.5892
  296MOL    C5824248   1.018   7.777   3.513  0.0148 -0.2956  0.0808
  296MOL    O5924249   0.919   7.732   3.432  0.1338  0.2787 -0.4363
  296MOL    H6024250   1.090   0.056   3.460  0.5978 -1.4339 -0.4914
  296MOL    H6124251   0.973   0.035   3.603 -0.9846 -0.8420 -0.1631
  296MOL    C6224252   0.813   0.045   3.419 -0.6356  0.1117  0.5779
  296MOL    O6324253   0.751   0.073   3.543 -0.4400 -0.2548  0.1039
  296MOL    H6424254   0.738   0.010   3.348 -0.4051  1.3299 -0.3085
  296MOL    H6524255   0.841   0.141   3.374  0.6228  0.4208  2.0068
  296MOL    C6624256   0.665   7.758   3.579  0.0695  0.2718  0.2196
  296MOL    O6724257   0.558   7.749   3.493 -0.2456  0.3519  0.2902
  296MOL    H6824258   0.630   0.012   3.675  0.9984  1.0237  0.2656
  296MOL    H6924259   0.719   7.663   3.581 -0.2199  0.1093  0.3463
  296MOL    C7024260   0.517   7.620   3.480  0.1025 -0.1217  0.2315
  296MOL    O7124261   0.472   7.575   3.600  0.0775 -0.4863 -0.0770
  296MOL    H7224262   0.601   7.559   3.445 -1.1500 -0.9598 -1.3926
  296MOL    H7324263   0.451   7.620   3.393 -0.3847  0.4895  0.5982
  296MOL    C7424264   0.342   7.622   3.623  0.4649  0.0696 -0.2521
  296MOL    O7524265   0.248   7.577   3.537  0.4613  0.2192  0.0549
  296MOL    H7624266   0.347   7.731   3.622  0.7885  0.0617  0.3681
  296MOL    H7724267   0.323   7.584   3.723 -1.8536  1.9641  0.0642
  296MOL    C7824268   0.239   7.443   3.552  0.7815  0.2505  0.3261
  296MOL    O7924269   0.143   7.394   3.468 -0.4694  1.3344 -0.0218
  296MOL    H8024270   0.212   7.417   3.655  2.1032 -1.7582  0.1882
  296MOL    H8124271   0.328   7.386   3.527 -0.0487 -0.4757 -1.0817
  296MOL    H8224272   0.057   7.420   3.499  0.1354  2.4759  0.7526
  297MOL     C124273   3.529   3.641   4.688 -0.2267 -0.1215  0.3573
  297MOL     O224274   3.392   3.600   4.670 -0.2732  0.0556  0.2275
  297MOL     H324275   3.578   3.684   4.601  0.7519  0.1596  1.0349
  297MOL     H424276   3.542   3.706   4.774  0.0390 -0.9442  0.9463
  297MOL     H524277   3.579   3.552   4.726 -0.5981 -0.6336 -0.3428
  297MOL     C624278   3.366   3.496   4.577  0.4540  0.3950  0.1911
  297MOL     O724279   3.228   3.487   4.551  0.3060  0.5751 -0.2642
  297MOL     H824280   3.399   3.406   4.629  1.1772  1.0084  0.8116
  297MOL     H924281   3.419   3.509   4.482 -0.1907  0.7205 -0.1291
  297MOL    C1024282   3.157   3.427   4.659  0.0842  0.0840 -0.2801
  297MOL    O1124283   3.189   3.293   4.671 -0.6540  0.5864 -0.3721
  297MOL    H1224284   3.052   3.450   4.643 -0.0241 -1.1916 -1.5361
  297MOL    H1324285   3.181   3.481   4.750  0.2835  2.2452 -1.5827
  297MOL    C1424286   3.133   3.222   4.568  0.6452  0.2178  0.4452
  297MOL    O1524287   2.994   3.209   4.583  0.1762 -0.1649  0.4277
  297MOL    H1624288   3.175   3.121   4.573  1.8535  0.7112  0.3537
  297MOL    H1724289   3.144   3.268   4.469 -1.3287 -0.8455 -0.3035
  297MOL    C1824290   2.940   3.118   4.485  0.0274  0.8334 -0.0467
  297MOL    O1924291   2.949   3.184   4.366  0.6211 -0.3066 -0.7037
  297MOL    H2024292   2.838   3.104   4.522 -0.2959 -0.1390 -1.2619
  297MOL    H2124293   2.987   3.020   4.485 -0.4229  0.6189 -0.4364
  297MOL    C2224294   2.902   3.106   4.261  0.2673 -0.6224  0.2165
  297MOL    O2324295   2.993   3.017   4.213 -0.0762  0.5123 -0.2591
  297MOL    H2424296   2.853   3.155   4.176  0.9283 -0.6307 -0.1695
  297MOL    H2524297   2.820   3.044   4.297 -2.7217  3.4683  0.8731
  297MOL    C2624298   3.108   3.073   4.151  0.2764  0.1011 -0.7498
  297MOL    O2724299   3.071   3.142   4.039 -0.3222  0.7790  0.1645
  297MOL    H2824300   3.168   2.984   4.128  0.7897  0.3978 -0.5677
  297MOL    H2924301   3.176   3.125   4.218 -1.5250 -0.1120  1.3321
  297MOL    C3024302   3.095   3.283   4.046  0.0391  0.2850  0.3190
  297MOL    O3124303   3.236   3.303   4.027  0.3358 -0.3268  0.1976
  297MOL    H3224304   3.053   3.319   4.140 -0.1444  1.1793 -0.0926
  297MOL    H3324305   3.042   3.332   3.964  1.7858  1.1697 -0.3167
  297MOL    C3424306   3.277   3.256   3.909 -0.4186  0.0253  0.5776
  297MOL    O3524307   3.344   3.354   3.843  0.5870  0.2633 -0.0419
  297MOL    H3624308   3.193   3.228   3.845  2.5627 -0.7959 -3.2030
  297MOL    H3724309   3.347   3.173   3.923  1.2996  0.9672 -2.0235
  297MOL    C3824310   3.443   3.420   3.922  0.1141 -0.0082 -0.1397
  297MOL    O3924311   3.543   3.330   3.955  0.1413  0.3261 -0.2121
  297MOL    H4024312   3.400   3.463   4.012 -1.3632 -1.1011 -0.2932
  297MOL    H4124313   3.468   3.505   3.859 -0.4626 -0.4672 -1.0091
  297MOL    C4224314   3.634   3.292   3.855  0.6097  0.0206  0.3830
  297MOL    O4324315   3.700   3.172   3.894  0.0483  0.0160  0.5315
  297MOL    H4424316   3.699   3.379   3.852  0.1275  0.4049  0.9865
  297MOL    H4524317   3.575   3.284   3.763 -1.8241  0.0476  1.9145
  297MOL    C4624318   3.795   3.128   3.809  0.0686 -0.1507 -0.3462
  297MOL    O4724319   3.898   3.223   3.805  0.2105 -0.0320  0.2478
  297MOL    H4824320   3.765   3.119   3.704  0.3892  0.5907 -0.5067
  297MOL    H4924321   3.835   3.037   3.853 -1.5246 -0.1053  1.2557
  297MOL    C5024322   4.018   3.168   3.789 -0.0609  0.2479 -0.1678
  297MOL    O5124323   4.027   3.114   3.661 -1.0124  0.4324  0.3573
  297MOL    H5224324   4.044   3.083   3.853  2.1567  1.2745  0.3511
  297MOL    H5324325   4.085   3.253   3.803 -0.2013  0.7381 -2.3461
  297MOL    C5424326   4.019   3.210   3.561  0.0100 -0.7133 -0.9461
  297MOL    O5524327   4.057   3.153   3.437 -0.4570 -0.1587  0.0212
  297MOL    H5624328   4.081   3.297   3.577  1.3199 -1.4549 -1.8649
  297MOL    H5724329   3.920   3.255   3.556 -0.4021 -1.5832 -0.7973
  297MOL    C5824330   4.022   3.236   3.331 -0.7832 -0.3010 -0.8177
  297MOL    O5924331   4.095   3.351   3.329  0.2891 -0.7344 -0.2552
  297MOL    H6024332   3.915   3.252   3.335 -0.6749  0.1973  0.0754
  297MOL    H6124333   4.032   3.176   3.240 -1.9555  0.5772 -1.5340
  297MOL    C6224334   4.085   3.419   3.205 -0.1154 -0.5260  0.1120
  297MOL    O6324335   3.951   3.454   3.171 -0.2808 -0.5077 -0.3865
  297MOL    H6424336   4.117   3.345   3.132 -0.0734 -1.1132  0.7216
  297MOL    H6524337   4.157   3.501   3.206 -0.2959 -0.3693  0.5519
  297MOL    C6624338   3.906   3.560   3.247 -0.7141 -0.7665  0.2368
  297MOL    O6724339   3.794   3.618   3.189 -0.6181  0.0226  0.1581
  297MOL    H6824340   3.977   3.643   3.245 -0.6236 -0.8611 -1.7133
  297MOL    H6924341   3.876   3.536   3.349  1.3615  2.3080  1.6621
  297MOL    C7024342   3.817   3.645   3.055 -0.4713  0.5207  0.6931
  297MOL    O7124343   3.700   3.704   3.008 -0.1481 -0.0291  0.0380
  297MOL    H7224344   3.828   3.552   3.001 -0.5268  0.7269  0.3285
  297MOL    H7324345   3.902   3.713   3.042  0.0673 -0.6261 -1.9381
  297MOL    C7424346   3.715   3.742   2.875 -0.0457  0.3689  0.8368
  297MOL    O7524347   3.746   3.634   2.787  0.0311  0.6051 -0.6803
  297MOL    H7624348   3.797   3.812   2.864 -0.3522  0.5929 -0.0251
  297MOL    H7724349   3.626   3.796   2.841  1.7750  1.7446 -1.8951
  297MOL    C7824350   3.639   3.543   2.775 -0.3233 -0.3494  0.3091
  297MOL    O7924351   3.653   3.456   2.664  0.1854  0.0451 -0.8789
  297MOL    H8024352   3.545   3.594   2.756 -0.4008 -0.5403  0.1808
  297MOL    H8124353   3.638   3.489   2.870 -0.7536 -1.5775 -0.3861
  297MOL    H8224354   3.741   3.421   2.671  1.9455  4.0091 -1.7979
  298MOL     C124355   4.707   4.243   4.289 -0.2878  0.3413 -0.5472
  298MOL     O224356   4.823   4.303   4.352  0.1885  0.3572  0.5785
  298MOL     H324357   4.648   4.184   4.360  1.1454  1.1120  1.3430
  298MOL     H424358   4.639   4.322   4.258 -2.5465 -0.7069  1.5466
  298MOL     H524359   4.748   4.174   4.215 -0.9483  0.8186 -1.3627
  298MOL     C624360   4.910   4.209   4.399 -0.6510 -0.4431 -0.4839
  298MOL     O724361   5.036   4.250   4.422  0.0805 -0.5183 -0.1144
  298MOL     H824362   4.929   4.128   4.329  0.3253 -0.4047 -0.2623
  298MOL     H924363   4.868   4.167   4.491  0.5744 -2.0184 -0.6182
  298MOL    C1024364   5.053   4.316   4.545 -0.1277  0.6765  0.2267
  298MOL    O1124365   5.061   4.237   4.657  0.1124 -0.1454  0.0525
  298MOL    H1224366   4.980   4.396   4.555 -0.2717  0.7274 -1.0844
  298MOL    H1324367   5.148   4.369   4.542  1.0117 -1.4146 -1.3473
  298MOL    C1424368   5.156   4.133   4.655  0.4354 -0.0564 -0.2522
  298MOL    O1524369   5.141   4.046   4.762  0.1160  0.0993  0.0844
  298MOL    H1624370   5.250   4.184   4.641  0.2605  0.2734 -0.2261
  298MOL    H1724371   5.146   4.074   4.563  1.1047 -1.6019  0.6452
  298MOL    C1824372   5.016   3.989   4.764 -0.3796  1.0583 -0.1176
  298MOL    O1924373   5.007   3.872   4.684  0.6675 -0.0752  0.7597
  298MOL    H2024374   4.935   4.057   4.737 -0.7288  0.3309 -0.9408
  298MOL    H2124375   4.993   3.974   4.870 -1.2724 -0.8408 -0.5526
  298MOL    C2224376   5.092   3.770   4.729  0.5241  0.3929 -0.1119
  298MOL    O2324377   5.031   3.703   4.832 -0.4337  0.4807 -0.5523
  298MOL    H2424378   5.191   3.809   4.753  1.1161 -0.9567 -0.3048
  298MOL    H2524379   5.101   3.697   4.649 -0.2900 -0.3107  0.4290
  298MOL    C2624380   5.122   3.623   4.904  0.4647  0.0463  0.2092
  298MOL    O2724381   5.189   3.530   4.816  0.2077  0.1025  0.2477
  298MOL    H2824382   5.065   3.571   4.981 -2.1384  4.8719  1.7931
  298MOL    H2924383   5.201   3.683   4.949  1.5647 -0.6114 -0.8160
  298MOL    C3024384   5.289   3.464   4.882 -0.5817  1.1173  0.3971
  298MOL    O3124385   5.310   3.340   4.832  0.4559  0.1783  0.4567
  298MOL    H3224386   5.270   3.443   4.987  2.4265  1.2184  1.0131
  298MOL    H3324387   5.383   3.517   4.870  0.2989 -0.4081  0.3410
  298MOL    C3424388   5.213   3.247   4.869 -0.1353 -0.3897 -0.0701
  298MOL    O3524389   5.222   3.193   4.999 -0.1818  0.2428  0.4236
  298MOL    H3624390   5.198   3.173   4.790  0.2983 -0.4953 -0.0538
  298MOL    H3724391   5.118   3.302   4.869 -0.7785 -1.4571 -1.4054
  298MOL    C3824392   5.219   3.057   5.002  0.2279 -0.0592 -0.8599
  298MOL    O3924393   5.098   3.000   4.976 -0.0557  0.3061  0.1585
  298MOL    H4024394   5.227   3.023   5.105 -0.8523  1.7691 -0.1407
  298MOL    H4124395   5.300   3.015   4.942  0.2028  0.3939 -1.2114
  298MOL    C4224396   5.107   2.868   4.946  0.3282 -0.6945 -0.1056
  298MOL    O4324397   5.176   2.804   5.045  0.4482  0.4806 -0.8450
  298MOL    H4424398   5.143   2.849   4.845 -1.5163 -1.3789 -0.6671
  298MOL    H4524399   5.004   2.831   4.954 -0.7970  2.4160  0.3242
  298MOL    C4624400   5.217   2.679   5.005 -0.8969  0.3871 -0.5092
  298MOL    O4724401   5.327   2.687   4.921 -0.0200 -0.1094  0.3530
  298MOL    H4824402   5.137   2.618   4.963 -0.9063 -0.6743  0.9942
  298MOL    H4924403   5.242   2.619   5.093 -2.1726  0.8979  0.2182
  298MOL    C5024404   5.435   2.759   4.982  0.3918  0.4862 -0.1608
  298MOL    O5124405   5.512   2.674   5.061  0.3328  0.2891  0.6662
  298MOL    H5224406   5.398   2.846   5.036  0.6778 -0.4125  1.4964
  298MOL    H5324407   5.501   2.792   4.901  1.2509 -0.4149  0.1658
  298MOL    C5424408   5.566   2.561   4.998 -0.1877  0.1231 -0.4749
  298MOL    O5524409   5.672   2.590   4.908  0.0354 -0.6693 -0.4143
  298MOL    H5624410   5.484   2.505   4.954 -0.7558 -0.4400  1.2384
  298MOL    H5724411   5.607   2.502   5.081  1.3985  0.0264 -1.3195
  298MOL    C5824412   5.801   2.548   4.953 -0.5658  0.2037  0.2602
  298MOL    O5924413   5.803   2.405   4.955 -0.4201  0.0756 -0.2495
  298MOL    H6024414   5.817   2.595   5.050  1.7528 -0.3616  0.1853
  298MOL    H6124415   5.867   2.600   4.883 -1.2553  0.6860 -0.0393
  298MOL    C6224416   5.799   2.350   4.829 -0.1905  0.4168  0.3513
  298MOL    O6324417   5.910   2.373   4.749  0.4929  0.3349  0.1851
  298MOL    H6424418   5.709   2.378   4.774  1.2040  0.9269 -1.7388
  298MOL    H6524419   5.784   2.243   4.844  2.3622 -0.2702 -1.6073
  298MOL    C6624420   6.022   2.299   4.795  0.1759  0.4450 -0.2330
  298MOL    O6724421   6.009   2.163   4.768 -0.0615 -0.0652  0.2883
  298MOL    H6824422   6.032   2.307   4.904  2.0551  0.0102 -0.3497
  298MOL    H6924423   6.113   2.337   4.749 -0.1773  0.3513 -1.0101
  298MOL    C7024424   5.997   2.127   4.630 -0.1313  0.5927 -1.1303
  298MOL    O7124425   6.120   2.150   4.570 -0.1804 -0.4613  0.0915
  298MOL    H7224426   5.929   2.194   4.577 -0.4905 -1.2100 -3.0221
  298MOL    H7324427   5.966   2.026   4.605 -0.1502  0.7359 -1.6848
  298MOL    C7424428   6.223   2.057   4.602  0.0918  0.0102 -0.2299
  298MOL    O7524429   6.193   1.930   4.551  0.0271 -0.0401 -0.5801
  298MOL    H7624430   6.243   2.054   4.709  1.2714  0.8390 -0.4135
  298MOL    H7724431   6.321   2.089   4.566 -0.2226  0.9127 -0.2992
  298MOL    C7824432   6.191   1.934   4.410 -0.3511 -0.0782  0.0568
  298MOL    O7924433   6.170   1.806   4.347  0.3219 -0.8355 -0.2764
  298MOL    H8024434   6.295   1.964   4.394 -0.1055 -0.8357  0.1852
  298MOL    H8124435   6.112   2.002   4.379  0.1441  1.1565  1.3800
  298MOL    H8224436   6.080   1.780   4.362 -0.4468  0.9147 -1.7052
  299MOL     C124437   5.997   6.694   4.669  0.0343 -0.1726  0.9583
  299MOL     O224438   5.905   6.709   4.776 -0.1705 -0.0785 -0.1419
  299MOL     H324439   5.989   6.778   4.600 -1.2655  1.2970  2.8364
  299MOL     H424440   6.099   6.680   4.705  0.2408  1.6264  1.1277
  299MOL     H524441   5.974   6.619   4.593  0.9868 -1.2158  1.6775
  299MOL     C624442   5.767   6.721   4.747 -0.6215 -0.3515  0.0158
  299MOL     O724443   5.747   6.858   4.702 -0.3571  0.3434 -0.1772
  299MOL     H824444   5.705   6.690   4.832 -0.8737  1.5029  0.5253
  299MOL     H924445   5.749   6.656   4.662 -0.3357  0.9962 -1.0841
  299MOL    C1024446   5.756   6.952   4.802 -0.1246  0.8433 -0.6778
  299MOL    O1124447   5.660   6.936   4.909 -0.3719 -0.2958 -0.6300
  299MOL    H1224448   5.739   7.047   4.751 -2.3909  0.0108 -1.5473
  299MOL    H1324449   5.852   6.953   4.853 -0.5473 -0.6559  0.1718
  299MOL    C1424450   5.531   6.978   4.884  0.5092 -0.4386 -0.1482
  299MOL    O1524451   5.453   6.948   4.995 -0.4786  0.0285 -0.2926
  299MOL    H1624452   5.496   6.924   4.796  0.5121  1.4892 -1.3498
  299MOL    H1724453   5.532   7.084   4.862 -2.0216 -0.5411 -0.8632
  299MOL    C1824454   5.498   7.015   5.107  0.5593 -0.0409  0.0450
  299MOL    O1924455   5.425   7.136   5.112  0.8411 -0.6493 -0.6843
  299MOL    H2024456   5.601   7.050   5.116 -0.3333  2.2142  2.0326
  299MOL    H2124457   5.475   6.954   5.194 -0.3966 -1.2515 -1.0502
  299MOL    C2224458   5.305   7.115   5.181 -0.2121 -0.1020  0.2701
  299MOL    O2324459   5.329   7.099   5.317  0.2959 -0.3494 -0.6875
  299MOL    H2424460   5.252   7.030   5.138  2.2709 -0.6352 -1.9028
  299MOL    H2524461   5.247   7.205   5.165  0.1746  0.1294  0.1531
  299MOL    C2624462   5.396   7.207   5.377 -0.6854  0.7360  0.3173
  299MOL    O2724463   5.314   7.319   5.382 -0.0343 -0.0651  0.1739
  299MOL    H2824464   5.484   7.228   5.315 -1.9693 -0.5710 -2.0315
  299MOL    H2924465   5.421   7.176   5.478  0.8294  0.5825 -0.0898
  299MOL    C3024466   5.367   7.432   5.436 -0.1482 -0.6194  0.7921
  299MOL    O3124467   5.462   7.413   5.536 -0.2436 -0.2754  0.0587
  299MOL    H3224468   5.280   7.493   5.461 -0.1496 -0.2667 -0.0522
  299MOL    H3324469   5.415   7.475   5.348  0.0432 -3.8517 -0.7801
  299MOL    C3424470   5.411   7.420   5.668  0.1710  0.4865 -0.3559
  299MOL    O3524471   5.384   7.548   5.713 -0.0471 -0.4063 -0.1572
  299MOL    H3624472   5.473   7.362   5.738 -2.4728 -0.7007  1.0761
  299MOL    H3724473   5.317   7.365   5.676  1.2203 -1.0516  2.1739
  299MOL    C3824474   5.499   7.622   5.716 -0.0081  0.0360  0.6167
  299MOL    O3924475   5.509   7.717   5.617  0.3861  0.0807 -0.3545
  299MOL    H4024476   5.582   7.552   5.723  0.2643  0.2613 -0.2765
  299MOL    H4124477   5.498   7.672   5.813  1.0293 -0.6693  0.9980
  299MOL    C4224478   5.390   0.007   5.601  0.1364  0.7136  0.1000
  299MOL    O4324479   5.412   0.118   5.522  0.0554  0.1670 -0.2675
  299MOL    H4424480   5.359   0.039   5.700 -4.0600 -0.8178 -0.6057
  299MOL    H4524481   5.317   7.726   5.552  0.0309  0.6219  0.3789
  299MOL    C4624482   5.481   0.218   5.585 -0.4636  0.4042 -0.2525
  299MOL    O4724483   5.486   0.329   5.499  0.4669  0.2025  0.1926
  299MOL    H4824484   5.580   0.182   5.614  0.9408  4.4925  0.3602
  299MOL    H4924485   5.437   0.253   5.678 -1.1625  0.5630 -0.6411
  299MOL    C5024486   5.359   0.367   5.460  1.0453 -0.3974 -0.6237
  299MOL    O5124487   5.349   0.508   5.436  0.1602 -0.0438  0.6532
  299MOL    H5224488   5.285   0.344   5.537  3.0338  1.8631  2.0699
  299MOL    H5324489   5.344   0.305   5.372 -0.3375 -2.1196  0.7903
  299MOL    C5424490   5.413   0.545   5.321  0.4439  0.6174 -0.0755
  299MOL    O5524491   5.381   0.670   5.284 -0.4762 -0.2651  0.6523
  299MOL    H5624492   5.379   0.480   5.241 -0.0118  1.0229 -0.2113
  299MOL    H5724493   5.520   0.534   5.340 -0.0283 -1.8554  1.3186
  299MOL    C5824494   5.437   0.765   5.377 -0.1014  0.3528 -0.0202
  299MOL    O5924495   5.575   0.773   5.379  0.0382  0.1179  0.5836
  299MOL    H6024496   5.408   0.737   5.478 -1.0480  1.1196 -0.0710
  299MOL    H6124497   5.401   0.864   5.349  0.1570  0.1088 -1.2477
  299MOL    C6224498   5.623   0.867   5.283 -0.0444  0.7503 -0.2823
  299MOL    O6324499   5.628   0.989   5.343  0.4950  0.1230 -0.1601
  299MOL    H6424500   5.560   0.869   5.194 -0.4065  0.3858 -0.0329
  299MOL    H6524501   5.726   0.843   5.254 -0.5911 -1.3376 -0.5795
  299MOL    C6624502   5.728   1.017   5.430 -0.7330  0.2946 -0.0610
  299MOL    O6724503   5.846   1.065   5.373  0.2660 -0.4480 -0.1535
  299MOL    H6824504   5.746   0.939   5.504  1.0978 -0.5188 -1.3303
  299MOL    H6924505   5.687   1.095   5.495  2.4604  1.3149  0.8297
  299MOL    C7024506   5.940   0.965   5.337  0.1517 -0.2937  0.1981
  299MOL    O7124507   6.066   1.010   5.321 -0.0033 -0.5334 -0.6559
  299MOL    H7224508   5.907   0.927   5.240 -0.6022  1.4860 -0.2627
  299MOL    H7324509   5.958   0.897   5.420 -0.2821 -1.2895 -0.5017
  299MOL    C7424510   6.125   1.072   5.422  0.6150 -0.1800 -0.1333
  299MOL    O7524511   6.133   0.986   5.533  0.0970 -0.3138 -0.1686
  299MOL    H7624512   6.061   1.156   5.449 -1.2436 -0.8957 -2.2211
  299MOL    H7724513   6.213   1.117   5.376  0.4720  0.5468  0.2870
  299MOL    C7824514   6.251   0.904   5.534 -0.4745  0.4291  0.0905
  299MOL    O7924515   6.264   0.824   5.646  0.4218 -0.0833  0.7235
  299MOL    H8024516   6.342   0.963   5.526 -0.1080 -0.4560 -2.8827
  299MOL    H8124517   6.261   0.843   5.445  0.8243 -1.1455  1.2878
  299MOL    H8224518   6.294   0.739   5.619 -1.2762 -0.4644 -0.0175
  300MOL     C124519   3.193   1.877   6.200 -0.0914 -0.4419  0.1541
  300MOL     O224520   3.148   1.890   6.340  0.2237 -0.2448 -0.1518
  300MOL     H324521   3.296   1.843   6.187 -0.7153 -1.2750 -3.0959
  300MOL     H424522   3.124   1.826   6.134  1.5429 -0.6535 -1.4286
  300MOL     H524523   3.202   1.981   6.167 -1.2135 -0.1938  0.6173
  300MOL     C624524   3.019   1.927   6.350  0.6285 -0.4200  0.1441
  300MOL     O724525   2.931   1.833   6.293 -0.0359 -0.0147 -0.6113
  300MOL     H824526   2.996   2.025   6.309  3.2129 -0.4213 -1.4674
  300MOL     H924527   3.002   1.948   6.456  0.8310 -0.8985  0.2740
  300MOL    C1024528   2.942   1.715   6.367  0.4770 -0.6336  0.0911
  300MOL    O1124529   2.865   1.740   6.484 -0.2592 -0.0110 -0.0216
  300MOL    H1224530   3.048   1.691   6.379  1.1439  2.1329  0.0381
  300MOL    H1324531   2.904   1.638   6.300 -0.1350 -1.0324  0.8996
  300MOL    C1424532   2.864   1.632   6.564 -0.3199  0.2589  0.5320
  300MOL    O1524533   2.780   1.525   6.512 -0.2566 -0.0967 -0.4079
  300MOL    H1624534   2.820   1.662   6.659  0.3788  0.2546  0.8593
  300MOL    H1724535   2.963   1.597   6.594 -0.9161 -0.0534  2.1644
  300MOL    C1824536   2.661   1.512   6.579 -0.9231  0.3839 -0.1694
  300MOL    O1924537   2.678   1.470   6.714  0.6565  0.5593  0.1597
  300MOL    H2024538   2.619   1.430   6.520  0.7526  0.0397 -0.8916
  300MOL    H2124539   2.599   1.602   6.577 -1.0319  0.6666  5.8865
  300MOL    C2224540   2.770   1.361   6.723 -0.0627 -0.5363 -0.0085
  300MOL    O2324541   2.724   1.239   6.670  0.4945  0.3581 -0.2464
  300MOL    H2424542   2.765   1.343   6.831  0.0219  0.1135  0.1045
  300MOL    H2524543   2.876   1.383   6.711 -0.7783  1.8145 -2.2540
  300MOL    C2624544   2.799   1.191   6.563  0.0248  0.2972 -0.2215
  300MOL    O2724545   2.930   1.151   6.601 -0.0401 -0.6953 -1.1340
  300MOL    H2824546   2.808   1.271   6.489 -0.9516 -0.3571 -1.0580
  300MOL    H2924547   2.754   1.107   6.510  1.6398 -0.9197  0.2795
  300MOL    C3024548   2.936   1.019   6.648 -0.3041  0.3100  0.1950
  300MOL    O3124549   3.053   1.002   6.716 -0.3944  0.3321  0.2608
  300MOL    H3224550   2.927   0.942   6.571  1.0443 -0.4546  0.8015
  300MOL    H3324551   2.855   1.000   6.718  1.1080  1.9213  2.3136
  300MOL    C3424552   3.166   0.971   6.635  0.0425 -0.7493 -0.8297
  300MOL    O3524553   3.159   0.845   6.582  0.9673  0.0399  0.3910
  300MOL    H3624554   3.254   0.969   6.699  0.1766 -0.8731 -1.0196
  300MOL    H3724555   3.185   1.042   6.555  1.0409 -0.7504 -0.6036
  300MOL    C3824556   3.277   0.794   6.523  0.4114  0.0064 -0.9483
  300MOL    O3924557   3.363   0.750   6.621  0.0487  0.5017  0.1489
  300MOL    H4024558   3.336   0.872   6.474 -0.7536  0.5609 -1.4841
  300MOL    H4124559   3.263   0.714   6.451 -2.0078  0.9383 -1.5592
  300MOL    C4224560   3.305   0.645   6.691 -0.3749  0.6910 -0.4013
  300MOL    O4324561   3.327   0.528   6.626 -0.2438  0.3508  0.0317
  300MOL    H4424562   3.199   0.663   6.709 -0.7825 -1.4812 -0.4120
  300MOL    H4524563   3.360   0.638   6.784 -1.6399  0.9556  0.3788
  300MOL    C4624564   3.457   0.483   6.631 -0.1302 -0.3263  0.6003
  300MOL    O4724565   3.483   0.399   6.528  0.3975  0.0159  0.4657
  300MOL    H4824566   3.481   0.427   6.721 -1.7470 -0.9819  0.6504
  300MOL    H4924567   3.535   0.559   6.623 -0.0870 -0.5689 -1.5013
  300MOL    C5024568   3.423   0.274   6.529 -0.6351  0.2820  0.9108
  300MOL    O5124569   3.474   0.188   6.626  0.3470  0.7858  0.4528
  300MOL    H5224570   3.438   0.230   6.431  0.8257 -0.2235  1.3428
  300MOL    H5324571   3.314   0.283   6.532 -0.8435 -1.2572 -1.0323
  300MOL    C5424572   3.412   0.060   6.630  0.0262 -0.9764 -0.2179
  300MOL    O5524573   3.456   7.762   6.524 -0.3950 -0.2719 -0.0398
  300MOL    H5624574   3.304   0.074   6.631  0.5251  3.7052 -1.4619
  300MOL    H5724575   3.443   0.005   6.720  4.3695  0.9224 -0.4522
  300MOL    C5824576   3.591   7.719   6.534  0.6803 -0.1057 -0.4120
  300MOL    O5924577   3.648   7.702   6.408 -0.0716 -0.3771 -0.8239
  300MOL    H6024578   3.595   7.621   6.582  1.2314  0.0309 -0.1805
  300MOL    H6124579   3.650   0.005   6.593  2.3827  1.0990 -3.4312
  300MOL    C6224580   3.605   7.591   6.336  0.4722  0.0559  0.6616
  300MOL    O6324581   3.653   7.476   6.394 -0.2149  0.2215 -0.0959
  300MOL    H6424582   3.637   7.593   6.232  0.1519  1.6654  0.5744
  300MOL    H6524583   3.496   7.594   6.335  0.4617  0.7035 -2.0295
  300MOL    C6624584   3.564   7.366   6.376 -0.6491  0.1088 -0.6963
  300MOL    O6724585   3.569   7.329   6.243  0.1408 -0.0886 -0.5824
  300MOL    H6824586   3.463   7.393   6.405 -0.6629  0.0652 -0.7043
  300MOL    H6924587   3.580   7.282   6.444 -1.6124 -0.9622 -1.7542
  300MOL    C7024588   3.686   7.260   6.216  0.2188  0.9713 -0.0015
  300MOL    O7124589   3.710   7.153   6.309 -0.5690 -0.2492  0.3765
  300MOL    H7224590   3.773   7.326   6.218  0.3451  0.7667  2.6578
  300MOL    H7324591   3.682   7.220   6.115  0.4651 -3.8774  1.7581
  300MOL    C7424592   3.625   7.043   6.291  0.6735 -0.1348 -0.6985
  300MOL    O7524593   3.660   6.935   6.374 -0.4035  0.8118  0.1451
  300MOL    H7624594   3.636   7.011   6.188 -1.3572  0.3006 -1.0753
  300MOL    H7724595   3.525   7.082   6.309  1.0512  0.9983 -1.0045
  300MOL    C7824596   3.641   6.955   6.512 -1.1481 -0.6061 -0.0295
  300MOL    O7924597   3.639   6.838   6.586  0.0200 -0.0253  0.2775
  300MOL    H8024598   3.541   6.999   6.517 -0.8502 -0.0048  0.8295
  300MOL    H8124599   3.716   7.023   6.552 -0.7313 -0.0240 -1.7311
  300MOL    H8224600   3.574   6.777   6.556 -0.7629  0.9061  0.0701
  301MOL     C124601   1.794   5.596   7.253  0.0942  0.1199  0.3659
  301MOL     O224602   1.727   5.706   7.305 -0.0999  0.2958 -0.6855
  301MOL     H324603   1.896   5.602   7.290 -0.2302  0.5751  1.1920
  301MOL     H424604   1.749   5.504   7.291  0.4117  0.6469  2.0346
  301MOL     H524605   1.795   5.607   7.145 -0.5283  1.3744  0.4852
  301MOL     C624606   1.605   5.740   7.255  0.1041  0.0813 -0.2079
  301MOL     O724607   1.628   5.796   7.131 -0.9708 -0.3139  0.5371
  301MOL     H824608   1.564   5.820   7.317 -2.5116 -1.5145  0.1799
  301MOL     H924609   1.534   5.658   7.259 -1.0908  1.0298 -1.4441
  301MOL    C1024610   1.528   5.876   7.096 -0.5376  0.1754 -0.4563
  301MOL    O1124611   1.553   6.009   7.127 -0.4094 -0.0754 -0.0225
  301MOL    H1224612   1.430   5.852   7.137  0.9616  1.4272  4.2098
  301MOL    H1324613   1.510   5.870   6.989  0.6723 -1.8830 -0.5665
  301MOL    C1424614   1.654   6.057   7.051  0.1239 -0.2563  0.0585
  301MOL    O1524615   1.660   6.191   7.074 -0.2246  0.0055  0.1588
  301MOL    H1624616   1.627   6.047   6.946 -1.3661 -1.5859  0.5558
  301MOL    H1724617   1.746   6.002   7.072  0.2192 -0.9906 -2.1485
  301MOL    C1824618   1.717   6.219   7.196 -0.3867  0.7783  0.2126
  301MOL    O1924619   1.663   6.328   7.255 -0.1641 -0.3643  0.4205
  301MOL    H2024620   1.823   6.242   7.184 -0.0480  0.4234  2.4151
  301MOL    H2124621   1.705   6.136   7.266 -1.4774  0.6521 -0.0982
  301MOL    C2224622   1.529   6.303   7.300  0.1751 -0.5146 -0.1712
  301MOL    O2324623   1.493   6.404   7.390 -0.6025 -0.1988 -0.1888
  301MOL    H2424624   1.507   6.208   7.351 -0.1560 -1.0902 -1.3744
  301MOL    H2524625   1.459   6.309   7.216 -0.5418 -2.6177  0.2292
  301MOL    C2624626   1.576   6.409   7.509  0.0539 -0.1293 -0.2394
  301MOL    O2724627   1.514   6.467   7.619  0.2592 -0.2084  0.0999
  301MOL    H2824628   1.670   6.457   7.481  0.0895  0.4290  0.8287
  301MOL    H2924629   1.598   6.305   7.533  2.6840  0.7738  1.4925
  301MOL    C3024630   1.491   6.602   7.608  0.7064 -0.5810 -0.8897
  301MOL    O3124631   1.603   6.678   7.602 -0.7762  0.7331 -0.2435
  301MOL    H3224632   1.431   6.641   7.691 -1.6951 -2.4335 -1.6797
  301MOL    H3324633   1.430   6.624   7.520  1.0484  3.2290 -0.2591
  301MOL    C3424634   1.668   6.683   7.723 -0.3005 -0.4533 -0.9448
  301MOL    O3524635   1.631   6.797   0.006 -0.3651 -0.0439  0.1858
  301MOL    H3624636   1.775   6.686   7.701  0.2098  2.0358  1.6061
  301MOL    H3724637   1.639   6.600   0.004  0.2110  0.4395  0.4348
  301MOL    C3824638   1.665   6.916   7.712  0.4705 -0.5354 -0.2543
  301MOL    O3924639   1.779   6.975   7.767  0.1238  0.6125  0.3424
  301MOL    H4024640   1.575   6.975   7.700  0.8105  0.2526  0.9761
  301MOL    H4124641   1.693   6.896   7.608  0.6205 -0.3478 -0.2515
  301MOL    C4224642   1.746   7.069   0.081  0.3861  0.1727  0.3466
  301MOL    O4324643   1.796   7.196   0.040 -0.1358  0.3273 -0.1400
  301MOL    H4424644   1.781   7.032   0.178 -1.5535  3.7092  2.5016
  301MOL    H4524645   1.639   7.085   0.090  0.4181 -0.4179  1.8862
  301MOL    C4624646   1.733   7.302   0.105 -0.1036 -0.1185 -0.1363
  301MOL    O4724647   1.607   7.324   0.047  0.3187  0.7883 -0.3759
  301MOL    H4824648   1.803   7.385   0.094 -1.6911  1.4085  1.0871
  301MOL    H4924649   1.714   7.298   0.213  0.1903  2.3294  0.0293
  301MOL    C5024650   1.607   7.406   7.717 -0.1605 -0.0390  0.0514
  301MOL    O5124651   1.610   7.542   7.752 -0.0451  0.1550 -0.2877
  301MOL    H5224652   1.515   7.387   7.661  0.8783 -1.2458 -1.2850
  301MOL    H5324653   1.684   7.389   7.642  1.6587 -0.3118  1.9548
  301MOL    C5424654   1.510   7.567   0.055 -0.4557 -0.1348 -0.4372
  301MOL    O5524655   1.515   7.698   0.091 -0.4132 -0.0284 -0.7413
  301MOL    H5624656   1.522   7.505   0.144  0.9622  2.4953  1.2497
  301MOL    H5724657   1.412   7.545   0.011 -0.2690  2.1038 -2.0114
  301MOL    C5824658   1.520   0.003   7.763  0.2228 -0.2608  0.5050
  301MOL    O5924659   1.497   0.130   0.031  0.1509 -0.0289  0.4665
  301MOL    H6024660   1.455   7.762   7.680 -1.0896  1.7202  0.9310
  301MOL    H6124661   1.623   7.776   7.729  0.1531  0.7102 -0.0099
  301MOL    C6224662   1.364   0.155   0.047  0.0628 -0.3608  0.2226
  301MOL    O6324663   1.309   0.192   7.705 -0.1203  0.5568 -0.0783
  301MOL    H6424664   1.351   0.243   0.111  0.4371 -0.4389  0.4029
  301MOL    H6524665   1.305   0.074   0.090  0.5645 -1.3990 -1.0397
  301MOL    C6624666   1.314   0.326   7.676 -1.1416  0.0910 -0.4529
  301MOL    O6724667   1.228   0.408   7.753 -0.3465 -0.4137 -0.1166
  301MOL    H6824668   1.282   0.335   7.573 -2.2208  0.2414 -0.1052
  301MOL    H6924669   1.414   0.369   7.689 -0.1033 -1.9778 -1.4476
  301MOL    C7024670   1.094   0.385   7.726  0.0464  0.2625  0.4011
  301MOL    O7124671   1.060   0.435   7.599  0.0657 -0.4000 -0.3956
  301MOL    H7224672   1.034   0.437   0.016 -0.7807  1.3235 -0.9982
  301MOL    H7324673   1.076   0.277   7.726  0.4264  0.1501 -2.5044
  301MOL    C7424674   1.027   0.576   7.601 -0.7587 -0.1140  0.2938
  301MOL    O7524675   0.898   0.599   7.646 -0.1274  0.2753 -0.5400
  301MOL    H7624676   1.041   0.625   7.505 -2.0014  0.8450  0.5828
  301MOL    H7724677   1.084   0.637   7.671 -0.6078  0.4613 -0.3349
  301MOL    C7824678   0.802   0.536   7.570  0.0759  0.1475  0.4821
  301MOL    O7924679   0.683   0.536   7.640  0.4591 -0.5511  0.3994
  301MOL    H8024680   0.834   0.432   7.567  1.1439  0.5036 -0.4809
  301MOL    H8124681   0.784   0.573   7.469 -0.5920 -0.8807  0.2160
  301MOL    H8224682   0.645   0.622   7.640  1.0960 -0.1408  4.6227
  302MOL     C124683   3.758   7.445   3.045  0.5308 -0.4280 -0.3162
  302MOL     O224684   3.711   7.318   3.012  0.3546  0.2963  0.3894
  302MOL     H324685   3.829   7.451   3.128 -0.4719 -1.1213  0.5978
  302MOL     H424686   3.794   7.500   2.957  0.0791  0.3796  0.0050
  302MOL     H524687   3.683   7.505   3.095  2.2315  0.5795  1.1075
  302MOL     C624688   3.785   7.258   2.905 -0.0086 -0.3792 -0.0072
  302MOL     O724689   3.907   7.209   2.936  0.0534 -0.2878 -0.3659
  302MOL     H824690   3.797   7.318   2.814 -1.8939 -0.3034 -0.2326
  302MOL     H924691   3.731   7.175   2.861 -0.7941 -0.1538  0.5173
  302MOL    C1024692   3.899   7.078   2.982 -0.3105  0.5348 -0.3138
  302MOL    O1124693   3.910   6.975   2.888 -0.2195 -0.0710 -0.0472
  302MOL    H1224694   3.802   7.053   3.025 -1.7388  0.0701 -3.6928
  302MOL    H1324695   3.983   7.076   3.052 -0.2057  0.7535 -0.4336
  302MOL    C1424696   4.034   6.974   2.827  0.1449  0.1218 -0.5080
  302MOL    O1524697   4.148   6.971   2.915 -0.1385 -0.1252 -0.3814
  302MOL    H1624698   4.040   7.064   2.766 -2.9653 -0.1891 -1.3287
  302MOL    H1724699   4.035   6.894   2.753 -0.2683  1.3845 -1.9081
  302MOL    C1824700   4.263   6.937   2.842 -0.5669 -0.0198  0.1008
  302MOL    O1924701   4.264   6.796   2.814  0.3793  0.3485 -0.0363
  302MOL    H2024702   4.354   6.961   2.896  0.7055  0.3012 -2.1677
  302MOL    H2124703   4.264   7.000   2.754 -1.4513  0.3540  0.3457
  302MOL    C2224704   4.283   6.721   2.934 -0.3448  0.6396  0.5263
  302MOL    O2324705   4.410   6.718   2.979  0.0016 -0.1305  0.5580
  302MOL    H2424706   4.239   6.623   2.919  0.5572 -0.0029  1.8933
  302MOL    H2524707   4.222   6.771   3.010 -0.3547 -0.2891  1.1492
  302MOL    C2624708   4.485   6.626   2.901 -0.5762 -0.2720  0.1091
  302MOL    O2724709   4.616   6.642   2.933  0.1217  0.1733  0.1608
  302MOL    H2824710   4.471   6.633   2.793  1.1324 -0.5263 -0.1435
  302MOL    H2924711   4.467   6.525   2.937  0.4935 -2.2205 -4.4171
  302MOL    C3024712   4.680   6.750   2.870  0.0068  0.3937  0.8576
  302MOL    O3124713   4.680   6.735   2.734 -0.3104 -0.2395  0.7436
  302MOL    H3224714   4.781   6.735   2.908  1.1903  3.9270 -0.6397
  302MOL    H3324715   4.653   6.849   2.906 -0.7000  0.1341  1.0337
  302MOL    C3424716   4.723   6.855   2.662 -0.1738  0.1836  0.1025
  302MOL    O3524717   4.609   6.927   2.624  0.4508  0.2650 -0.1275
  302MOL    H3624718   4.765   6.822   2.567  0.5265 -0.3388  0.5895
  302MOL    H3724719   4.796   6.914   2.717 -0.8139  1.1782 -0.1099
  302MOL    C3824720   4.515   6.855   2.553  0.6247 -0.5202 -0.3552
  302MOL    O3924721   4.467   6.921   2.445  0.1305 -0.5028  0.1246
  302MOL    H4024722   4.432   6.842   2.622 -0.9655  1.9002 -1.7850
  302MOL    H4124723   4.546   6.757   2.516 -1.4852 -1.0488 -0.7532
  302MOL    C4224724   4.550   6.905   2.333 -0.5889 -0.5480  0.5516
  302MOL    O4324725   4.553   7.027   2.261 -0.2088  0.3798  0.2456
  302MOL    H4424726   4.514   6.822   2.273  2.1025 -1.2176 -0.1933
  302MOL    H4524727   4.655   6.885   2.357 -0.5374 -2.0328 -0.8202
  302MOL    C4624728   4.435   7.033   2.188  0.0596  0.2336  0.0074
  302MOL    O4724729   4.439   6.946   2.079 -0.1110  0.8063  0.6893
  302MOL    H4824730   4.414   7.133   2.150 -2.3380  0.0547  0.7529
  302MOL    H4924731   4.348   7.004   2.247 -0.1208 -1.6316 -1.1133
  302MOL    C5024732   4.516   6.993   1.970  0.4451  0.2367 -0.1839
  302MOL    O5124733   4.465   7.104   1.917 -0.4091 -0.4017  0.9366
  302MOL    H5224734   4.526   6.908   1.903  0.8883 -0.3741  0.6485
  302MOL    H5324735   4.621   7.010   1.995  0.3376  0.0034  0.4255
  302MOL    C5424736   4.347   7.075   1.843  0.0243 -0.0612 -0.6613
  302MOL    O5524737   4.368   7.006   1.724 -0.4711 -0.0583 -0.7307
  302MOL    H5624738   4.302   7.171   1.817  1.8282  0.6552 -1.2282
  302MOL    H5724739   4.268   7.030   1.903 -0.4136 -0.2751 -1.3901
  302MOL    C5824740   4.446   7.079   1.632 -0.2915  0.1101 -0.0234
  302MOL    O5924741   4.374   7.180   1.568 -0.7939 -0.7941  0.4398
  302MOL    H6024742   4.493   7.011   1.562 -0.0294 -0.6449  0.8728
  302MOL    H6124743   4.532   7.119   1.685 -0.5903  0.8917 -0.1208
  302MOL    C6224744   4.305   7.130   1.453 -0.6464 -0.0242  0.3098
  302MOL    O6324745   4.386   7.102   1.347  0.3345  0.1276  1.0632
  302MOL    H6424746   4.228   7.201   1.423  0.9256  1.4114 -0.4091
  302MOL    H6524747   4.247   7.040   1.476 -0.2158  0.0297  1.6051
  302MOL    C6624748   4.424   7.218   1.275  0.3798 -0.2984  0.6768
  302MOL    O6724749   4.314   7.289   1.228 -0.1924 -0.0606  0.3047
  302MOL    H6824750   4.480   7.178   1.190  1.0622  0.3487  0.8166
  302MOL    H6924751   4.471   7.289   1.343 -1.2400 -1.3686  2.9654
  302MOL    C7024752   4.261   7.219   1.121  0.1669  0.2021 -0.5514
  302MOL    O7124753   4.331   7.234   1.002  0.6136  0.1409  0.7287
  302MOL    H7224754   4.160   7.260   1.117  0.0154 -0.2223 -1.1390
  302MOL    H7324755   4.270   7.112   1.137  4.6763  0.4686 -0.5846
  302MOL    C7424756   4.322   7.369   0.956 -0.1559 -0.0928  0.5871
  302MOL    O7524757   4.376   7.373   0.824  0.0577 -0.1044 -1.0495
  302MOL    H7624758   4.358   7.438   1.032 -0.1193  2.0815 -1.3285
  302MOL    H7724759   4.217   7.394   0.941  0.1193  0.8673  0.2311
  302MOL    C7824760   4.513   7.352   0.818  0.6013  0.0712  0.1904
  302MOL    O7924761   4.565   7.351   0.680 -0.0215 -0.1110 -0.5719
  302MOL    H8024762   4.535   7.253   0.857  4.5923  0.0605 -1.8923
  302MOL    H8124763   4.562   7.429   0.878  0.6680  1.6097 -1.7876
  302MOL    H8224764   4.520   7.282   0.634 -2.2332  0.4350  0.6865
  303MOL     C124765   5.285   4.775   5.157 -0.4197 -0.4632 -0.5838
  303MOL     O224766   5.248   4.630   5.155  0.1644  0.2311 -0.3811
  303MOL     H324767   5.199   4.839   5.178 -0.4297 -1.1619  1.6520
  303MOL     H424768   5.369   4.797   5.223 -0.7390 -2.6740  0.5920
  303MOL     H524769   5.317   4.800   5.056 -2.8672  0.2776 -1.2044
  303MOL     C624770   5.225   4.581   5.288 -0.5355 -0.5515  0.3324
  303MOL     O724771   5.129   4.657   5.353 -0.0307  0.0140  0.0636
  303MOL     H824772   5.313   4.580   5.353 -1.5685 -0.9325  1.7574
  303MOL     H924773   5.188   4.481   5.268  0.1324 -0.4718 -1.4308
  303MOL    C1024774   5.001   4.627   5.300  0.1373 -0.0821  0.3884
  303MOL    O1124775   4.903   4.710   5.347 -0.2179 -0.2464  0.2335
  303MOL    H1224776   4.976   4.522   5.314 -0.9983 -0.0885 -1.5342
  303MOL    H1324777   4.999   4.648   5.194  0.3306 -0.6175  0.2786
  303MOL    C1424778   4.886   4.683   5.480 -0.5261  0.9300 -1.1315
  303MOL    O1524779   4.784   4.593   5.503 -0.8733  0.2270  0.0937
  303MOL    H1624780   4.862   4.779   5.525 -1.8846  0.0740 -0.0190
  303MOL    H1724781   4.971   4.659   5.545 -1.3731  1.0206  0.0275
  303MOL    C1824782   4.726   4.608   5.628 -0.2776  0.4065 -0.0316
  303MOL    O1924783   4.818   4.561   5.720  0.3049  0.4872 -0.2892
  303MOL    H2024784   4.645   4.536   5.622 -1.3344  1.6309 -0.8741
  303MOL    H2124785   4.680   4.707   5.631  1.2206  1.0973  0.7615
  303MOL    C2224786   4.777   4.577   5.852 -0.0623 -0.2676  0.2178
  303MOL    O2324787   4.677   4.485   5.872  0.1599 -0.4824  0.3639
  303MOL    H2424788   4.735   4.677   5.861  1.9826  0.6157  0.2667
  303MOL    H2524789   4.864   4.559   5.916  0.4544 -1.2461 -0.7406
  303MOL    C2624790   4.728   4.353   5.889 -0.3882 -0.2050  0.3179
  303MOL    O2724791   4.625   4.262   5.882 -0.3803 -0.4419 -0.7165
  303MOL    H2824792   4.764   4.350   5.992  1.9798  1.6572 -0.4277
  303MOL    H2924793   4.797   4.332   5.808  0.6473  2.1157  0.5480
  303MOL    C3024794   4.562   4.266   5.763  0.4276  0.1908  0.2114
  303MOL    O3124795   4.469   4.156   5.751  0.5348 -0.2439  0.2149
  303MOL    H3224796   4.632   4.258   5.680  0.0069  2.8003 -0.4447
  303MOL    H3324797   4.510   4.361   5.751 -0.5336 -0.4832 -1.1822
  303MOL    C3424798   4.372   4.174   5.850 -0.3971  1.3415 -0.0920
  303MOL    O3524799   4.268   4.082   5.820 -0.0012  0.2838  0.4161
  303MOL    H3624800   4.330   4.274   5.860 -1.9349  0.6646  0.3275
  303MOL    H3724801   4.416   4.150   5.947 -0.8428 -1.4351 -0.5194
  303MOL    C3824802   4.164   4.082   5.911 -0.6197  0.6716 -0.1592
  303MOL    O3924803   4.216   4.019   6.028 -0.4216 -0.1912  0.2720
  303MOL    H4024804   4.088   4.018   5.868  0.6461  1.4594 -3.7851
  303MOL    H4124805   4.125   4.183   5.928 -0.7856  1.1082 -2.8862
  303MOL    C4224806   4.113   3.973   6.115  0.0537  0.1053  0.1055
  303MOL    O4324807   4.021   3.890   6.053 -0.7977 -0.0327 -0.7869
  303MOL    H4424808   4.056   4.055   6.159  1.2806 -0.3829  2.7087
  303MOL    H4524809   4.166   3.918   6.193 -1.0402 -0.0765  0.7295
  303MOL    C4624810   4.058   3.759   6.046  0.0705  0.6673  0.1507
  303MOL    O4724811   4.048   3.686   6.163  0.5176 -0.1504  0.2036
  303MOL    H4824812   4.152   3.752   5.992 -0.2100 -0.5650 -0.1966
  303MOL    H4924813   3.989   3.712   5.975  0.3498  0.1484  0.2202
  303MOL    C5024814   4.112   3.563   6.158  0.7663 -0.3127 -0.6354
  303MOL    O5124815   4.256   3.579   6.172  0.1067  0.1257 -0.1522
  303MOL    H5224816   4.075   3.497   6.079  0.6457  0.4300 -1.2003
  303MOL    H5324817   4.089   3.498   6.243 -0.6206 -0.2683 -0.9671
  303MOL    C5424818   4.311   3.451   6.162 -0.0280  0.1820  0.3399
  303MOL    O5524819   4.306   3.412   6.028 -0.1385  0.2563 -0.0054
  303MOL    H5624820   4.277   3.377   6.234 -2.5942  0.8997 -0.0890
  303MOL    H5724821   4.412   3.473   6.197 -0.1953  3.1968 -0.8797
  303MOL    C5824822   4.289   3.272   6.009  0.9956  0.0733 -0.1535
  303MOL    O5924823   4.213   3.209   6.104  0.9434  0.2217  0.1821
  303MOL    H6024824   4.391   3.234   6.007  1.5439  1.4519  1.1596
  303MOL    H6124825   4.245   3.263   5.909 -1.0649  3.3823  0.3661
  303MOL    C6224826   4.221   3.065   6.096 -0.0494  0.1745  0.2756
  303MOL    O6324827   4.347   3.020   6.127 -0.0537  0.6951  0.4247
  303MOL    H6424828   4.200   3.034   5.994 -3.7075 -1.0647  1.3335
  303MOL    H6524829   4.142   3.021   6.158  0.7523 -0.0906  1.1284
  303MOL    C6624830   4.393   3.050   6.258 -0.1206  0.3319  0.0594
  303MOL    O6724831   4.344   2.959   6.352 -0.4735  0.3955  0.0326
  303MOL    H6824832   4.369   3.154   6.280  1.0179  0.6614 -0.2023
  303MOL    H6924833   4.502   3.049   6.252 -0.1352 -0.3174 -0.1964
  303MOL    C7024834   4.435   2.851   6.369  0.2205  0.3329 -0.3559
  303MOL    O7124835   4.370   2.745   6.425  0.0994 -0.4739  0.0787
  303MOL    H7224836   4.516   2.869   6.440 -0.9183 -2.0980  1.6309
  303MOL    H7324837   4.477   2.832   6.271  5.4316  0.1680  1.7540
  303MOL    C7424838   4.284   2.694   6.336 -0.0694  0.0383  0.0565
  303MOL    O7524839   4.207   2.589   6.396 -0.6699 -0.3150 -0.6276
  303MOL    H7624840   4.333   2.646   6.251 -1.3801 -2.0049  0.3983
  303MOL    H7724841   4.212   2.769   6.303 -2.7726 -1.7317  1.7260
  303MOL    C7824842   4.280   2.483   6.445  0.8072  0.2305 -0.1953
  303MOL    O7924843   4.188   2.389   6.496  0.6828  0.4622 -0.0232
  303MOL    H8024844   4.353   2.512   6.520 -0.7403  0.4810  1.2363
  303MOL    H8124845   4.329   2.430   6.364  1.4805  1.0846 -0.3621
  303MOL    H8224846   4.119   2.378   6.432  0.0307  0.9927  0.5789
  304MOL     C124847   1.007   6.645   0.652  0.3613 -0.5139  0.6691
  304MOL     O224848   0.874   6.636   0.598  0.5448 -0.7416  0.1211
  304MOL     H324849   1.076   6.574   0.606 -1.4821 -0.5619 -2.1269
  304MOL     H424850   1.043   6.746   0.633 -0.2387 -0.7621 -2.0373
  304MOL     H524851   1.006   6.637   0.761  2.2285  3.0756  1.0155
  304MOL     C624852   0.805   6.522   0.636  0.1489  0.0589  0.2678
  304MOL     O724853   0.796   6.521   0.771  0.0629 -0.2465  1.0208
  304MOL     H824854   0.862   6.437   0.596  0.5062 -0.0776  1.0621
  304MOL     H924855   0.709   6.530   0.584 -0.2901 -0.8070  0.9302
  304MOL    C1024856   0.722   6.409   0.817 -0.1919  0.1289  0.5399
  304MOL    O1124857   0.789   6.290   0.787  0.5825 -0.2675  0.7346
  304MOL    H1224858   0.626   6.408   0.765 -0.1489 -0.9474  0.4705
  304MOL    H1324859   0.706   6.421   0.924  1.3248 -0.2791  0.8199
  304MOL    C1424860   0.916   6.285   0.841 -0.0170 -0.5862  0.4025
  304MOL    O1524861   0.991   6.184   0.781 -0.1676  0.6452 -0.5958
  304MOL    H1624862   0.911   6.249   0.944  0.7213 -1.9109 -0.0184
  304MOL    H1724863   0.973   6.378   0.835 -0.2834 -0.4855 -0.8501
  304MOL    C1824864   0.925   6.056   0.790 -0.0135  0.1448  0.5339
  304MOL    O1924865   0.947   6.001   0.918 -0.4267  0.6508 -0.1613
  304MOL    H2024866   0.981   5.991   0.722  0.0845 -2.1274  2.7201
  304MOL    H2124867   0.821   6.055   0.759  0.5409  0.6979 -1.4413
  304MOL    C2224868   1.077   5.972   0.950 -0.6692  0.0819 -0.3527
  304MOL    O2324869   1.143   5.887   0.868  0.1596  0.0103  0.3685
  304MOL    H2424870   1.074   5.921   1.046 -0.9759  0.4345 -0.1715
  304MOL    H2524871   1.125   6.069   0.964 -0.9358 -0.0709  1.7736
  304MOL    C2624872   1.087   5.756   0.850  0.4625 -0.6055 -0.0133
  304MOL    O2724873   1.108   5.681   0.973 -0.3577 -0.1155 -0.4427
  304MOL    H2824874   1.134   5.713   0.761 -0.5287 -0.1203 -0.7817
  304MOL    H2924875   0.980   5.758   0.835 -0.0766 -1.6253  3.2098
  304MOL    C3024876   1.241   5.640   0.982  1.1310  0.0340 -1.0809
  304MOL    O3124877   1.247   5.539   1.087 -0.5969  0.2994  0.5397
  304MOL    H3224878   1.295   5.732   1.001  0.8258  0.5241 -2.5301
  304MOL    H3324879   1.273   5.596   0.887  0.7044 -0.5865 -0.9435
  304MOL    C3424880   1.259   5.595   1.214  0.6249  0.0308 -0.1285
  304MOL    O3524881   1.389   5.625   1.243  0.5204  0.6417 -0.7366
  304MOL    H3624882   1.217   5.527   1.287  0.7070  0.9136  0.7513
  304MOL    H3724883   1.194   5.683   1.220 -0.8867 -1.1080  0.3620
  304MOL    C3824884   1.463   5.509   1.268  0.8438 -0.9561 -0.3612
  304MOL    O3924885   1.443   5.450   1.389 -0.3379 -0.0883 -0.0164
  304MOL    H4024886   1.569   5.533   1.260  0.7243 -0.2103  0.1762
  304MOL    H4124887   1.462   5.438   1.186  1.8111 -0.2686 -0.9890
  304MOL    C4224888   1.470   5.533   1.502 -0.3370  0.6010  0.2697
  304MOL    O4324889   1.608   5.562   1.524  0.0188 -0.1363  0.8306
  304MOL    H4424890   1.439   5.481   1.593  1.8343 -0.9899  0.1251
  304MOL    H4524891   1.410   5.624   1.490 -0.2032  0.1815 -4.0806
  304MOL    C4624892   1.681   5.440   1.526  0.2393 -0.0295 -0.2640
  304MOL    O4724893   1.673   5.373   1.649 -0.4142 -0.2323  0.4860
  304MOL    H4824894   1.784   5.463   1.503  0.3260 -0.9640 -0.8121
  304MOL    H4924895   1.644   5.369   1.452 -2.5429  1.0524  0.0211
  304MOL    C5024896   1.748   5.433   1.744  0.2984  0.0345  0.2397
  304MOL    O5124897   1.884   5.426   1.714  0.1405  1.0856  0.0847
  304MOL    H5224898   1.728   5.381   1.837 -0.6565 -2.3539 -1.2523
  304MOL    H5324899   1.711   5.535   1.756  0.0741 -0.1466  1.0976
  304MOL    C5424900   1.966   5.428   1.825  0.6266  0.4066  0.2380
  304MOL    O5524901   1.961   5.549   1.891 -0.3938 -0.0214  0.4355
  304MOL    H5624902   2.062   5.406   1.778 -0.3176 -0.2958 -1.3865
  304MOL    H5724903   1.951   5.337   1.882 -1.3781 -0.6216 -1.8700
  304MOL    C5824904   2.056   5.634   1.847 -0.0319 -0.5605  0.3515
  304MOL    O5924905   2.185   5.590   1.867  0.9156 -0.5441  0.0079
  304MOL    H6024906   2.054   5.730   1.899  1.2036 -0.3229 -0.0225
  304MOL    H6124907   2.027   5.667   1.747 -2.1238 -1.3885  0.6573
  304MOL    C6224908   2.225   5.581   1.993 -0.3907  0.2038  0.1686
  304MOL    O6324909   2.262   5.709   2.041  0.1193  0.0089 -0.1870
  304MOL    H6424910   2.308   5.511   2.006 -1.5638 -1.2553 -0.0769
  304MOL    H6524911   2.146   5.542   2.058  0.0338  0.2932  0.7472
  304MOL    C6624912   2.390   5.749   1.998 -0.7116 -0.3836  0.2850
  304MOL    O6724913   2.491   5.684   2.074 -0.4559  0.3164 -0.1454
  304MOL    H6824914   2.391   5.856   2.022 -1.6658 -0.3946  0.3889
  304MOL    H6924915   2.401   5.735   1.891  0.0742  3.1433 -0.1649
  304MOL    C7024916   2.615   5.727   2.049 -0.2899  0.1984 -0.2423
  304MOL    O7124917   2.642   5.847   2.123  0.3849 -0.1976 -0.1237
  304MOL    H7224918   2.631   5.748   1.943  1.0421  0.4871  0.0113
  304MOL    H7324919   2.688   5.650   2.071  3.0955  3.0862 -0.8529
  304MOL    C7424920   2.680   5.817   2.251  0.0011 -0.3130 -0.1079
  304MOL    O7524921   2.819   5.816   2.259 -0.0113  0.5902 -0.3938
  304MOL    H7624922   2.632   5.721   2.273 -0.2761 -0.5543 -1.6530
  304MOL    H7724923   2.628   5.882   2.320 -0.0889 -0.7915  0.2798
  304MOL    C7824924   2.874   5.936   2.221 -0.4824  0.2916  0.2229
  304MOL    O7924925   3.017   5.934   2.219  0.1386  0.4348 -0.2104
  304MOL    H8024926   2.848   6.001   2.305  2.0431  1.4082  0.2169
  304MOL    H8124927   2.833   5.990   2.136  2.8391  0.3036 -1.4640
  304MOL    H8224928   3.035   5.996   2.288  0.9392  1.7034 -1.5431
  305MOL     C124929   5.894   1.634   5.298  0.4123  0.0878  0.6219
  305MOL     O224930   5.882   1.527   5.386  0.3897 -0.3539 -0.3093
  305MOL     H324931   5.842   1.597   5.209  2.3984  0.7868 -0.8708
  305MOL     H424932   5.821   1.711   5.321 -0.6204 -0.6874 -0.0094
  305MOL     H524933   5.996   1.657   5.266  0.3773  2.7852  2.3133
  305MOL     C624934   5.944   1.410   5.344 -0.1991 -0.1402  0.6273
  305MOL     O724935   6.082   1.412   5.365 -0.2777  0.2754 -0.2713
  305MOL     H824936   5.931   1.391   5.237 -2.8339 -1.4267  1.1253
  305MOL     H924937   5.902   1.326   5.400 -0.3100  1.1211  2.4429
  305MOL    C1024938   6.131   1.415   5.493  0.1840  0.7873 -0.2721
  305MOL    O1124939   6.242   1.339   5.504 -0.4834  0.7938 -0.5408
  305MOL    H1224940   6.053   1.369   5.555 -0.4233  1.0102 -0.8625
  305MOL    H1324941   6.151   1.518   5.522 -0.7112  0.7336  0.5884
  305MOL    C1424942   6.354   1.396   5.446  0.3358  0.2181 -0.2877
  305MOL    O1524943   6.429   1.462   5.548  0.0958  0.3174 -0.1684
  305MOL    H1624944   6.318   1.466   5.370 -2.6363 -0.4643  0.4407
  305MOL    H1724945   6.422   1.327   5.396  0.2294 -0.3424  0.3406
  305MOL    C1824946   6.507   1.565   5.491 -0.1815  0.1971  0.4414
  305MOL    O1924947   6.418   1.663   5.460  0.4372 -0.4973  0.2859
  305MOL    H2024948   6.553   1.529   5.399 -1.0401  3.6673 -1.3997
  305MOL    H2124949   6.582   1.600   5.563  2.4764  1.7451 -2.9740
  305MOL    C2224950   6.371   1.735   5.571  0.0090 -0.4672  0.4974
  305MOL    O2324951   6.467   1.817   5.620  0.2050 -0.0145  0.0595
  305MOL    H2424952   6.330   1.672   5.650 -0.4991 -2.3282 -1.2213
  305MOL    H2524953   6.284   1.790   5.536 -0.3133 -0.3047  1.5140
  305MOL    C2624954   6.422   1.860   5.741  0.5469  0.3729 -0.1251
  305MOL    O2724955   6.319   1.958   5.749 -0.1173 -0.3030 -0.4373
  305MOL    H2824956   6.508   1.913   5.783 -0.4940  0.8612  1.4266
  305MOL    H2924957   6.414   1.785   5.819  1.1299  0.3868 -0.0539
  305MOL    C3024958   6.295   2.021   5.870 -0.8894 -0.1128 -0.3917
  305MOL    O3124959   6.251   1.927   5.963 -0.4803  0.1260 -0.4102
  305MOL    H3224960   6.226   2.104   5.857  0.0770  0.8737  0.7046
  305MOL    H3324961   6.393   2.054   5.902 -1.2738  1.6187 -0.9749
  305MOL    C3424962   6.279   1.964   6.097 -0.1719  0.2558 -0.5164
  305MOL    O3524963   6.416   1.946   6.109 -0.1253 -0.0988  0.1652
  305MOL    H3624964   6.214   1.912   6.168 -0.5772 -1.0509 -1.8155
  305MOL    H3724965   6.249   2.067   6.118 -0.0627  0.1943 -0.0635
  305MOL    C3824966   6.460   1.823   6.153 -0.4447 -0.1464  0.2732
  305MOL    O3924967   6.431   1.810   6.287 -0.5495 -0.7851  0.7701
  305MOL    H4024968   6.565   1.810   6.126 -0.4688 -0.1951  0.2034
  305MOL    H4124969   6.404   1.745   6.102  0.3862 -0.4165 -0.2257
  305MOL    C4224970   6.485   1.701   6.346 -0.0454  0.2605 -0.2034
  305MOL    O4324971   6.627   1.709   6.347  0.2657 -0.4135 -0.3698
  305MOL    H4424972   6.451   1.615   6.288 -1.7261  1.6598 -1.3316
  305MOL    H4524973   6.431   1.703   6.440  0.4638 -0.0330  0.0953
  305MOL    C4624974   6.672   1.735   6.479 -0.4536  0.5012 -0.5948
  305MOL    O4724975   6.656   1.632   6.574 -0.5687  0.4009 -0.3257
  305MOL    H4824976   6.619   1.826   6.510 -1.3929  0.0997 -0.9986
  305MOL    H4924977   6.775   1.768   6.491 -0.7860  1.3027  0.1384
  305MOL    C5024978   6.741   1.528   6.564 -0.8010 -0.3419 -0.1358
  305MOL    O5124979   6.875   1.563   6.567 -0.0205  0.5610  0.5394
  305MOL    H5224980   6.726   1.470   6.473  2.3029 -0.9078 -0.3394
  305MOL    H5324981   6.716   1.461   6.646 -1.6196  0.1521  0.0200
  305MOL    C5424982   6.918   1.621   6.679  0.1510 -0.3110  0.1820
  305MOL    O5524983   6.888   1.556   6.790  0.3299  0.0703 -0.7027
  305MOL    H5624984   6.876   1.721   6.685  0.3613 -0.1683 -0.7019
  305MOL    H5724985   7.026   1.624   6.666  0.1566 -1.5742 -0.0894
  305MOL    C5824986   6.972   1.591   6.899 -0.0676 -0.1439 -0.5183
  305MOL    O5924987   7.101   1.536   6.897 -0.5343 -0.2943  0.1170
  305MOL    H6024988   6.926   1.568   6.996 -1.0521  1.9045 -0.4553
  305MOL    H6124989   6.974   1.699   6.916  0.4062 -0.3491  0.8135
  305MOL    C6224990   7.100   1.397   6.923 -0.1909  0.5111 -0.2221
  305MOL    O6324991   7.081   1.370   7.058  0.5117  0.7134 -0.1626
  305MOL    H6424992   7.200   1.363   6.896 -0.5252  0.1200 -0.9791
  305MOL    H6524993   7.022   1.347   6.865  1.7994 -3.5801  0.4276
  305MOL    C6624994   7.167   1.423   7.147  0.3473  0.0747 -0.5353
  305MOL    O6724995   7.300   1.390   7.113 -0.0353 -0.0669 -0.3472
  305MOL    H6824996   7.144   1.402   7.251  1.6355 -0.0045 -0.2601
  305MOL    H6924997   7.158   1.531   7.143  0.2377  0.2482  3.2213
  305MOL    C7024998   7.332   1.268   7.151 -0.5055 -0.3541 -0.3709
  305MOL    O7124999   7.274   1.158   7.093  0.2086 -0.2314  0.1946
  305MOL    H7225000   7.321   1.258   7.259 -1.0029  1.9463 -0.1957
  305MOL    H7325001   7.440   1.260   7.145 -0.2064  0.5199  2.7111
  305MOL    C7425002   7.336   1.122   6.978 -0.1765 -0.3508  0.2049
  305MOL    O7525003   7.431   1.028   7.008 -0.3146 -0.4339  0.3627
  305MOL    H7625004   7.396   1.198   6.928 -0.0573 -0.6914 -0.1636
  305MOL    H7725005   7.256   1.084   6.915 -0.8294 -1.8358  1.8903
  305MOL    C7825006   7.374   0.914   7.063 -0.0693  0.2745 -0.1953
  305MOL    O7925007   7.470   0.830   7.107  0.5065  0.6307  0.2318
  305MOL    H8025008   7.320   0.861   6.984  1.7827 -0.8633 -0.7395
  305MOL    H8125009   7.307   0.936   7.145 -1.0414  0.0406 -0.9223
  305MOL    H8225010   7.442   0.782   7.184  1.6624 -0.8441 -0.2265
  306MOL     C125011   4.910   1.484   0.654 -0.1332  0.3623 -0.2039
  306MOL     O225012   4.943   1.387   0.756  0.5663 -0.0732  0.4462
  306MOL     H325013   4.812   1.466   0.609  0.5983 -0.8353 -1.3341
  306MOL     H425014   4.904   1.576   0.713 -0.5158 -1.0439  2.0232
  306MOL     H525015   4.987   1.489   0.577  0.2749 -0.3847  0.1446
  306MOL     C625016   4.905   1.263   0.732  0.0070 -0.1960  0.4160
  306MOL     O725017   4.893   1.198   0.856 -0.1125 -0.5494 -0.0863
  306MOL     H825018   4.975   1.205   0.673  0.4837  0.5579  0.2372
  306MOL     H925019   4.808   1.254   0.683 -0.8190 -2.7886  2.4256
  306MOL    C1025020   4.882   1.060   0.842  0.0394  0.1427 -0.1276
  306MOL    O1125021   4.754   1.024   0.790  0.1887 -0.2933 -0.4144
  306MOL    H1225022   4.876   1.019   0.942  0.9065  0.9818  0.2723
  306MOL    H1325023   4.965   1.008   0.792  1.4861  1.2175  1.1103
  306MOL    C1425024   4.719   0.891   0.810  0.3403  0.6492  0.0191
  306MOL    O1525025   4.590   0.865   0.748 -0.3172 -0.7865 -0.3796
  306MOL    H1625026   4.707   0.878   0.918  0.4210  1.5406  0.1405
  306MOL    H1725027   4.804   0.832   0.775  0.6393  1.3635 -0.4838
  306MOL    C1825028   4.485   0.896   0.834  0.4705  0.5063 -0.1546
  306MOL    O1925029   4.471   0.799   0.933  0.7739 -0.5104 -0.2793
  306MOL    H2025030   4.394   0.909   0.775 -0.9795 -2.7294  1.2862
  306MOL    H2125031   4.499   0.995   0.877  0.8188  0.0580  0.7630
  306MOL    C2225032   4.408   0.692   0.878 -0.3726  0.4594 -0.1792
  306MOL    O2325033   4.275   0.729   0.856 -0.3207 -0.7228 -0.1427
  306MOL    H2425034   4.424   0.608   0.945 -0.3950  0.2550 -0.4282
  306MOL    H2525035   4.459   0.670   0.784 -0.7650 -0.0439 -0.2774
  306MOL    C2625036   4.197   0.714   0.966  0.1374  0.2249  0.6657
  306MOL    O2725037   4.112   0.823   0.999  0.0219 -0.0612 -0.4353
  306MOL    H2825038   4.257   0.690   1.054 -0.0053 -0.0112  0.6975
  306MOL    H2925039   4.131   0.628   0.953 -0.2137  0.5032  0.5952
  306MOL    C3025040   4.174   0.932   1.065  0.6807 -0.0778 -0.7803
  306MOL    O3125041   4.186   0.923   1.205 -0.0253 -0.1214 -0.1624
  306MOL    H3225042   4.112   1.018   1.039 -0.4795  0.1352  2.4755
  306MOL    H3325043   4.270   0.955   1.018  1.1243  1.7699  0.9349
  306MOL    C3425044   4.062   0.926   1.268 -0.2264  0.3097 -0.2452
  306MOL    O3525045   4.018   1.049   1.311 -0.3252  0.2445  0.4850
  306MOL    H3625046   4.062   0.866   1.359  1.3476  1.3322  0.4376
  306MOL    H3725047   3.977   0.891   1.210 -0.6072 -1.5480  1.3508
  306MOL    C3825048   4.091   1.091   1.422 -0.4033 -0.6636 -0.5136
  306MOL    O3925049   4.061   1.009   1.533 -0.3405 -0.0763 -0.1898
  306MOL    H4025050   4.066   1.197   1.426 -0.7453 -0.7663  0.0955
  306MOL    H4125051   4.200   1.087   1.414 -0.1512 -0.7227  2.4916
  306MOL    C4225052   3.933   1.033   1.586  0.0214  0.6216 -0.3209
  306MOL    O4325053   3.911   1.168   1.622  0.0016 -0.4685 -0.5758
  306MOL    H4425054   3.934   0.965   1.671 -0.5901  0.3961 -0.4959
  306MOL    H4525055   3.851   0.994   1.526  0.7236 -1.2807 -0.0800
  306MOL    C4625056   3.999   1.215   1.723 -0.4177  0.6379  0.1612
  306MOL    O4725057   3.964   1.166   1.848 -0.4759  0.0788  0.0048
  306MOL    H4825058   4.005   1.324   1.719  0.2525  0.6091  0.4151
  306MOL    H4925059   4.094   1.166   1.704 -1.3060 -1.4176  0.9241
  306MOL    C5025060   3.843   1.218   1.896 -0.4737 -0.0127 -0.2244
  306MOL    O5125061   3.795   1.147   2.009  0.8062 -0.2155 -0.3628
  306MOL    H5225062   3.772   1.211   1.814 -1.5863 -1.1368  0.8325
  306MOL    H5325063   3.856   1.325   1.913  0.9392 -0.4171  1.4171
  306MOL    C5425064   3.686   1.215   2.065  0.2083 -0.0898  0.0733
  306MOL    O5525065   3.737   1.323   2.132  0.4605  0.1390  0.3988
  306MOL    H5625066   3.638   1.145   2.133  0.9672 -0.5935  0.0946
  306MOL    H5725067   3.625   1.250   1.981 -0.5310  0.8515  0.9739
  306MOL    C5825068   3.784   1.296   2.263  0.2599  0.2670  0.3675
  306MOL    O5925069   3.899   1.371   2.289  0.5774 -0.9440 -0.4212
  306MOL    H6025070   3.802   1.188   2.266 -0.5351  0.1686  2.5229
  306MOL    H6125071   3.703   1.323   2.330  0.1711  0.6087  0.1210
  306MOL    C6225072   4.010   1.326   2.226 -0.3150  0.3076  0.4540
  306MOL    O6325073   4.052   1.196   2.267 -0.0055 -0.2917 -0.0019
  306MOL    H6425074   4.083   1.403   2.248  1.5875 -1.0162 -1.0899
  306MOL    H6525075   3.990   1.329   2.118 -0.6924 -0.1819  0.5047
  306MOL    C6625076   4.192   1.184   2.249 -0.1714  0.2312  0.0894
  306MOL    O6725077   4.237   1.169   2.118  0.1106  0.7832 -0.1037
  306MOL    H6825078   4.224   1.102   2.314  0.6330  0.2027 -0.3305
  306MOL    H6925079   4.251   1.268   2.286  0.0612  1.2156 -2.4461
  306MOL    C7025080   4.197   1.057   2.056  0.5890 -0.4292 -0.3923
  306MOL    O7125081   4.281   0.955   2.096 -0.0943  0.1762  0.0388
  306MOL    H7225082   4.204   1.083   1.950  2.3829  0.8561  0.0273
  306MOL    H7325083   4.096   1.024   2.079 -0.2479  1.7189 -0.8589
  306MOL    C7425084   4.419   0.985   2.081 -0.2628  0.2654  0.4141
  306MOL    O7525085   4.454   1.025   1.951 -0.2722 -0.6262  0.1357
  306MOL    H7625086   4.469   0.891   2.106 -0.3224 -0.2848 -1.4335
  306MOL    H7725087   4.449   1.058   2.155  2.2578 -1.1407  0.8255
  306MOL    C7825088   4.464   0.924   1.853  0.0103 -0.0214  0.9862
  306MOL    O7925089   4.515   0.986   1.736 -0.2619 -0.5105 -0.1441
  306MOL    H8025090   4.371   0.869   1.839 -0.1876 -0.5596  4.0526
  306MOL    H8125091   4.538   0.854   1.890 -1.7528 -1.1307  2.5026
  306MOL    H8225092   4.522   0.921   1.668  1.0669 -0.2341 -0.2959
  307MOL     C125093   3.433   3.220   2.409  0.7578  0.3953  0.7093
  307MOL     O225094   3.471   3.237   2.272 -0.4889  0.0211 -0.5737
  307MOL     H325095   3.327   3.198   2.420  0.5360 -0.9978 -3.2999
  307MOL     H425096   3.490   3.138   2.452  1.6339  1.6070  1.9106
  307MOL     H525097   3.450   3.311   2.466  1.0334  0.8884 -0.1616
  307MOL     C625098   3.611   3.247   2.258  0.9349 -0.0371  0.8331
  307MOL     O725099   3.662   3.118   2.222  0.9047 -0.1988 -0.4676
  307MOL     H825100   3.664   3.292   2.342 -1.7436  1.1225  1.9514
  307MOL     H925101   3.636   3.319   2.179 -0.4601 -0.4250  0.0147
  307MOL    C1025102   3.590   3.055   2.125 -0.7473 -0.3097  0.1131
  307MOL    O1125103   3.643   2.933   2.107  0.2319 -0.2366 -0.3783
  307MOL    H1225104   3.603   3.114   2.035 -1.6850  0.0298  0.1916
  307MOL    H1325105   3.484   3.045   2.149 -1.3737  1.0187 -2.0084
  307MOL    C1425106   3.562   2.850   2.026  0.4327  0.5494 -0.7774
  307MOL    O1525107   3.459   2.796   2.109 -0.4863  0.0570  0.0031
  307MOL    H1625108   3.622   2.766   1.990  1.6289  1.6064 -1.3257
  307MOL    H1725109   3.520   2.901   1.939  0.0388 -0.2480 -1.0524
  307MOL    C1825110   3.511   2.702   2.202 -0.4348 -0.3175  0.1113
  307MOL    O1925111   3.412   2.645   2.286  0.6234 -0.5135 -0.3532
  307MOL    H2025112   3.592   2.741   2.264 -0.1285  0.0804 -0.5373
  307MOL    H2125113   3.550   2.618   2.145  1.4152 -0.1000  1.0144
  307MOL    C2225114   3.377   2.723   2.392  0.2567  0.3281  0.2968
  307MOL    O2325115   3.477   2.718   2.491 -0.3139 -0.0718  0.2027
  307MOL    H2425116   3.284   2.696   2.442  0.8003 -0.8912  0.6674
  307MOL    H2525117   3.367   2.823   2.352  1.3815 -0.4136 -1.9372
  307MOL    C2625118   3.455   2.794   2.599 -0.2877  0.0271 -0.4912
  307MOL    O2725119   3.554   2.778   2.692  1.0442 -0.3366  0.3988
  307MOL    H2825120   3.363   2.773   2.653 -0.1133  1.4121  0.3692
  307MOL    H2925121   3.451   2.900   2.572  0.5471  1.1831  3.5415
  307MOL    C3025122   3.668   2.851   2.650 -0.8191  0.6652 -0.3452
  307MOL    O3125123   3.661   2.987   2.682 -0.3266 -0.2071  0.3932
  307MOL    H3225124   3.685   2.850   2.543  2.0811  0.6700  0.0723
  307MOL    H3325125   3.753   2.804   2.700 -1.5422  1.1145  1.3563
  307MOL    C3425126   3.648   3.015   2.818  0.5372 -0.2361  0.4765
  307MOL    O3525127   3.657   3.151   2.857 -0.2504  0.2866  0.8423
  307MOL    H3625128   3.710   2.946   2.875 -0.3427 -3.4073 -2.2394
  307MOL    H3725129   3.548   2.987   2.851  0.0733  0.4256 -0.3657
  307MOL    C3825130   3.783   3.178   2.911 -0.0781 -0.2680  0.4835
  307MOL    O3925131   3.804   3.107   3.037 -0.0096 -0.2127 -0.5116
  307MOL    H4025132   3.791   3.285   2.931 -0.4083 -0.0999 -0.2750
  307MOL    H4125133   3.856   3.145   2.836  0.5966  0.6828  0.7135
  307MOL    C4225134   3.704   3.149   3.130 -0.4456 -0.3144 -0.0289
  307MOL    O4325135   3.715   3.085   3.260 -0.0170  0.2073 -0.6882
  307MOL    H4425136   3.606   3.127   3.086 -0.4173 -0.7715  0.1344
  307MOL    H4525137   3.714   3.256   3.146 -3.3396 -0.1043  0.7742
  307MOL    C4625138   3.721   2.949   3.248 -0.3679 -0.0810  0.6655
  307MOL    O4725139   3.725   2.879   3.366 -0.0329  0.2827  0.2048
  307MOL    H4825140   3.803   2.918   3.184 -0.3955 -0.0318  0.6063
  307MOL    H4925141   3.636   2.901   3.200 -0.6642  1.0200  0.0802
  307MOL    C5025142   3.848   2.894   3.431 -0.4830 -0.2064  0.4416
  307MOL    O5125143   3.943   2.811   3.363  0.9002 -0.1655 -0.6671
  307MOL    H5225144   3.844   2.875   3.538  1.5831  1.1737  0.7951
  307MOL    H5325145   3.881   2.998   3.426  3.1776 -1.2730  0.6029
  307MOL    C5425146   3.891   2.676   3.353 -1.0400  0.0243  0.1765
  307MOL    O5525147   3.813   2.660   3.245  0.6342 -0.1044 -0.0089
  307MOL    H5625148   3.842   2.644   3.444  1.3563  0.5007  1.6732
  307MOL    H5725149   3.971   2.606   3.328 -2.0687 -1.3747  0.8017
  307MOL    C5825150   3.758   2.532   3.232 -0.0445 -0.0233  0.1275
  307MOL    O5925151   3.677   2.497   3.346 -0.5755 -0.0067  0.4687
  307MOL    H6025152   3.841   2.463   3.219  0.9734  1.0691  0.7564
  307MOL    H6125153   3.696   2.531   3.142 -0.1836  0.0315  0.2215
  307MOL    C6225154   3.561   2.570   3.355 -0.1400 -0.0310  0.7940
  307MOL    O6325155   3.483   2.524   3.459 -0.0730 -0.5245 -0.3789
  307MOL    H6425156   3.507   2.548   3.263  0.0927  0.1747  0.6025
  307MOL    H6525157   3.576   2.677   3.373  0.9918 -0.2177  1.0427
  307MOL    C6625158   3.531   2.554   3.583 -1.2984 -0.6984  0.0531
  307MOL    O6725159   3.529   2.694   3.611  0.3310  0.4652  0.0412
  307MOL    H6825160   3.638   2.532   3.582 -1.5744 -2.1155  0.7738
  307MOL    H6925161   3.484   2.502   3.667  2.1512 -1.4481  1.6080
  307MOL    C7025162   3.398   2.742   3.638  0.4227  0.0443  0.0383
  307MOL    O7125163   3.364   2.720   3.775  0.3137 -0.9506 -0.2587
  307MOL    H7225164   3.334   2.690   3.567 -0.1179  1.0065 -0.1990
  307MOL    H7325165   3.402   2.845   3.601 -1.9558  0.8119  1.8146
  307MOL    C7425166   3.384   2.834   3.849  0.4734  1.0940 -0.1013
  307MOL    O7525167   3.283   2.927   3.833 -0.3913 -0.7843 -0.4010
  307MOL    H7625168   3.483   2.873   3.827  1.1869 -0.8121 -0.3263
  307MOL    H7725169   3.376   2.786   3.946 -0.4926 -0.7153 -1.0474
  307MOL    C7825170   3.158   2.878   3.851  0.0093 -0.2752  0.2035
  307MOL    O7925171   3.059   2.959   3.795  0.0747  0.1321 -0.2745
  307MOL    H8025172   3.134   2.862   3.956 -0.5912 -1.6010 -0.1285
  307MOL    H8125173   3.145   2.777   3.814  0.8816  0.1774 -1.3783
  307MOL    H8225174   3.031   3.021   3.861 -2.5773 -1.1920 -0.0961
  308MOL     C125175   6.406   0.309   1.584 -0.1212  0.1910 -0.5909
  308MOL     O225176   6.400   0.342   1.722  0.6685 -0.3775 -0.7722
  308MOL     H325177   6.399   0.401   1.525  0.0606  0.6986  0.1811
  308MOL     H425178   6.499   0.263   1.551 -0.1519 -0.0127 -0.3902
  308MOL     H525179   6.327   0.237   1.561 -1.2529  0.4757  2.1914
  308MOL     C625180   6.484   0.443   1.768  0.9287 -0.7299 -0.0786
  308MOL     O725181   6.445   0.575   1.735 -0.0575  0.2115  0.2312
  308MOL     H825182   6.588   0.421   1.744  1.2340 -0.7547  1.2362
  308MOL     H925183   6.492   0.432   1.876  1.3663  0.6469  0.0388
  308MOL    C1025184   6.331   0.620   1.792  0.8162  0.6314 -0.1946
  308MOL    O1125185   6.349   0.637   1.933  0.4336  0.2380 -0.6101
  308MOL    H1225186   6.257   0.542   1.772  0.9349  0.3850  0.3113
  308MOL    H1325187   6.298   0.712   1.745  1.4359  0.8066 -0.2885
  308MOL    C1425188   6.414   0.755   1.958 -0.4265  0.6629 -0.0204
  308MOL    O1525189   6.335   0.862   1.925 -0.4554  0.2027 -0.4053
  308MOL    H1625190   6.503   0.756   1.896 -0.3909 -0.5118  0.0025
  308MOL    H1725191   6.441   0.764   2.063 -1.6102  0.4027  0.3244
  308MOL    C1825192   6.404   0.978   1.931 -0.1648  0.9098  0.0188
  308MOL    O1925193   6.473   0.998   2.053 -0.9753  0.2764 -0.0407
  308MOL    H2025194   6.339   1.064   1.919  0.3417  1.4541  1.0652
  308MOL    H2125195   6.474   0.970   1.848  0.0667  1.3400  0.1639
  308MOL    C2225196   6.386   1.031   2.155  0.6041  0.2860 -0.4158
  308MOL    O2325197   6.320   1.150   2.132  0.3629  0.3144 -0.3399
  308MOL    H2425198   6.451   1.057   2.238  0.2320  1.2781 -0.4271
  308MOL    H2525199   6.325   0.947   2.190  0.7890 -0.1919 -1.2282
  308MOL    C2625200   6.293   1.218   2.256 -0.7474  0.7680  0.7154
  308MOL    O2725201   6.403   1.294   2.305  0.1640 -0.5289 -0.5398
  308MOL    H2825202   6.264   1.140   2.328  1.9658 -3.1678 -2.2525
  308MOL    H2925203   6.213   1.291   2.245  0.1492  2.2441  3.4012
  308MOL    C3025204   6.457   1.388   2.221 -0.1111  0.1123  0.5411
  308MOL    O3125205   6.369   1.491   2.200  0.1669  0.0561 -0.1881
  308MOL    H3225206   6.491   1.349   2.126 -2.5602  1.4152 -0.9128
  308MOL    H3325207   6.542   1.425   2.279 -0.0493  2.1930 -0.8299
  308MOL    C3425208   6.431   1.595   2.126 -0.9696  0.0562 -0.3618
  308MOL    O3525209   6.525   1.656   2.212  0.0595 -0.3283  0.5622
  308MOL    H3625210   6.348   1.666   2.118 -1.5342 -0.8374 -2.6872
  308MOL    H3725211   6.474   1.574   2.028 -2.2530  1.0973 -1.1717
  308MOL    C3825212   6.592   1.756   2.142 -0.1857 -0.0862 -0.3791
  308MOL    O3925213   6.688   1.704   2.055 -0.2037 -0.1587  0.1615
  308MOL    H4025214   6.645   1.817   2.215 -1.7188  0.3792  0.3680
  308MOL    H4125215   6.532   1.822   2.079  0.4222  1.6500  0.8235
  308MOL    C4225216   6.795   1.647   2.121  0.3748  0.4946  0.4051
  308MOL    O4325217   6.892   1.740   2.155 -0.0791  0.5906  0.4323
  308MOL    H4425218   6.847   1.579   2.053 -0.2016  0.8077 -0.3584
  308MOL    H4525219   6.762   1.589   2.207 -3.6572  1.8927 -0.1068
  308MOL    C4625220   6.942   1.808   2.044 -1.3366  0.5034  0.2197
  308MOL    O4725221   7.065   1.864   2.072  0.0979  0.7469  0.4179
  308MOL    H4825222   6.869   1.885   2.021  0.2488  1.6026 -1.2602
  308MOL    H4925223   6.942   1.742   1.956  1.8434 -1.4157  1.5605
  308MOL    C5025224   7.055   1.966   2.174 -0.7351  0.3431  1.0657
  308MOL    O5125225   6.982   2.081   2.123 -1.0542 -0.1597  1.2565
  308MOL    H5225226   7.152   2.004   2.206 -0.5943 -0.3349  1.4408
  308MOL    H5325227   7.003   1.939   2.266 -2.1912  1.1944  0.5083
  308MOL    C5425228   7.046   2.151   2.017  0.4225  0.9723  0.2809
  308MOL    O5525229   6.962   2.252   1.969 -0.3285 -0.2704  0.3640
  308MOL    H5625230   7.062   2.080   1.936  1.4129 -1.5645  2.6329
  308MOL    H5725231   7.141   2.190   2.053 -0.5769  2.3071  1.5488
  308MOL    C5825232   6.951   2.364   2.054  0.1903  0.0313 -0.7155
  308MOL    O5925233   7.075   2.429   2.059 -0.0288 -0.2791 -0.5589
  308MOL    H6025234   6.935   2.324   2.155 -0.1361 -0.8262 -1.1030
  308MOL    H6125235   6.870   2.428   2.019 -0.8949 -1.3840 -0.8365
  308MOL    C6225236   7.096   2.514   1.953  0.2472  0.0914 -0.2834
  308MOL    O6325237   7.226   2.560   1.947  0.1654 -0.2775 -0.6149
  308MOL    H6425238   7.026   2.598   1.953 -0.0449 -0.1514 -0.6322
  308MOL    H6525239   7.067   2.458   1.864 -2.2456  1.5113 -0.4000
  308MOL    C6625240   7.256   2.649   2.051 -0.3666  0.2837 -0.3435
  308MOL    O6725241   7.222   2.776   2.021 -0.1320 -0.2993 -0.3982
  308MOL    H6825242   7.359   2.647   2.085 -0.3447  0.1454 -0.4172
  308MOL    H6925243   7.201   2.615   2.138 -0.8912  2.3874  0.1815
  308MOL    C7025244   7.235   2.869   2.127 -0.4263 -0.2492  0.2629
  308MOL    O7125245   7.127   2.857   2.210 -0.1584  0.3585  0.3983
  308MOL    H7225246   7.240   2.965   2.077 -0.1550 -0.7866 -0.7587
  308MOL    H7325247   7.326   2.853   2.185 -0.0608 -2.7738 -0.9316
  308MOL    C7425248   7.009   2.891   2.148  0.6966  0.4647 -0.4686
  308MOL    O7525249   7.003   3.026   2.109  0.4585 -0.2445  0.4664
  308MOL    H7625250   6.928   2.864   2.216  0.0065 -2.3261 -2.2919
  308MOL    H7725251   6.993   2.826   2.062 -0.1515 -0.9306  0.7318
  308MOL    C7825252   7.019   3.112   2.218 -0.0300  0.2835 -0.0991
  308MOL    O7925253   6.996   3.249   2.190 -0.7737 -0.1221 -0.2362
  308MOL    H8025254   7.113   3.102   2.272 -0.7472 -1.7954  0.8341
  308MOL    H8125255   6.941   3.076   2.285  0.2374 -1.7721 -0.8488
  308MOL    H8225256   7.079   3.276   2.153  0.4916 -0.7928  2.0617
  309MOL     C125257   0.383   6.432   0.960  0.0037 -0.0348  0.4400
  309MOL     O225258   0.473   6.543   0.982 -0.6348 -0.3506 -0.4868
  309MOL     H325259   0.449   6.346   0.947 -0.4865 -0.5882  1.5276
  309MOL     H425260   0.308   6.413   1.037  0.2834  1.7435  1.1795
  309MOL     H525261   0.326   6.444   0.868  0.6487 -2.4363 -0.3219
  309MOL     C625262   0.402   6.659   1.020 -0.8126  0.3744 -0.5157
  309MOL     O725263   0.346   6.645   1.149  0.5989 -0.2373  0.7830
  309MOL     H825264   0.320   6.677   0.951  0.9015  0.2851 -2.6165
  309MOL     H925265   0.461   6.750   1.028  0.3550 -0.5151  1.4575
  309MOL    C1025266   0.437   6.637   1.254 -0.5922  0.1077 -0.2728
  309MOL    O1125267   0.375   6.622   1.382 -0.5311 -0.8200 -0.1602
  309MOL    H1225268   0.507   6.721   1.256 -0.2892 -0.1412  2.8899
  309MOL    H1325269   0.503   6.551   1.240  1.8299  1.3317  3.0598
  309MOL    C1425270   0.299   6.734   1.410  0.3566 -0.0452  0.0621
  309MOL    O1525271   0.375   6.834   1.464 -0.0800  0.2360  0.3056
  309MOL    H1625272   0.214   6.711   1.474 -0.0420 -0.0283 -0.4631
  309MOL    H1725273   0.246   6.779   1.327 -1.1056 -1.1134  0.4009
  309MOL    C1825274   0.444   6.801   1.581  0.5589  0.2454 -0.1589
  309MOL    O1925275   0.532   6.907   1.599 -0.3344 -0.2249 -0.6186
  309MOL    H2025276   0.502   6.709   1.583 -1.7291 -1.2893 -1.3153
  309MOL    H2125277   0.386   6.787   1.673  0.3017 -2.5823 -0.7267
  309MOL    C2225278   0.640   6.914   1.512  0.2643  0.1508  0.2589
  309MOL    O2325279   0.747   6.830   1.552  0.4686 -0.4013  0.2293
  309MOL    H2425280   0.663   7.020   1.510 -1.0187  0.4234 -1.4536
  309MOL    H2525281   0.610   6.889   1.410 -1.1225  0.9740  0.4589
  309MOL    C2625282   0.829   6.890   1.647 -0.0077  0.0473 -0.0647
  309MOL    O2725283   0.893   7.006   1.601  0.2164 -0.0328 -0.1515
  309MOL    H2825284   0.904   6.817   1.676 -1.8918 -1.3225  1.4339
  309MOL    H2925285   0.772   6.915   1.736 -0.3737 -3.9250  0.9021
  309MOL    C3025286   1.000   6.975   1.518 -0.5911  0.7808 -0.7925
  309MOL    O3125287   1.098   6.905   1.576  0.4119 -0.2319 -0.2745
  309MOL    H3225288   1.039   7.067   1.475  1.0610  0.3531 -0.2085
  309MOL    H3325289   0.975   6.917   1.428 -0.7020 -0.0502 -0.2285
  309MOL    C3425290   1.171   6.987   1.660 -0.0362  0.3265 -0.3621
  309MOL    O3525291   1.267   7.060   1.597  0.2379  0.1857 -0.2354
  309MOL    H3625292   1.206   6.932   1.747 -1.8705 -1.4211 -0.7027
  309MOL    H3725293   1.105   7.058   1.711 -0.8167 -1.1360  0.7034
  309MOL    C3825294   1.379   6.986   1.580 -0.9916  0.3808  0.1692
  309MOL    O3925295   1.442   6.964   1.700 -0.5088 -0.6479 -0.1330
  309MOL    H4025296   1.441   7.027   1.500 -0.0186 -0.9082  0.2589
  309MOL    H4125297   1.354   6.888   1.539  0.6499  0.1270 -0.2601
  309MOL    C4225298   1.545   6.868   1.693 -0.7368  0.6314  0.1966
  309MOL    O4325299   1.616   6.879   1.812 -0.0006 -0.0777 -0.3578
  309MOL    H4425300   1.612   6.876   1.607 -1.8670  0.5624 -0.7106
  309MOL    H4525301   1.490   6.775   1.682  1.0084 -0.0662 -3.4067
  309MOL    C4625302   1.555   6.820   1.925 -0.0851 -0.1767  0.3546
  309MOL    O4725303   1.549   6.684   1.913  0.2088  0.7195  0.1140
  309MOL    H4825304   1.456   6.863   1.936  1.1900  3.2028 -0.7201
  309MOL    H4925305   1.613   6.850   2.013  1.4382 -0.6470 -0.4669
  309MOL    C5025306   1.670   6.619   1.936 -0.2271 -0.0261  0.2112
  309MOL    O5125307   1.692   6.585   2.072 -0.2752 -1.0600 -0.0052
  309MOL    H5225308   1.755   6.658   1.881  0.6920 -1.6651  0.4171
  309MOL    H5325309   1.667   6.516   1.898 -0.6266 -0.3877  1.2154
  309MOL    C5425310   1.808   6.656   2.124  0.0528  0.8612 -0.3555
  309MOL    O5525311   1.929   6.633   2.054 -0.2670  0.1244 -0.3044
  309MOL    H5625312   1.828   6.628   2.227  0.7085 -1.4740 -1.0898
  309MOL    H5725313   1.796   6.764   2.124  1.3847  1.0176 -0.7861
  309MOL    C5825314   1.966   6.499   2.046 -0.0175  0.3497 -0.3244
  309MOL    O5925315   1.971   6.467   1.909  0.7958 -0.2310  0.2962
  309MOL    H6025316   1.894   6.433   2.094  1.2777 -1.6909 -1.0984
  309MOL    H6125317   2.062   6.489   2.097  1.1872  0.1097 -2.6102
  309MOL    C6225318   2.093   6.493   1.855 -0.0844 -0.2012 -0.6461
  309MOL    O6325319   2.160   6.380   1.818 -0.1629 -0.1033  0.2782
  309MOL    H6425320   2.160   6.547   1.922 -1.8209  0.6365  0.4390
  309MOL    H6525321   2.070   6.555   1.769 -1.3991 -0.3275 -0.4013
  309MOL    C6625322   2.249   6.322   1.910  0.1977  0.2506 -0.2597
  309MOL    O6725323   2.368   6.393   1.898  0.3246 -0.5697  0.0497
  309MOL    H6825324   2.262   6.219   1.877 -0.6899  0.8854 -2.6750
  309MOL    H6925325   2.225   6.315   2.016  0.6024 -1.1858 -0.2512
  309MOL    C7025326   2.455   6.391   2.011  0.2686 -0.0282 -0.3477
  309MOL    O7125327   2.510   6.261   2.024 -0.4320  0.0686 -0.9943
  309MOL    H7225328   2.405   6.420   2.103  0.0433 -1.4726  0.0058
  309MOL    H7325329   2.539   6.458   1.999  0.7565 -0.9001 -1.9616
  309MOL    C7425330   2.584   6.215   1.915 -0.3094 -0.4138 -0.3514
  309MOL    O7525331   2.687   6.303   1.890 -0.0242  0.2586  0.2306
  309MOL    H7625332   2.515   6.207   1.830 -0.6627  0.3749 -0.1529
  309MOL    H7725333   2.631   6.122   1.946 -3.1816 -1.6113  0.6221
  309MOL    C7825334   2.746   6.272   1.768  0.4248 -0.9449  0.0217
  309MOL    O7925335   2.846   6.370   1.737 -0.0449  0.5273 -0.1443
  309MOL    H8025336   2.671   6.281   1.690  1.4517 -0.9326 -0.9671
  309MOL    H8125337   2.798   6.177   1.776  0.4622 -0.8535  0.9661
  309MOL    H8225338   2.920   6.342   1.789 -1.5011  2.2033  2.9982
  310MOL     C125339   7.305   0.685   0.420  0.4662  0.2903  0.0887
  310MOL     O225340   7.361   0.684   0.557 -1.1448  0.1924 -0.2317
  310MOL     H325341   7.345   0.765   0.358 -0.2534 -0.6451 -1.6069
  310MOL     H425342   7.321   0.588   0.374  0.2406 -0.1013  0.8222
  310MOL     H525343   7.198   0.703   0.409 -0.0776 -1.4577  2.2509
  310MOL     C625344   7.318   0.573   0.629 -0.2542 -0.2743 -0.6186
  310MOL     O725345   7.357   0.461   0.569 -0.0242  0.2073 -0.1631
  310MOL     H825346   7.209   0.577   0.629 -0.2903 -0.9963  0.4413
  310MOL     H925347   7.345   0.596   0.733  0.5157  0.5112 -0.9861
  310MOL    C1025348   7.495   0.445   0.595  0.8206 -0.6896  0.1468
  310MOL    O1125349   7.534   0.415   0.720 -0.0735 -0.7196 -0.0818
  310MOL    H1225350   7.549   0.536   0.573 -0.8114  0.0143 -1.0083
  310MOL    H1325351   7.525   0.365   0.527 -0.8652 -1.2250  0.0031
  310MOL    C1425352   7.671   0.380   0.730 -0.1783 -0.8776 -0.4065
  310MOL    O1525353   7.760   0.465   0.667 -0.2618 -0.0185  0.5874
  310MOL    H1625354   7.687   0.278   0.695  0.3551 -0.5608 -1.1055
  310MOL    H1725355   7.692   0.377   0.837 -0.5775 -1.7781 -0.3477
  310MOL    C1825356   7.771   0.593   0.731 -0.5470  0.1198  0.2447
  310MOL    O1925357   0.056   0.584   0.854  0.3057  0.3392  0.5029
  310MOL    H2025358   7.672   0.636   0.743  0.4636  2.1134  1.8250
  310MOL    H2125359   0.045   0.655   0.662  1.9947 -2.3628  0.0243
  310MOL    C2225360   0.117   0.706   0.884 -0.3849  0.2981 -0.1517
  310MOL    O2325361   0.162   0.719   1.015  0.0785 -0.2623  0.0814
  310MOL    H2425362   0.053   0.793   0.868 -1.5970 -0.1685  1.9775
  310MOL    H2525363   0.213   0.713   0.832 -0.5019  2.0024 -0.1624
  310MOL    C2625364   0.049   0.721   1.104  0.2466 -0.2563 -0.1931
  310MOL    O2725365   0.076   0.787   1.227  0.2200  0.6821  0.1754
  310MOL    H2825366   0.028   0.617   1.126 -1.4573 -0.4264 -2.4468
  310MOL    H2925367   7.748   0.770   1.056  0.8717  1.3669  0.3183
  310MOL    C3025368   7.765   0.875   1.276 -0.3822  0.2496 -0.0688
  310MOL    O3125369   7.673   0.797   1.349 -0.3373  0.2156  0.3696
  310MOL    H3225370   7.724   0.953   1.211 -1.5810  0.3515  0.7876
  310MOL    H3325371   0.032   0.939   1.347 -1.1869 -0.2929  1.0032
  310MOL    C3425372   7.555   0.763   1.279 -0.2325 -1.1022 -0.0418
  310MOL    O3525373   7.489   0.878   1.233  0.8029  0.1287 -0.2970
  310MOL    H3625374   7.492   0.712   1.352  0.3890 -1.2838  0.3613
  310MOL    H3725375   7.574   0.693   1.198 -1.8293 -0.5825 -0.9129
  310MOL    C3825376   7.411   0.844   1.121 -0.7139  0.7579 -1.3818
  310MOL    O3925377   7.486   0.830   1.007 -0.0149  0.1405  0.3862
  310MOL    H4025378   7.332   0.917   1.103 -0.6927  1.1729  0.1088
  310MOL    H4125379   7.372   0.744   1.136 -0.9859  1.0105 -0.3634
  310MOL    C4225380   7.529   0.956   0.955  0.3644 -0.4421 -0.1024
  310MOL    O4325381   7.583   0.943   0.827  0.0968  0.2566  0.2796
  310MOL    H4425382   7.606   0.989   1.026  0.9509  0.4931 -1.1549
  310MOL    H4525383   7.446   1.026   0.958  0.3437 -0.4390 -0.6678
  310MOL    C4625384   7.493   0.908   0.722  0.3903 -0.2387 -0.3960
  310MOL    O4725385   7.412   1.020   0.702  0.4340  0.1688 -0.4633
  310MOL    H4825386   7.438   0.816   0.743  0.5383 -0.1309  0.4653
  310MOL    H4925387   7.554   0.880   0.636  1.1594  0.2947 -0.0268
  310MOL    C5025388   7.482   1.134   0.667  0.5447 -0.1496 -0.0366
  310MOL    O5125389   7.539   1.124   0.541 -0.3176 -0.0883  0.1251
  310MOL    H5225390   7.570   1.157   0.727  0.7556 -0.9586 -0.0428
  310MOL    H5325391   7.410   1.216   0.673  0.8241  0.0671  0.4733
  310MOL    C5425392   7.450   1.122   0.438 -0.1185  0.2308 -0.4260
  310MOL    O5525393   7.444   1.257   0.390 -0.4491 -0.2455  0.3473
  310MOL    H5625394   7.348   1.104   0.471  0.6047  3.1617  3.7427
  310MOL    H5725395   7.474   1.059   0.352  1.4157  0.4045 -0.1417
  310MOL    C5825396   7.379   1.275   0.273 -0.4072 -0.5475 -0.2373
  310MOL    O5925397   7.244   1.267   0.281 -0.2412  0.2250 -0.1414
  310MOL    H6025398   7.420   1.198   0.208 -0.3684  0.0904 -0.9748
  310MOL    H6125399   7.417   1.371   0.239 -0.2891 -0.6321 -0.3459
  310MOL    C6225400   7.180   1.365   0.357 -0.3974  0.4049 -0.4247
  310MOL    O6325401   7.188   1.495   0.304 -0.1181  0.6509 -0.2334
  310MOL    H6425402   7.216   1.369   0.459  0.4621  0.1334 -0.7158
  310MOL    H6525403   7.074   1.339   0.362 -0.3561 -0.1754 -2.1849
  310MOL    C6625404   7.132   1.513   0.171 -0.1959 -0.3622 -0.4447
  310MOL    O6725405   6.999   1.496   0.172 -0.0732  0.0734  0.2398
  310MOL    H6825406   7.179   1.444   0.101 -0.0224 -0.6247 -0.0694
  310MOL    H6925407   7.160   1.615   0.145  0.7626 -0.4428  0.2319
  310MOL    C7025408   6.932   1.522   0.051  0.1067 -0.3188 -0.0756
  310MOL    O7125409   6.921   1.661   0.029 -0.3883 -0.3474 -0.5096
  310MOL    H7225410   6.834   1.478   0.038  0.1647  0.0861 -2.1162
  310MOL    H7325411   6.996   1.488   7.754 -1.3257 -0.7383 -1.0494
  310MOL    C7425412   6.827   1.717   0.119  0.4172 -0.2444  0.3476
  310MOL    O7525413   6.848   1.854   0.145 -0.2188  0.3605  0.1010
  310MOL    H7625414   6.827   1.673   0.218 -0.1133 -0.0076  0.4560
  310MOL    H7725415   6.724   1.717   0.083 -0.1371 -0.8717  1.9177
  310MOL    C7825416   6.963   1.883   0.215  0.6033 -0.5543  0.4462
  310MOL    O7925417   6.943   1.864   0.352  0.3398  0.1174  0.0026
  310MOL    H8025418   6.985   1.990   0.210 -0.7390 -0.3700 -2.2754
  310MOL    H8125419   7.049   1.820   0.191  1.9084  0.8171  1.4089
  310MOL    H8225420   6.893   1.933   0.393  0.4726 -0.9321  1.9895
  311MOL     C125421   1.762   3.355   3.966  0.1776 -0.0172 -0.7011
  311MOL     O225422   1.655   3.405   3.886  0.4754 -0.4603  0.7332
  311MOL     H325423   1.783   3.431   4.041  0.9145 -2.7941  2.0180
  311MOL     H425424   1.741   3.257   4.008 -0.6520  1.4835  2.5319
  311MOL     H525425   1.855   3.341   3.910  0.7646 -0.3808  0.3465
  311MOL     C625426   1.672   3.529   3.828  0.2111  0.1771  0.9565
  311MOL     O725427   1.644   3.631   3.911  0.2802  0.2227  0.1922
  311MOL     H825428   1.597   3.539   3.750  0.8296  3.4495  0.7424
  311MOL     H925429   1.767   3.527   3.775 -0.4852 -0.7464 -0.2897
  311MOL    C1025430   1.700   3.759   3.886  0.2371  0.1636 -0.3213
  311MOL    O1125431   1.830   3.768   3.924  0.1748  0.7712  0.8042
  311MOL    H1225432   1.632   3.832   3.930  1.1396 -0.0807  1.5447
  311MOL    H1325433   1.702   3.788   3.781 -1.5715 -1.8084 -0.9517
  311MOL    C1425434   1.840   3.789   4.055 -0.2157  0.3376  0.1603
  311MOL    O1525435   1.827   3.923   4.094  0.2635  0.1485  0.2878
  311MOL    H1625436   1.936   3.746   4.086 -0.1042  2.3141  2.7116
  311MOL    H1725437   1.767   3.735   4.115 -0.2457 -1.8808 -1.7728
  311MOL    C1825438   1.930   3.999   4.051 -0.5724 -0.1218 -0.1373
  311MOL    O1925439   1.922   4.045   3.918  0.3262  0.2105 -0.0069
  311MOL    H2025440   2.022   3.940   4.051 -0.9493 -0.7646 -2.1131
  311MOL    H2125441   1.942   4.079   4.123 -0.3585  1.5870 -2.0236
  311MOL    C2225442   1.829   4.149   3.901  0.4874  0.0647  0.7519
  311MOL    O2325443   1.893   4.272   3.924  0.1295 -0.4629 -0.2014
  311MOL    H2425444   1.744   4.129   3.966  0.6324 -1.1076  0.5874
  311MOL    H2525445   1.797   4.141   3.797  0.5533  1.2556  0.6301
  311MOL    C2625446   2.004   4.289   3.834 -0.0178  0.2919 -0.0357
  311MOL    O2725447   1.969   4.322   3.697 -0.8394  0.0529  0.0592
  311MOL    H2825448   2.067   4.200   3.825  1.6208  1.5591 -1.3529
  311MOL    H2925449   2.070   4.367   3.872 -0.2731 -0.6991  2.5415
  311MOL    C3025450   1.891   4.441   3.686  0.2709 -0.4205  0.6957
  311MOL    O3125451   1.849   4.464   3.546  0.0439  0.3291  0.7547
  311MOL    H3225452   1.948   4.533   3.700 -0.7005  0.1714  0.8020
  311MOL    H3325453   1.807   4.432   3.755  0.8259  0.1310  1.4611
  311MOL    C3425454   1.722   4.406   3.516 -0.5094  0.0486 -0.4539
  311MOL    O3525455   1.621   4.475   3.586  0.6814 -0.0300 -0.4972
  311MOL    H3625456   1.724   4.298   3.532 -0.0701  0.0804 -0.3040
  311MOL    H3725457   1.702   4.422   3.410  0.9431  2.7997 -0.3750
  311MOL    C3825458   1.495   4.426   3.580  0.0924 -0.0983 -0.7992
  311MOL    O3925459   1.490   4.297   3.624  0.3016  0.1822 -0.0770
  311MOL    H4025460   1.464   4.431   3.476 -0.8582 -0.9187 -0.5687
  311MOL    H4125461   1.427   4.485   3.642 -2.6717  0.3483 -4.1407
  311MOL    C4225462   1.499   4.279   3.765  0.0483  0.5360 -0.3741
  311MOL    O4325463   1.524   4.148   3.794  0.3133  0.2910 -0.1959
  311MOL    H4425464   1.413   4.318   3.818 -0.2207 -0.8969  0.2765
  311MOL    H4525465   1.592   4.333   3.784  1.3216 -1.5779 -0.4185
  311MOL    C4625466   1.413   4.068   3.770  0.2053  0.0746  0.5274
  311MOL    O4725467   1.315   4.096   3.861  0.0649  0.5298  0.0768
  311MOL    H4825468   1.440   3.962   3.768 -1.4678 -0.3796  1.0774
  311MOL    H4925469   1.378   4.089   3.669  1.6138 -1.4532 -0.3165
  311MOL    C5025470   1.206   4.012   3.859  0.6266 -0.6091 -0.1534
  311MOL    O5125471   1.240   3.881   3.886  0.5999 -0.0706  0.0616
  311MOL    H5225472   1.156   4.014   3.762  0.6632 -1.3272 -0.1897
  311MOL    H5325473   1.135   4.055   3.930  1.9109  0.0777  0.7364
  311MOL    C5425474   1.300   3.870   4.010  0.1159  0.4412  0.5767
  311MOL    O5525475   1.208   3.843   4.106  0.2938  0.0736  0.4034
  311MOL    H5625476   1.359   3.952   4.052 -1.1327  1.6559 -0.0057
  311MOL    H5725477   1.364   3.782   4.003  0.1376  0.4164  1.1040
  311MOL    C5825478   1.131   3.727   4.087 -0.2279 -0.5144 -0.4962
  311MOL    O5925479   1.057   3.695   4.207 -0.4583 -0.2997  0.4208
  311MOL    H6025480   1.190   3.636   4.071 -0.5741 -0.8364  0.0511
  311MOL    H6125481   1.068   3.736   3.999  0.2635 -2.4031 -1.0664
  311MOL    C6225482   0.948   3.777   4.238 -0.3675  0.0632  0.9867
  311MOL    O6325483   0.836   3.735   4.164 -0.4293 -0.0524  0.2942
  311MOL    H6425484   0.983   3.879   4.223 -1.3409  0.3923  0.9539
  311MOL    H6525485   0.917   3.780   4.342  0.2103 -0.3984  1.1734
  311MOL    C6625486   0.785   3.617   4.217  0.8802 -0.7221 -0.2053
  311MOL    O6725487   0.736   3.634   4.351 -0.0604 -0.3798  0.0780
  311MOL    H6825488   0.850   3.530   4.211  0.7957 -0.7523 -0.7189
  311MOL    H6925489   0.707   3.584   4.149  0.3275 -0.4840  0.3049
  311MOL    C7025490   0.649   3.530   4.391 -0.8351  0.2813 -0.0206
  311MOL    O7125491   0.711   3.405   4.422  0.6612  0.6233 -0.2879
  311MOL    H7225492   0.571   3.511   4.317 -1.4906 -1.4965  1.1027
  311MOL    H7325493   0.590   3.563   4.476 -2.1213 -0.5188 -0.5967
  311MOL    C7425494   0.620   3.302   4.430  0.1314  0.0293  0.2527
  311MOL    O7525495   0.571   3.265   4.305 -0.2987 -0.0783  0.2585
  311MOL    H7625496   0.538   3.338   4.493  1.3416  0.8716  1.3584
  311MOL    H7725497   0.662   3.218   4.485  1.3702  0.4473 -0.0440
  311MOL    C7825498   0.663   3.192   4.231  0.5318 -0.5546  0.5763
  311MOL    O7925499   0.596   3.129   4.124 -0.2358  0.5718 -0.3117
  311MOL    H8025500   0.717   3.120   4.292  0.4432 -1.5420 -0.5015
  311MOL    H8125501   0.737   3.263   4.195 -2.8348  3.1473  0.4637
  311MOL    H8225502   0.549   3.059   4.167 -0.2478  0.9561  0.2982
  312MOL     C125503   4.122   6.172   1.818 -0.0974 -0.8585 -0.8069
  312MOL     O225504   4.169   6.281   1.729 -0.3565 -0.0507 -0.0780
  312MOL     H325505   4.194   6.090   1.806  0.6677 -0.0976 -1.4884
  312MOL     H425506   4.124   6.211   1.919 -1.0605 -2.2102 -0.2494
  312MOL     H525507   4.019   6.148   1.795 -0.6596  0.4949  0.2846
  312MOL     C625508   4.082   6.395   1.723  0.4981  0.0293 -0.9186
  312MOL     O725509   4.085   6.452   1.849  0.0408  0.0365 -0.0058
  312MOL     H825510   3.985   6.354   1.696  0.8786 -0.7054 -1.1559
  312MOL     H925511   4.107   6.476   1.654  0.5305 -0.4294 -1.4431
  312MOL    C1025512   4.210   6.500   1.885  0.1890  0.3014 -0.0890
  312MOL    O1125513   4.244   6.618   1.822 -1.0685 -0.2421  0.0664
  312MOL    H1225514   4.291   6.427   1.888  1.5842  1.6827 -2.5373
  312MOL    H1325515   4.201   6.516   1.993  0.9868 -2.5989  0.4497
  312MOL    C1425516   4.366   6.622   1.765  0.0483 -0.6141  0.4924
  312MOL    O1525517   4.461   6.644   1.865  0.4746 -0.2768 -0.0720
  312MOL    H1625518   4.346   6.699   1.690 -1.0326 -0.3998  1.0003
  312MOL    H1725519   4.389   6.528   1.716  1.0569  0.2251 -0.7026
  312MOL    C1825520   4.583   6.648   1.809  0.2085 -0.3032 -0.2970
  312MOL    O1925521   4.632   6.526   1.773 -0.1151  0.0456 -0.4606
  312MOL    H2025522   4.650   6.682   1.888  1.2087 -1.2768 -0.7013
  312MOL    H2125523   4.595   6.717   1.726  0.8824  0.1338  0.1556
  312MOL    C2225524   4.772   6.526   1.765 -0.1712 -0.8248  0.2832
  312MOL    O2325525   4.824   6.499   1.886 -0.1231 -0.0057 -0.7122
  312MOL    H2425526   4.809   6.625   1.740 -0.2164 -0.6137  1.0573
  312MOL    H2525527   4.817   6.464   1.688  0.3312 -1.0464  0.7507
  312MOL    C2625528   4.816   6.369   1.918  0.4359  0.4628 -1.0338
  312MOL    O2725529   4.904   6.297   1.838  0.6730 -0.3093  0.1113
  312MOL    H2825530   4.710   6.347   1.905  0.0215  1.3783  0.6089
  312MOL    H2925531   4.849   6.372   2.022 -0.0509 -0.9514 -0.8262
  312MOL    C3025532   5.038   6.320   1.873 -0.0748 -0.0646 -0.6507
  312MOL    O3125533   5.089   6.235   1.966  0.1617  0.0490 -0.2569
  312MOL    H3225534   5.052   6.416   1.922 -0.6928  0.1556 -0.9083
  312MOL    H3325535   5.108   6.330   1.789 -0.5909 -1.5911 -1.2885
  312MOL    C3425536   5.092   6.107   1.922 -0.1637  0.6602  0.5956
  312MOL    O3525537   5.217   6.069   1.881  0.0490 -0.6803  0.2949
  312MOL    H3625538   5.022   6.090   1.840  0.7137 -1.6567  0.2749
  312MOL    H3725539   5.060   6.040   2.002 -2.7360 -1.4123 -2.0088
  312MOL    C3825540   5.308   6.060   1.987 -0.7063  0.1655 -0.1945
  312MOL    O3925541   5.377   6.179   2.010  0.8349  0.3603  0.4239
  312MOL    H4025542   5.374   5.976   1.963 -1.5016 -0.3483 -0.6127
  312MOL    H4125543   5.267   6.034   2.085 -0.7918 -0.3047 -0.3524
  312MOL    C4225544   5.497   6.185   1.941 -0.3356  0.2998 -0.0626
  312MOL    O4325545   5.604   6.116   2.005  1.0555 -0.2938 -0.0511
  312MOL    H4425546   5.514   6.292   1.936  0.9869  0.1028 -0.0399
  312MOL    H4525547   5.489   6.143   1.841 -1.5001 -0.2284  0.2552
  312MOL    C4625548   5.666   6.186   2.114  0.4463  1.0815  1.0675
  312MOL    O4725549   5.589   6.199   2.229  0.3283  0.3656  0.0897
  312MOL    H4825550   5.698   6.285   2.081  2.7746  0.1729  0.4986
  312MOL    H4925551   5.757   6.128   2.126 -0.4237 -0.3143  1.0173
  312MOL    C5025552   5.571   6.080   2.298 -0.0519  0.3933 -0.3917
  312MOL    O5125553   5.679   6.043   2.375  0.3860  0.6185 -0.0028
  312MOL    H5225554   5.548   5.998   2.229 -3.5717 -1.1449  2.4013
  312MOL    H5325555   5.483   6.090   2.361  0.0894  1.3868 -0.3499
  312MOL    C5425556   5.688   6.123   2.488 -0.4139  0.9630 -0.9040
  312MOL    O5525557   5.578   6.102   2.571 -0.1139  0.7838  0.1686
  312MOL    H5625558   5.679   6.229   2.466  0.2992  1.2041 -0.0666
  312MOL    H5725559   5.776   6.110   2.551 -1.3359  0.8247  0.3837
  312MOL    C5825560   5.588   5.985   2.655  0.4625 -0.4879  0.1116
  312MOL    O5925561   5.680   6.015   2.759 -0.2684 -0.1387  0.4919
  312MOL    H6025562   5.616   5.898   2.596  0.2184 -1.3370  1.2441
  312MOL    H6125563   5.486   5.969   2.690 -0.0983  1.7096 -0.4409
  312MOL    C6225564   5.633   6.102   2.859 -0.0956 -0.0247  0.3237
  312MOL    O6325565   5.530   6.046   2.925  0.0234  0.6177 -0.5889
  312MOL    H6425566   5.591   6.185   2.802  1.1906 -0.1665 -0.8421
  312MOL    H6525567   5.712   6.124   2.931  0.3789 -0.9438  0.0854
  312MOL    C6625568   5.565   5.938   3.004  0.1180  0.4811  0.2574
  312MOL    O6725569   5.650   5.979   3.110  0.7097 -0.0573 -0.3217
  312MOL    H6825570   5.619   5.861   2.948  0.1743  1.0452 -0.4757
  312MOL    H6925571   5.472   5.893   3.039  0.2257  0.2294  0.2253
  312MOL    C7025572   5.577   6.021   3.223 -0.2755 -0.2286  0.6089
  312MOL    O7125573   5.666   6.085   3.312 -0.1340  0.2812 -0.6684
  312MOL    H7225574   5.539   5.929   3.268 -1.3882  0.4649  1.0896
  312MOL    H7325575   5.492   6.086   3.203 -0.0540  0.3014  1.3528
  312MOL    C7425576   5.614   6.107   3.435 -0.3993  0.8732  0.1015
  312MOL    O7525577   5.511   6.207   3.412 -0.1579  0.0123  0.2233
  312MOL    H7625578   5.688   6.144   3.507 -0.4059  3.0057 -0.9344
  312MOL    H7725579   5.564   6.021   3.480  1.8859 -0.5001  0.1002
  312MOL    C7825580   5.564   6.332   3.391 -0.2048  0.3242 -0.0826
  312MOL    O7925581   5.469   6.432   3.364  0.0274  0.1280  0.1237
  312MOL    H8025582   5.648   6.337   3.321 -2.4808  2.5088 -2.7906
  312MOL    H8125583   5.605   6.366   3.485  1.6050 -0.2521 -0.6530
  312MOL    H8225584   5.477   6.454   3.273  2.5428  0.2570  0.3418
  313MOL     C125585   3.676   4.782   4.980 -0.4580  0.3351 -0.2198
  313MOL     O225586   3.699   4.649   5.025  0.5168  0.0771 -0.0308
  313MOL     H325587   3.680   4.794   4.872 -1.6096 -0.6154 -0.3782
  313MOL     H425588   3.573   4.816   4.994 -0.3615  0.8875 -0.8441
  313MOL     H525589   3.744   4.861   5.012 -1.1462  0.5248  0.8175
  313MOL     C625590   3.784   4.584   4.934 -0.3979  0.0987 -0.5160
  313MOL     O725591   3.899   4.654   4.897  0.4619  0.2128 -0.1698
  313MOL     H825592   3.724   4.563   4.846 -0.9859  0.0561 -0.1062
  313MOL     H925593   3.817   4.494   4.985  0.1718 -0.1968 -1.4065
  313MOL    C1025594   3.990   4.672   5.002  0.1381  0.1625 -0.1980
  313MOL    O1125595   4.108   4.743   4.968  0.3744 -0.1030 -0.2750
  313MOL    H1225596   4.006   4.573   5.046  3.4457 -0.4817 -2.6055
  313MOL    H1325597   3.932   4.732   5.071 -0.7488 -2.2268  1.1798
  313MOL    C1425598   4.198   4.655   4.902  0.4281 -0.5126  0.5420
  313MOL    O1525599   4.242   4.558   4.985 -0.3596 -0.4186  0.2478
  313MOL    H1625600   4.279   4.724   4.879 -0.2332  0.0876  0.0051
  313MOL    H1725601   4.173   4.605   4.809  2.0503  0.8869 -0.6746
  313MOL    C1825602   4.314   4.596   5.091  0.1914 -0.4921 -0.3648
  313MOL    O1925603   4.431   4.658   5.064 -0.2898  0.1990 -0.1550
  313MOL    H2025604   4.321   4.510   5.157  0.4755 -0.9236 -0.9562
  313MOL    H2125605   4.253   4.663   5.152 -1.5687 -3.3792  1.1634
  313MOL    C2225606   4.522   4.571   4.996  0.1415 -0.2645  0.2283
  313MOL    O2325607   4.593   4.488   5.076  0.2412  0.7769  0.5108
  313MOL    H2425608   4.591   4.633   4.939 -1.1831  2.2058  1.2483
  313MOL    H2525609   4.480   4.509   4.916  1.0164  1.9941 -2.0479
  313MOL    C2625610   4.697   4.544   5.133 -1.0140 -0.6631 -0.3331
  313MOL    O2725611   4.798   4.576   5.043 -0.2633 -0.2768  0.2140
  313MOL    H2825612   4.738   4.489   5.218  2.1408  2.0092 -0.0608
  313MOL    H2925613   4.678   4.639   5.182  0.1545 -0.4785 -0.2356
  313MOL    C3025614   4.842   4.463   4.981 -0.8978  0.2487 -0.4258
  313MOL    O3125615   4.919   4.387   5.070  0.1258 -0.0649 -0.0616
  313MOL    H3225616   4.894   4.489   4.888 -0.6630 -2.4949 -1.1011
  313MOL    H3325617   4.765   4.404   4.932 -1.2622  2.3285 -2.4378
  313MOL    C3425618   4.978   4.278   5.008 -0.0682 -0.2616  0.3587
  313MOL    O3525619   4.885   4.187   4.956 -0.4535 -0.7574 -0.4079
  313MOL    H3625620   5.040   4.226   5.080 -0.2798 -1.0155 -0.0067
  313MOL    H3725621   5.038   4.296   4.919 -1.6114 -0.8078 -0.8172
  313MOL    C3825622   4.818   4.118   5.053 -0.2659  0.4207  0.1153
  313MOL    O3925623   4.877   3.993   5.094  0.1835  0.0003  0.4792
  313MOL    H4025624   4.725   4.099   5.000  1.7288 -4.1357 -2.1088
  313MOL    H4125625   4.791   4.169   5.145 -0.9563 -0.4495  0.4004
  313MOL    C4225626   4.788   3.896   5.142  0.3679 -0.2814 -0.1383
  313MOL    O4325627   4.690   3.862   5.051 -0.3059  0.5525  0.2510
  313MOL    H4425628   4.723   3.922   5.225  2.6837  1.4524  1.2244
  313MOL    H4525629   4.847   3.811   5.177  0.5689 -0.4559 -0.8857
  313MOL    C4625630   4.734   3.788   4.940  0.5461  0.3880 -0.1025
  313MOL    O4725631   4.625   3.742   4.872 -0.3431  0.2291 -0.0865
  313MOL    H4825632   4.791   3.702   4.975  2.5244  1.1195 -1.4504
  313MOL    H4925633   4.805   3.841   4.877  0.1919 -0.7093 -1.4459
  313MOL    C5025634   4.555   3.841   4.805 -0.2214  0.0548 -0.6040
  313MOL    O5125635   4.633   3.914   4.714 -0.4774  0.1152 -0.1966
  313MOL    H5225636   4.515   3.911   4.878  0.7723 -1.6312  1.6268
  313MOL    H5325637   4.476   3.793   4.747 -0.9988 -0.9873  1.2649
  313MOL    C5425638   4.677   3.833   4.611 -0.1114 -0.2108 -0.2458
  313MOL    O5525639   4.577   3.785   4.536 -0.3135 -0.3053  0.1333
  313MOL    H5625640   4.732   3.746   4.647 -1.1133 -0.8188 -0.2004
  313MOL    H5725641   4.753   3.882   4.549 -0.5784 -0.0881 -0.7191
  313MOL    C5825642   4.513   3.873   4.445 -0.4115  0.4190 -0.2828
  313MOL    O5925643   4.384   3.898   4.481  0.6388 -0.0915  0.1741
  313MOL    H6025644   4.517   3.835   4.343 -0.6016  1.4888 -0.6954
  313MOL    H6125645   4.561   3.971   4.437  1.0230 -0.0116  2.3283
  313MOL    C6225646   4.309   3.783   4.494 -0.7761  0.5619 -0.2762
  313MOL    O6325647   4.287   3.711   4.380 -0.7628  0.3248 -0.5343
  313MOL    H6425648   4.213   3.805   4.541 -0.4905  0.0677  0.5382
  313MOL    H6525649   4.353   3.712   4.564  0.5297  0.6058 -1.0471
  313MOL    C6625650   4.180   3.749   4.294 -0.5403  0.3471 -0.0008
  313MOL    O6725651   4.053   3.704   4.332  0.0787 -0.3700  0.5161
  313MOL    H6825652   4.207   3.711   4.196 -2.6078  0.6847 -0.7144
  313MOL    H6925653   4.161   3.855   4.273 -3.1926 -0.0955 -0.0320
  313MOL    C7025654   4.036   3.565   4.319  0.1925  0.2184 -0.1437
  313MOL    O7125655   4.064   3.513   4.196  0.0204  0.4205  0.0929
  313MOL    H7225656   3.933   3.542   4.344  0.2292  1.6148  1.4133
  313MOL    H7325657   4.109   3.523   4.388  0.4116 -2.9840 -2.2688
  313MOL    C7425658   3.962   3.541   4.098  0.4971 -0.5295 -0.2542
  313MOL    O7525659   3.847   3.466   4.116 -0.3048 -0.7255 -0.2517
  313MOL    H7625660   4.004   3.513   4.001  0.3483 -2.1369  0.1246
  313MOL    H7725661   3.943   3.648   4.103  2.2975 -0.1950 -0.3341
  313MOL    C7825662   3.872   3.328   4.127  0.3497  0.7087  0.4466
  313MOL    O7925663   3.756   3.254   4.150  0.2153  0.2432 -0.2020
  313MOL    H8025664   3.940   3.306   4.209  0.8459 -1.6085 -0.5510
  313MOL    H8125665   3.922   3.287   4.039 -2.3841  0.0951 -0.8862
  313MOL    H8225666   3.717   3.223   4.069 -1.9331 -0.8576  1.2110
  314MOL     C125667   1.228   3.235   7.325 -0.8536  0.2377  0.1697
  314MOL     O225668   1.286   3.196   7.198  0.2677  0.0176 -0.8450
  314MOL     H325669   1.297   3.303   7.375  1.4675  0.2425 -2.8828
  314MOL     H425670   1.136   3.287   7.299 -1.5215 -1.0517 -0.0737
  314MOL     H525671   1.196   3.153   7.389 -3.2620  0.3154 -0.9021
  314MOL     C625672   1.405   3.121   7.202 -0.7645 -0.0810 -0.7881
  314MOL     O725673   1.385   3.000   7.270  0.5024 -0.4405 -0.2318
  314MOL     H825674   1.477   3.181   7.258 -1.1366 -1.7331  1.5847
  314MOL     H925675   1.449   3.100   7.105 -1.6187 -1.7614 -0.8257
  314MOL    C1025676   1.309   2.917   7.192 -0.5168 -0.3364  0.0165
  314MOL    O1125677   1.382   2.878   7.075 -0.0377 -0.9498  0.7501
  314MOL    H1225678   1.219   2.971   7.162 -0.9378  0.5808  2.7922
  314MOL    H1325679   1.272   2.844   7.264  0.8280  1.1645  2.2825
  314MOL    C1425680   1.306   2.800   6.991  0.4157 -0.6554  0.2546
  314MOL    O1525681   1.198   2.871   6.946 -0.0452  0.1837 -0.2788
  314MOL    H1625682   1.272   2.708   7.039  0.8056 -1.4066 -0.8822
  314MOL    H1725683   1.379   2.775   6.914 -0.3018 -0.4771 -0.4802
  314MOL    C1825684   1.120   2.807   6.854 -0.4501 -0.7184 -0.1219
  314MOL    O1925685   1.077   2.673   6.901 -0.1278  0.0011  0.4722
  314MOL    H2025686   1.173   2.801   6.759 -2.0010  0.4178 -1.0875
  314MOL    H2125687   1.035   2.874   6.841  0.0971 -0.1675 -0.9312
  314MOL    C2225688   1.071   2.577   6.791  0.9404  0.3075 -0.1217
  314MOL    O2325689   0.946   2.552   6.745  0.2785  0.1270  0.0616
  314MOL    H2425690   1.116   2.487   6.832  2.4785  1.1776  0.1359
  314MOL    H2525691   1.137   2.597   6.706 -0.3594 -2.0597 -1.7358
  314MOL    C2625692   0.874   2.473   6.834  0.0994 -0.3472  0.2451
  314MOL    O2725693   0.924   2.340   6.849  0.0626 -0.6503 -0.0963
  314MOL    H2825694   0.773   2.456   6.798 -0.1460  3.3540 -1.0644
  314MOL    H2925695   0.877   2.518   6.933  0.7923 -3.2680  1.5995
  314MOL    C3025696   0.932   2.271   6.731  0.4107  0.4044  0.3599
  314MOL    O3125697   0.815   2.261   6.656  0.0156 -0.8011 -0.2817
  314MOL    H3225698   0.967   2.170   6.752 -1.7682 -0.3482  0.5289
  314MOL    H3325699   0.987   2.331   6.660 -2.6105  1.7361 -0.9389
  314MOL    C3425700   0.716   2.178   6.726  0.6850 -0.0244  1.0253
  314MOL    O3525701   0.750   2.046   6.702 -0.5580  0.5017 -0.0168
  314MOL    H3625702   0.615   2.200   6.691  1.1029  0.0619 -0.1423
  314MOL    H3725703   0.717   2.209   6.831  4.6504  0.8530  0.8197
  314MOL    C3825704   0.749   2.006   6.567 -0.1034  0.3985 -0.0649
  314MOL    O3925705   0.620   1.974   6.532 -0.0794 -0.3484 -0.4469
  314MOL    H4025706   0.812   1.926   6.528 -0.9034 -0.4776  0.4344
  314MOL    H4125707   0.766   2.085   6.493 -2.6684 -0.4990 -1.6701
  314MOL    C4225708   0.570   1.863   6.603 -0.0022 -0.3577  0.5200
  314MOL    O4325709   0.651   1.748   6.587  0.3256  0.2057 -0.2044
  314MOL    H4425710   0.472   1.835   6.564  1.4919 -2.8994 -1.6052
  314MOL    H4525711   0.561   1.873   6.711 -1.9376  0.1765  0.3302
  314MOL    C4625712   0.630   1.680   6.468  0.1249  0.0672 -0.2122
  314MOL    O4725713   0.505   1.620   6.471 -0.5440 -0.5342 -0.4718
  314MOL    H4825714   0.700   1.600   6.446  1.3842  1.0398  0.1899
  314MOL    H4925715   0.635   1.760   6.394 -1.5246 -0.6774 -1.1603
  314MOL    C5025716   0.496   1.521   6.571 -0.3613 -0.2514  0.0200
  314MOL    O5125717   0.538   1.400   6.516  0.4708  0.1351  0.0466
  314MOL    H5225718   0.393   1.516   6.604 -0.6308  0.5049 -0.6900
  314MOL    H5325719   0.549   1.541   6.664  0.5851 -1.5469 -0.2353
  314MOL    C5425720   0.445   1.351   6.429 -0.3599 -0.1918  0.7576
  314MOL    O5525721   0.416   1.218   6.472 -0.3127  0.1799  0.0923
  314MOL    H5625722   0.490   1.361   6.330  0.4150 -2.1733  0.8856
  314MOL    H5725723   0.352   1.406   6.424 -0.4227 -0.4644 -1.9137
  314MOL    C5825724   0.354   1.218   6.598  0.2735  0.5925 -0.1673
  314MOL    O5925725   0.223   1.265   6.591 -0.0173  0.1092  0.1890
  314MOL    H6025726   0.406   1.265   6.681 -0.0026 -2.0855  1.5976
  314MOL    H6125727   0.341   1.114   6.629 -2.2252  0.5828 -1.0944
  314MOL    C6225728   0.143   1.213   6.489  0.0505  0.4925  0.1459
  314MOL    O6325729   0.013   1.242   6.512 -0.9878 -0.9356  0.0962
  314MOL    H6425730   0.133   1.105   6.491  0.6099  0.4022 -1.3244
  314MOL    H6525731   0.168   1.244   6.388  0.5928 -0.0008  0.1282
  314MOL    C6625732   7.714   1.231   6.401 -0.0156  0.3208 -0.1622
  314MOL    O6725733   7.693   1.096   6.367 -0.2212 -0.9603  0.3026
  314MOL    H6825734   7.761   1.284   6.318  0.9194 -0.6661 -0.2671
  314MOL    H6925735   7.619   1.284   6.413 -0.5893 -0.8486  0.5998
  314MOL    C7025736   7.579   1.045   6.422  0.5338  0.7776  0.1986
  314MOL    O7125737   7.579   1.030   6.561  0.0082  0.0491  1.0090
  314MOL    H7225738   7.545   0.956   6.370  1.2824 -0.6013  1.9780
  314MOL    H7325739   7.493   1.110   6.408 -0.0890 -0.2194 -0.6544
  314MOL    C7425740   7.654   0.923   6.590  0.2653 -0.4313 -0.2798
  314MOL    O7525741   7.636   0.889   6.728 -0.1121 -0.5266  0.3017
  314MOL    H7625742   7.758   0.941   6.564  0.7932  0.2912  2.1332
  314MOL    H7725743   7.636   0.833   6.532  2.3335 -0.4461 -0.9387
  314MOL    C7825744   7.694   0.985   6.810 -0.1532  0.5350  0.6827
  314MOL    O7925745   7.693   0.937   6.945  0.0561 -0.6954 -0.6908
  314MOL    H8025746   7.656   1.087   6.810 -2.2695 -0.2228 -1.0581
  314MOL    H8125747   0.015   0.988   6.782 -0.1665 -2.2637  0.2254
  314MOL    H8225748   7.606   0.941   6.982 -0.2229  2.3023 -1.5669
  315MOL     C125749   3.203   6.353   2.989 -0.5141  0.0801  0.0238
  315MOL     O225750   3.220   6.483   2.947  0.2328 -0.4887 -0.0804
  315MOL     H325751   3.262   6.320   3.075 -3.2316 -2.9026  0.8454
  315MOL     H425752   3.099   6.353   3.022 -0.3200 -0.8040  0.6602
  315MOL     H525753   3.204   6.289   2.901 -1.6812  1.4775 -1.0232
  315MOL     C625754   3.346   6.501   2.890 -0.2272 -0.1749 -0.2232
  315MOL     O725755   3.354   6.423   2.766 -0.6296  0.0550  0.6070
  315MOL     H825756   3.424   6.484   2.965  0.6892  0.2327 -1.0696
  315MOL     H925757   3.355   6.607   2.864 -2.2586  0.6407  2.1862
  315MOL    C1025758   3.285   6.493   2.661  0.3266 -0.5345  0.0259
  315MOL    O1125759   3.365   6.586   2.608 -0.3976 -0.3885 -0.3621
  315MOL    H1225760   3.204   6.550   2.708  0.7582 -0.9725  1.3275
  315MOL    H1325761   3.245   6.428   2.584 -0.2105 -1.1356  0.8051
  315MOL    C1425762   3.449   6.541   2.512 -0.0657  0.0842 -0.3953
  315MOL    O1525763   3.387   6.502   2.401 -0.1582 -0.3035  0.4447
  315MOL    H1625764   3.501   6.458   2.560 -2.4799 -0.5780  1.1484
  315MOL    H1725765   3.524   6.612   2.475  0.5898 -1.6901 -2.6080
  315MOL    C1825766   3.339   6.612   2.326  0.1614  0.3878 -0.5209
  315MOL    O1925767   3.255   6.565   2.227  0.3706  0.3083 -0.0527
  315MOL    H2025768   3.425   6.662   2.282  0.3249  1.4888  1.0189
  315MOL    H2125769   3.286   6.687   2.385 -1.4743 -1.9955  1.1279
  315MOL    C2225770   3.315   6.483   2.131  0.0791 -0.0089  0.1727
  315MOL    O2325771   3.243   6.488   2.011 -0.1984 -0.5102  0.2201
  315MOL    H2425772   3.291   6.382   2.162 -2.2246 -0.1756 -1.9887
  315MOL    H2525773   3.422   6.497   2.114 -0.1806  0.7940 -0.8716
  315MOL    C2625774   3.239   6.615   1.951  0.2355 -0.0514  0.0681
  315MOL    O2725775   3.363   6.642   1.891 -0.1604  0.2659 -0.2682
  315MOL    H2825776   3.214   6.689   2.027  1.3756 -0.3553  0.7558
  315MOL    H2925777   3.171   6.602   1.867 -2.1178 -0.5806  1.9977
  315MOL    C3025778   3.411   6.772   1.910  0.0489  0.3503  0.1333
  315MOL    O3125779   3.318   6.870   1.868 -1.1882 -0.1006 -0.3169
  315MOL    H3225780   3.503   6.777   1.851  1.0755 -4.0847  1.1683
  315MOL    H3325781   3.443   6.787   2.014  2.2917  0.2572 -0.5036
  315MOL    C3425782   3.277   6.860   1.735  0.7738 -0.2724  0.1276
  315MOL    O3525783   3.386   6.880   1.647 -0.2347 -0.4657 -0.4543
  315MOL    H3625784   3.214   6.948   1.717 -0.8065 -1.0113  1.8783
  315MOL    H3725785   3.227   6.769   1.704  0.9389 -0.6847  1.0711
  315MOL    C3825786   3.424   7.019   1.638  0.9127  0.5802 -0.9796
  315MOL    O3925787   3.345   7.086   1.550  0.1438 -0.5979  0.2270
  315MOL    H4025788   3.530   7.029   1.618  0.9162  4.1937  0.5173
  315MOL    H4125789   3.397   7.078   1.726  1.3214 -2.2653  1.1418
  315MOL    C4225790   3.417   7.119   1.436 -0.2330  0.2310  0.7884
  315MOL    O4325791   3.481   7.240   1.460 -0.0188 -0.7009 -0.3468
  315MOL    H4425792   3.361   7.144   1.346 -1.6312 -1.2223  1.2301
  315MOL    H4525793   3.478   7.032   1.409 -0.1248  0.2016  1.1233
  315MOL    C4625794   3.570   7.291   1.361 -0.1437  0.2179  0.1854
  315MOL    O4725795   3.499   7.341   1.258  0.3466 -0.1688 -0.3801
  315MOL    H4825796   3.630   7.213   1.314 -0.5572 -0.1198  0.2132
  315MOL    H4925797   3.638   7.367   1.399  0.5692  0.1743 -0.9682
  315MOL    C5025798   3.461   7.470   1.275  0.2391 -0.1113 -0.0219
  315MOL    O5125799   3.569   7.559   1.262 -0.1756 -0.3553  0.0978
  315MOL    H5225800   3.429   7.488   1.378  0.4078  1.4803 -0.2378
  315MOL    H5325801   3.378   7.499   1.210  2.2751  2.8892 -1.3586
  315MOL    C5425802   3.589   7.575   1.121  0.1898 -0.6577 -0.2520
  315MOL    O5525803   3.492   7.668   1.074  0.1479 -0.4715  0.4944
  315MOL    H5625804   3.589   7.482   1.065 -2.6535 -0.5936 -0.4373
  315MOL    H5725805   3.690   7.615   1.114 -0.8044  2.2195  1.1657
  315MOL    C5825806   3.508   0.013   1.120  0.5154  0.0061 -0.2520
  315MOL    O5925807   3.631   0.078   1.066 -0.2572  0.1755  0.3445
  315MOL    H6025808   3.533   0.017   1.226 -2.4272 -0.7860  0.4996
  315MOL    H6125809   3.416   0.071   1.111  1.2821  1.2291 -0.3436
  315MOL    C6225810   3.620   0.126   0.937  0.9080 -1.0524 -0.3550
  315MOL    O6325811   3.745   0.139   0.874 -0.7950 -0.1734 -0.4697
  315MOL    H6425812   3.572   0.224   0.939  2.2504 -0.3630 -1.4678
  315MOL    H6525813   3.557   0.057   0.881 -2.2267  1.5870 -0.2192
  315MOL    C6625814   3.805   0.017   0.842 -0.1080  0.1498  0.2896
  315MOL    O6725815   3.736   7.742   0.736 -0.2147  0.1982 -0.2640
  315MOL    H6825816   3.805   7.737   0.930 -1.0823 -0.0884  0.1278
  315MOL    H6925817   3.911   0.028   0.821 -0.4194 -0.7424 -1.8089
  315MOL    C7025818   3.780   7.774   0.607  0.8494 -0.3781 -0.2159
  315MOL    O7125819   3.913   7.752   0.599  0.0995  0.4003  0.2027
  315MOL    H7225820   3.755   0.094   0.584 -0.3272 -0.9532 -1.6295
  315MOL    H7325821   3.715   7.713   0.544 -1.5629  1.9569 -0.0971
  315MOL    C7425822   3.950   7.675   0.489 -0.0480  0.2631 -0.4448
  315MOL    O7525823   3.890   7.546   0.491  0.1608 -0.2513  0.0901
  315MOL    H7625824   4.058   7.661   0.484 -0.0719 -0.6021  1.1523
  315MOL    H7725825   3.921   7.728   0.398  0.4653  0.5201 -0.4606
  315MOL    C7825826   3.934   7.459   0.594 -0.4484  0.2451 -0.8496
  315MOL    O7925827   3.857   7.343   0.601  0.0341  0.8488  0.2735
  315MOL    H8025828   3.919   7.506   0.691 -0.5103 -0.2293 -0.6259
  315MOL    H8125829   4.041   7.440   0.582 -0.1540  1.2468  0.1369
  315MOL    H8225830   3.764   7.353   0.613  0.0380  0.9195  0.2483
  316MOL     C125831   7.070   3.130   0.757  0.1748  0.3709  0.1504
  316MOL     O225832   7.118   2.992   0.734  0.2321  0.2343  0.4931
  316MOL     H325833   7.093   3.167   0.857  1.6132  0.9575 -0.3839
  316MOL     H425834   7.128   3.201   0.698  1.5205 -1.5416 -0.9159
  316MOL     H525835   6.965   3.140   0.732  0.4908  1.6419 -0.7000
  316MOL     C625836   7.111   2.969   0.592 -0.0574  0.4745 -0.4244
  316MOL     O725837   7.182   2.853   0.552  0.4686  0.0016 -0.2317
  316MOL     H825838   7.154   3.046   0.528  2.5247 -0.9589 -0.4969
  316MOL     H925839   7.005   2.959   0.570 -0.7863 -0.4641  3.1367
  316MOL    C1025840   7.321   2.860   0.580  0.3126  0.1684  0.3691
  316MOL    O1125841   7.402   2.933   0.489  0.8614 -0.3652  0.6201
  316MOL    H1225842   7.362   2.760   0.566 -0.3513  0.0131 -0.4996
  316MOL    H1325843   7.341   2.891   0.683 -0.2773  0.3220  0.4359
  316MOL    C1425844   7.425   2.868   0.369 -0.2135 -0.1506 -0.4690
  316MOL    O1525845   7.527   2.774   0.381 -0.2074 -0.6830 -0.5158
  316MOL    H1625846   7.449   2.940   0.291 -2.3740  1.6464  0.4651
  316MOL    H1725847   7.332   2.821   0.337 -0.3452  0.2663 -0.7003
  316MOL    C1825848   7.651   2.824   0.417 -0.1248 -0.0922 -0.3703
  316MOL    O1925849   7.737   2.725   0.471  0.2062  0.1186 -0.2498
  316MOL    H2025850   7.653   2.909   0.484  1.4940 -0.1063 -0.3901
  316MOL    H2125851   7.690   2.856   0.320 -2.7491  2.5419 -0.6169
  316MOL    C2225852   7.720   2.701   0.605 -0.3892  0.4157 -0.2951
  316MOL    O2325853   7.763   2.799   0.695  0.9716  0.3976  0.5998
  316MOL    H2425854   7.779   2.610   0.614  0.7525  1.0876 -0.9293
  316MOL    H2525855   7.615   2.685   0.629 -0.5793  0.8491 -0.8392
  316MOL    C2625856   7.744   2.758   0.831 -0.3429  0.1914  0.0828
  316MOL    O2725857   0.019   2.636   0.856  0.7684 -0.2228 -0.0853
  316MOL    H2825858   7.638   2.746   0.856 -0.0376  0.2365  1.4064
  316MOL    H2925859   7.773   2.833   0.904  1.6353 -0.1781 -0.2947
  316MOL    C3025860   0.154   2.644   0.889 -0.1114 -1.1492 -0.1133
  316MOL    O3125861   0.170   2.708   1.013  0.0798 -0.1420  0.6676
  316MOL    H3225862   0.205   2.707   0.817  1.8668 -1.7837  0.7107
  316MOL    H3325863   0.188   2.541   0.885  0.4689 -0.9652 -0.0277
  316MOL    C3425864   0.262   2.639   1.097  0.0681  0.2158 -0.2626
  316MOL    O3525865   0.388   2.642   1.036  0.2102  0.0031 -0.5465
  316MOL    H3625866   0.231   2.536   1.118 -0.9895  0.3679 -1.0344
  316MOL    H3725867   0.270   2.687   1.194 -1.8793  1.6527 -0.7887
  316MOL    C3825868   0.484   2.565   1.110  0.3766 -0.0564  0.0763
  316MOL    O3925869   0.472   2.424   1.109  0.4754 -0.2337 -0.3639
  316MOL    H4025870   0.478   2.596   1.214  1.0086 -0.5859  0.2697
  316MOL    H4125871   0.582   2.599   1.079 -0.0947  1.0957 -0.1838
  316MOL    C4225872   0.482   2.370   0.976 -0.3202  0.2697 -0.1992
  316MOL    O4325873   0.450   2.234   0.967  0.8287  0.3167  0.1084
  316MOL    H4425874   0.587   2.364   0.949  0.1650  2.9794  0.9091
  316MOL    H4525875   0.421   2.422   0.902 -1.8028  0.7398  1.3134
  316MOL    C4625876   0.322   2.200   1.014 -0.0067 -0.0975  0.1749
  316MOL    O4725877   0.287   2.065   1.029 -0.2405  0.0331 -0.0719
  316MOL    H4825878   0.242   2.223   0.944  0.0173  1.9928  0.7841
  316MOL    H4925879   0.310   2.242   1.114  0.7174  0.6142 -0.0329
  316MOL    C5025880   0.375   1.996   1.110 -0.0754 -0.1034 -0.0622
  316MOL    O5125881   0.405   2.060   1.234 -0.5677 -0.2341  0.0876
  316MOL    H5225882   0.462   1.998   1.045 -0.1140  2.3779 -0.1085
  316MOL    H5325883   0.331   1.897   1.117  0.0625 -0.2359 -1.0525
  316MOL    C5425884   0.301   2.068   1.320 -0.1161 -0.1374 -0.8759
  316MOL    O5525885   0.329   2.159   1.425 -0.2628  0.2457  0.1298
  316MOL    H5625886   0.285   1.969   1.361 -0.6837 -0.5695 -2.1170
  316MOL    H5725887   0.216   2.115   1.271 -0.5327 -0.2471 -0.2475
  316MOL    C5825888   0.352   2.288   1.371 -0.1134 -0.3158  0.3850
  316MOL    O5925889   0.235   2.356   1.324 -0.2385  0.4177  0.4678
  316MOL    H6025890   0.427   2.291   1.291  0.0973 -1.2248  0.5400
  316MOL    H6125891   0.392   2.346   1.454  1.5281 -0.8662  0.0036
  316MOL    C6225892   0.137   2.380   1.420 -0.3609  0.0796  0.7648
  316MOL    O6325893   0.016   2.435   1.359 -0.1740 -0.6019  0.4151
  316MOL    H6425894   0.181   2.445   1.496  2.3116 -1.5730  0.6861
  316MOL    H6525895   0.124   2.282   1.465 -1.9703  0.4005  1.0295
  316MOL    C6625896   7.725   2.343   1.292  0.0569  0.9691  0.3807
  316MOL    O6725897   7.757   2.331   1.157 -0.5240 -0.1247  0.1564
  316MOL    H6825898   7.621   2.366   1.312  0.0464  0.2716  1.1514
  316MOL    H6925899   7.748   2.243   1.330 -2.6723 -0.1427 -0.7979
  316MOL    C7025900   7.701   2.432   1.076  0.1418 -0.4343  0.4126
  316MOL    O7125901   7.563   2.450   1.088 -0.3835 -0.3771  0.1957
  316MOL    H7225902   7.732   2.426   0.972  0.1864 -0.0122  0.4009
  316MOL    H7325903   7.742   2.522   1.122 -0.9331  0.4881 -0.3912
  316MOL    C7425904   7.488   2.356   1.027  0.1443  0.2557 -0.0901
  316MOL    O7525905   7.506   2.357   0.890  0.3591  0.1627 -0.6051
  316MOL    H7625906   7.383   2.374   1.052 -0.4826  0.1655 -2.5344
  316MOL    H7725907   7.514   2.254   1.055 -0.4570 -0.8022 -3.1771
  316MOL    C7825908   7.462   2.466   0.825  0.7035 -0.9928  0.2061
  316MOL    O7925909   7.486   2.455   0.686 -0.4122  1.0629 -0.1817
  316MOL    H8025910   7.518   2.553   0.857  0.0663 -0.8450  0.9382
  316MOL    H8125911   7.354   2.474   0.842  0.3411 -0.0046 -2.3379
  316MOL    H8225912   7.416   2.402   0.651  1.4831  0.2454 -2.9024
  317MOL     C125913   4.209   7.660   7.749 -0.2887  0.5283  0.3598
  317MOL     O225914   4.173   7.707   0.092  1.0164 -0.0556 -0.2686
  317MOL     H325915   4.215   7.552   7.764  1.5705  0.6886  0.8365
  317MOL     H425916   4.127   7.686   7.683  2.0193  1.0355 -2.3999
  317MOL     H525917   4.300   7.693   7.699  0.7170 -1.7712  0.6311
  317MOL     C625918   4.276   7.692   0.178 -0.1562  0.1193  0.5504
  317MOL     O725919   4.245   7.764   0.294  0.2632  0.4650  0.1666
  317MOL     H825920   4.375   7.710   0.135 -0.7079 -0.8718 -1.1818
  317MOL     H925921   4.281   7.585   0.199 -0.3844  0.0520  0.2537
  317MOL    C1025922   4.290   0.112   0.285 -0.1991 -0.1364 -0.3481
  317MOL    O1125923   4.283   0.187   0.398 -0.2798 -0.2455 -0.1425
  317MOL    H1225924   4.238   0.154   0.200 -0.8404 -0.8443 -0.3075
  317MOL    H1325925   4.394   0.117   0.252 -0.2689  1.4179 -0.3576
  317MOL    C1425926   4.148   0.190   0.438 -0.4297 -0.7678  0.2258
  317MOL    O1525927   4.077   0.281   0.356  0.2529 -0.0745 -0.3706
  317MOL    H1625928   4.130   0.220   0.541 -0.1848 -0.0794  0.0697
  317MOL    H1725929   4.108   0.089   0.442 -3.4288  0.4061  1.9706
  317MOL    C1825930   3.946   0.303   0.398 -0.6309  0.4559  0.3396
  317MOL    O1925931   3.865   0.190   0.377 -0.1611  1.0309  0.0301
  317MOL    H2025932   3.910   0.384   0.335 -1.8218  2.0511  2.9965
  317MOL    H2125933   3.946   0.327   0.504  1.2970  3.2603 -0.2514
  317MOL    C2225934   3.865   0.153   0.238 -0.2119 -0.0827 -0.1773
  317MOL    O2325935   3.767   0.061   0.208  0.4223  0.3370 -0.0012
  317MOL    H2425936   3.962   0.107   0.218 -0.5076 -0.3044 -1.1605
  317MOL    H2525937   3.852   0.240   0.174 -0.0729  0.6309  0.7613
  317MOL    C2625938   3.638   0.128   0.207 -0.3840 -0.2606 -0.3378
  317MOL    O2725939   3.618   0.215   0.100  0.0253 -0.0516 -0.6803
  317MOL    H2825940   3.638   0.184   0.301 -1.5124  0.7778 -0.9354
  317MOL    H2925941   3.556   0.059   0.227 -3.3378  3.0703 -0.3572
  317MOL    C3025942   3.520   0.165   0.014  0.5284  0.2744 -0.4137
  317MOL    O3125943   3.394   0.195   0.069 -0.3679  0.3997  0.1558
  317MOL    H3225944   3.535   0.057   0.019  1.0500  0.3647  0.1215
  317MOL    H3325945   3.533   0.209   7.699  1.0662 -1.1426 -0.9977
  317MOL    C3425946   3.292   0.138   7.781 -0.2923  0.4720 -0.1916
  317MOL    O3525947   3.297   0.001   0.021 -0.0971 -0.3345  0.0644
  317MOL    H3625948   3.297   0.162   7.675 -0.8990 -0.3668 -0.4099
  317MOL    H3725949   3.199   0.182   0.033  0.9355  1.7068  1.6346
  317MOL    C3825950   3.184   7.721   7.756  0.1265  0.8223  0.2049
  317MOL    O3925951   3.175   7.730   7.619  0.1599  0.0394  0.2458
  317MOL    H4025952   3.098   7.773   0.016 -0.5131 -0.1857  0.1561
  317MOL    H4125953   3.194   7.620   0.013 -0.6202  0.2825 -0.9277
  317MOL    C4225954   3.277   7.660   7.556  0.0550  0.5692  0.4283
  317MOL    O4325955   3.279   7.689   7.420 -0.0542 -0.2627  0.0325
  317MOL    H4425956   3.269   7.552   7.565  1.6062  0.4799  0.8522
  317MOL    H4525957   3.376   7.676   7.598  0.9011  3.0800 -2.3087
  317MOL    C4625958   3.301   0.040   7.403  0.7644  0.6018 -0.0240
  317MOL    O4725959   3.429   0.086   7.444  1.0809  0.0114  0.0158
  317MOL    H4825960   3.235   0.109   7.457  1.0722 -0.5031  1.8232
  317MOL    H4925961   3.292   0.050   7.295  0.4353 -0.2383 -0.0776
  317MOL    C5025962   3.463   0.210   7.399  0.5212 -0.3618  0.3024
  317MOL    O5125963   3.463   0.209   7.260  0.3177 -0.1763  0.0110
  317MOL    H5225964   3.562   0.231   7.441 -0.2376  1.3245  1.2793
  317MOL    H5325965   3.392   0.285   7.434 -0.0357  0.6746 -2.8088
  317MOL    C5425966   3.591   0.223   7.210 -0.0278  0.4489  0.3384
  317MOL    O5525967   3.668   0.110   7.233 -0.2247 -0.0634 -0.2828
  317MOL    H5625968   3.630   0.318   7.244  0.7485  0.4971 -0.6492
  317MOL    H5725969   3.585   0.234   7.101 -0.7081 -0.9688  0.2211
  317MOL    C5825970   3.621   7.775   7.174  0.0883  0.0194 -0.3073
  317MOL    O5925971   3.612   0.010   7.039  0.3864  0.5582  0.3216
  317MOL    H6025972   3.522   7.745   7.208  0.7981  2.3617  4.2574
  317MOL    H6125973   3.688   7.693   7.202 -1.1937 -1.3440 -1.1532
  317MOL    C6225974   3.684   7.697   6.964 -0.1341 -0.6107 -0.4467
  317MOL    O6325975   3.628   7.577   6.989 -0.0108 -0.0146  0.1968
  317MOL    H6425976   3.789   7.703   6.993 -0.3765 -0.8037  0.4753
  317MOL    H6525977   3.685   7.721   6.858  2.7796  2.5908  0.2344
  317MOL    C6625978   3.505   7.558   6.926  0.4838 -0.1493 -0.4856
  317MOL    O6725979   3.519   7.519   6.791 -0.9720 -0.0178 -0.0765
  317MOL    H6825980   3.440   7.645   6.924 -0.8690 -1.1537 -1.3697
  317MOL    H6925981   3.461   7.472   6.977  2.3334 -1.5488 -1.1740
  317MOL    C7025982   3.402   7.493   6.723 -1.1346  0.4981 -0.1591
  317MOL    O7125983   3.335   7.380   6.764  0.2370 -0.5869 -0.3318
  317MOL    H7225984   3.423   7.466   6.619  1.3664 -1.0244  0.6887
  317MOL    H7325985   3.333   7.576   6.737 -0.8896  1.2556 -3.0463
  317MOL    C7425986   3.407   7.259   6.740 -0.1538  0.0038  0.5610
  317MOL    O7525987   3.407   7.232   6.601 -0.0071  0.4393  0.3173
  317MOL    H7625988   3.364   7.175   6.794  2.7026 -3.3060 -2.0329
  317MOL    H7725989   3.514   7.271   6.762  0.5229  2.6893 -3.6825
  317MOL    C7825990   3.291   7.158   6.572  0.0989 -0.9849  0.4893
  317MOL    O7925991   3.280   7.148   6.436  0.2239 -0.0791  0.4614
  317MOL    H8025992   3.200   7.206   6.607  0.4631  0.4696 -0.5342
  317MOL    H8125993   3.288   7.057   6.614 -3.3849 -0.1656  2.3729
  317MOL    H8225994   3.222   7.217   6.411  2.4036  1.3304 -0.8387
  318MOL     C125995   5.434   4.567   6.476 -0.7217 -0.8700 -0.2034
  318MOL     O225996   5.515   4.545   6.362  0.2161 -0.4194  0.6860
  318MOL     H325997   5.480   4.643   6.539 -1.4608 -0.4387 -0.1922
  318MOL     H425998   5.343   4.607   6.432 -0.1152 -0.0194 -0.6958
  318MOL     H525999   5.422   4.475   6.533  1.9304 -0.7546  0.6526
  318MOL     C626000   5.571   4.662   6.310  0.1839 -0.4424 -0.1196
  318MOL     O726001   5.669   4.714   6.401 -0.3966  0.0904  0.1024
  318MOL     H826002   5.492   4.735   6.291  1.8233  2.1585  2.6821
  318MOL     H926003   5.616   4.648   6.212  0.7376 -1.6503  0.2998
  318MOL    C1026004   5.796   4.649   6.375  0.1732 -0.0628 -0.0872
  318MOL    O1126005   5.868   4.699   6.260 -1.1988 -0.3161  0.2391
  318MOL    H1226006   5.790   4.541   6.394 -1.3840  0.2608  1.3803
  318MOL    H1326007   5.852   4.687   6.460 -0.7334  1.8259 -0.3141
  318MOL    C1426008   5.898   4.832   6.257 -0.2017  0.1023  0.1174
  318MOL    O1526009   5.944   4.871   6.134 -0.1038  0.0240 -0.0088
  318MOL    H1626010   5.980   4.840   6.328 -0.6319  0.7751  0.5486
  318MOL    H1726011   5.811   4.891   6.284  0.1564  0.9635 -0.5805
  318MOL    C1826012   6.056   4.802   6.086 -0.0142 -0.0557 -0.8390
  318MOL    O1926013   6.168   4.802   6.174  0.3416  0.2932  0.1687
  318MOL    H2026014   6.086   4.846   5.990 -0.0796  0.5462 -0.5856
  318MOL    H2126015   6.017   4.703   6.060 -1.5466  0.1198  0.7266
  318MOL    C2226016   6.247   4.917   6.148 -0.1743 -0.3446 -0.1054
  318MOL    O2326017   6.301   4.916   6.026 -0.2536  0.8812  0.4739
  318MOL    H2426018   6.313   4.941   6.232  2.1076  1.4144 -2.2961
  318MOL    H2526019   6.178   5.001   6.151  0.6117  0.3636 -1.0605
  318MOL    C2626020   6.424   4.853   6.028  0.4650 -0.1585  0.5040
  318MOL    O2726021   6.521   4.935   6.083 -0.7290  0.5590 -0.8023
  318MOL    H2826022   6.457   4.829   5.927  0.4605  0.7398  0.2865
  318MOL    H2926023   6.413   4.766   6.093  0.1511  0.6680  1.5780
  318MOL    C3026024   6.648   4.883   6.059 -0.0743  0.3456  0.3940
  318MOL    O3126025   6.668   4.765   6.128  0.6930  0.3404 -0.7022
  318MOL    H3226026   6.721   4.956   6.094  1.2555 -0.8269  0.1438
  318MOL    H3326027   6.662   4.873   5.951  2.0030 -0.8656  0.7505
  318MOL    C3426028   6.650   4.784   6.268 -0.4586 -0.1199 -0.5384
  318MOL    O3526029   6.700   4.907   6.317  0.2576  0.1016  0.4696
  318MOL    H3626030   6.700   4.714   6.334 -1.7259  0.3457  0.9444
  318MOL    H3726031   6.544   4.785   6.293 -0.1009 -0.4320  1.0285
  318MOL    C3826032   6.691   4.917   6.457 -0.5584 -0.3854  0.2345
  318MOL    O3926033   6.556   4.907   6.496  0.2019  0.2287 -0.2251
  318MOL    H4026034   6.740   5.004   6.500  1.4590 -2.4940  2.3686
  318MOL    H4126035   6.745   4.840   6.512 -0.0243 -0.8965 -1.0003
  318MOL    C4226036   6.496   5.031   6.474  0.7502 -0.6776 -1.2553
  318MOL    O4326037   6.353   5.041   6.500  0.2856  0.3272 -0.4388
  318MOL    H4426038   6.497   5.066   6.370 -1.1638 -0.0304 -1.0736
  318MOL    H4526039   6.552   5.106   6.529 -2.0903 -0.3819  1.3631
  318MOL    C4626040   6.326   5.014   6.630 -0.4282  0.0587  0.3665
  318MOL    O4726041   6.393   5.100   6.721 -0.0081  0.4620  0.1373
  318MOL    H4826042   6.347   4.910   6.654 -0.4321 -0.4767 -1.8019
  318MOL    H4926043   6.218   5.023   6.645 -0.8285 -2.5147 -0.6228
  318MOL    C5026044   6.352   5.230   6.713  0.5362  0.2331  0.1197
  318MOL    O5126045   6.222   5.248   6.758 -0.5622  0.6128  0.0348
  318MOL    H5226046   6.357   5.251   6.607 -0.7472  0.1195  0.0266
  318MOL    H5326047   6.420   5.301   6.759 -0.6856  0.5892  1.4329
  318MOL    C5426048   6.171   5.375   6.739 -0.2754 -0.2245 -0.0858
  318MOL    O5526049   6.226   5.465   6.836 -0.2210  0.3719 -0.0630
  318MOL    H5626050   6.064   5.368   6.760 -0.4416  0.7288 -0.5812
  318MOL    H5726051   6.193   5.409   6.638 -1.4106 -0.4753 -0.4225
  318MOL    C5826052   6.180   5.438   6.961 -0.4197  0.0197  0.9798
  318MOL    O5926053   6.271   5.482   7.056 -0.1227  0.1406 -0.2252
  318MOL    H6026054   6.161   5.334   6.989 -0.9947  0.1525  1.0824
  318MOL    H6126055   6.085   5.489   6.970 -0.5529  0.1338 -0.9183
  318MOL    C6226056   6.399   5.426   7.050 -0.3665 -0.3695 -0.4445
  318MOL    O6326057   6.393   5.291   7.073  0.4246  0.0371  0.6112
  318MOL    H6426058   6.450   5.476   7.132 -0.6866 -2.3817  1.0017
  318MOL    H6526059   6.434   5.455   6.950  0.2287 -1.2493 -0.4996
  318MOL    C6626060   6.342   5.254   7.198 -0.0458  0.5413 -0.1249
  318MOL    O6726061   6.436   5.269   7.301  0.9709  0.2967  0.2720
  318MOL    H6826062   6.325   5.147   7.192  1.3102  0.0669  3.3387
  318MOL    H6926063   6.251   5.308   7.226 -0.8899  1.0262 -3.5114
  318MOL    C7026064   6.524   5.162   7.303 -0.3392 -0.4375  0.4027
  318MOL    O7126065   6.485   5.041   7.357  0.7372 -0.7919 -0.2319
  318MOL    H7226066   6.612   5.192   7.360 -0.7753  2.0467 -0.1830
  318MOL    H7326067   6.562   5.141   7.202 -0.9318  0.0338  0.0774
  318MOL    C7426068   6.442   5.052   7.492  0.0237 -0.8217  0.0341
  318MOL    O7526069   6.552   5.074   7.574  0.0578 -0.1220 -0.8446
  318MOL    H7626070   6.389   4.959   7.511 -0.5818 -0.3074  0.9445
  318MOL    H7726071   6.371   5.134   7.507  0.3048 -0.9293  2.0889
  318MOL    C7826072   6.538   5.008   7.696  0.2455  0.0985  0.1689
  318MOL    O7926073   6.633   5.054   7.773 -0.2353 -0.0561 -0.1739
  318MOL    H8026074   6.566   4.903   7.691  0.4094  0.1149  0.6934
  318MOL    H8126075   6.439   5.014   7.741 -0.0767 -0.0097 -0.5180
  318MOL    H8226076   6.717   5.011   7.766  0.7918  1.3744  2.6679
  319MOL     C126077   0.568   6.778   5.824  0.0267  0.3211  0.0332
  319MOL     O226078   0.626   6.893   5.766 -0.7283 -0.8415  0.2531
  319MOL     H326079   0.534   6.711   5.745  4.1043 -3.1368  1.0012
  319MOL     H426080   0.647   6.727   5.880 -1.6631 -0.1012  2.0805
  319MOL     H526081   0.480   6.807   5.881 -0.6449  0.5756 -1.1148
  319MOL     C626082   0.712   6.962   5.848  0.4976 -0.3809  0.1661
  319MOL     O726083   0.649   7.031   5.954 -0.4731 -0.0856  0.4850
  319MOL     H826084   0.768   7.031   5.786  1.3091 -1.3231 -0.1678
  319MOL     H926085   0.788   6.896   5.890  1.8931  1.5608  0.7528
  319MOL    C1026086   0.727   7.137   5.999 -0.2057  0.1077 -0.6497
  319MOL    O1126087   0.856   7.098   6.032  0.0748 -0.3142 -0.0251
  319MOL    H1226088   0.678   7.191   6.080 -0.6068  0.0828 -0.8721
  319MOL    H1326089   0.739   7.209   5.919 -0.0137  0.1855 -0.5497
  319MOL    C1426090   0.867   7.007   6.135 -0.3408  0.3211  0.5136
  319MOL    O1526091   0.842   7.058   6.262  0.1916  0.0617  0.2758
  319MOL    H1626092   0.971   6.977   6.143 -0.4949 -0.4394 -0.2806
  319MOL    H1726093   0.808   6.917   6.116 -2.1976  1.4802  0.6477
  319MOL    C1826094   0.841   6.957   6.361 -0.0522 -0.3876 -0.6351
  319MOL    O1926095   0.964   6.891   6.367 -0.6882 -0.2285  0.0725
  319MOL    H2026096   0.754   6.894   6.340 -0.5670  0.7942 -2.1770
  319MOL    H2126097   0.822   6.991   6.463  0.3067 -0.1035 -0.6638
  319MOL    C2226098   0.966   6.799   6.467  0.0362  0.3211  1.3208
  319MOL    O2326099   0.876   6.694   6.436  0.3676 -0.3615 -0.1158
  319MOL    H2426100   0.940   6.849   6.560 -0.5966  0.3307  1.1464
  319MOL    H2526101   1.062   6.748   6.477  0.3000  0.8170  1.3316
  319MOL    C2626102   0.877   6.594   6.532 -0.3024  0.0591 -0.0113
  319MOL    O2726103   0.815   6.629   6.657 -0.3844  0.4753 -0.2803
  319MOL    H2826104   0.980   6.561   6.550 -0.1822  0.9747  0.9756
  319MOL    H2926105   0.824   6.511   6.485 -1.8970  0.6762  0.6654
  319MOL    C3026106   0.681   6.662   6.643  0.4407  0.1716  0.5625
  319MOL    O3126107   0.598   6.553   6.614  0.2223  0.5302  0.0256
  319MOL    H3226108   0.665   6.744   6.573  1.9090  1.0922  1.2808
  319MOL    H3326109   0.654   6.702   6.741 -1.2012 -2.0923  1.0821
  319MOL    C3426110   0.569   6.464   6.720 -0.0612 -0.1691  0.6586
  319MOL    O3526111   0.492   6.528   6.817  0.8434 -0.1486  0.4629
  319MOL    H3626112   0.661   6.425   6.765  1.1906  0.0448 -1.6736
  319MOL    H3726113   0.508   6.378   6.693  1.4339 -0.9485 -0.3006
  319MOL    C3826114   0.368   6.554   6.774  0.2455  0.8972 -0.1147
  319MOL    O3926115   0.279   6.603   6.874 -0.2176 -0.1165  0.0973
  319MOL    H4026116   0.320   6.466   6.730 -1.9406  1.5087  0.9372
  319MOL    H4126117   0.361   6.613   6.683 -3.3432  0.9680  0.1084
  319MOL    C4226118   0.310   6.728   6.914  0.3349 -0.0785  1.3692
  319MOL    O4326119   0.284   6.829   6.822  0.3686 -0.2754 -0.1086
  319MOL    H4426120   0.416   6.733   6.942  0.7674 -0.7168 -0.1193
  319MOL    H4526121   0.249   6.752   7.002 -0.2308 -0.6020  1.1204
  319MOL    C4626122   0.149   6.851   6.787 -0.0668  0.3729 -0.9247
  319MOL    O4726123   0.077   6.883   6.902  0.3649  0.5703  0.7105
  319MOL    H4826124   0.115   6.756   6.745 -1.8949  1.0262 -0.9465
  319MOL    H4926125   0.144   6.937   6.721  1.4967  0.1873 -1.3109
  319MOL    C5026126   7.737   6.829   6.889  0.7517  0.1648  0.4663
  319MOL    O5126127   7.675   6.879   6.776  0.0809  0.2812  0.8730
  319MOL    H5226128   7.687   6.862   6.980 -0.5635  0.8127 -0.4703
  319MOL    H5326129   7.724   6.721   6.886  3.2597 -0.1815  0.9379
  319MOL    C5426130   7.633   7.011   6.794 -0.5183  0.6079  0.1936
  319MOL    O5526131   7.513   7.009   6.871  0.1923  0.0026 -0.3595
  319MOL    H5626132   7.601   7.024   6.691  0.3618 -2.7707 -0.5503
  319MOL    H5726133   7.705   7.088   6.822  0.9133 -0.3766 -0.7152
  319MOL    C5826134   7.484   7.135   6.942 -0.7300  0.0121  0.5230
  319MOL    O5926135   7.450   7.243   6.854 -0.1471  0.2593  0.2852
  319MOL    H6026136   7.570   7.155   7.005  1.3638 -1.7526 -1.6365
  319MOL    H6126137   7.405   7.103   7.009  0.1353  0.1712  1.6267
  319MOL    C6226138   7.346   7.321   6.904  0.2389  0.0707 -0.6466
  319MOL    O6326139   7.233   7.254   6.880 -0.2894 -0.1187 -0.0502
  319MOL    H6426140   7.329   7.410   6.845 -2.0603  0.5058  0.6070
  319MOL    H6526141   7.379   7.349   7.004 -0.5884  3.1437 -1.1817
  319MOL    C6626142   7.125   7.309   6.947  0.0128 -0.5371 -0.7236
  319MOL    O6726143   7.062   7.420   6.888 -0.6980  0.1432  0.0379
  319MOL    H6826144   7.163   7.339   7.045  0.0906 -0.0924 -0.8854
  319MOL    H6926145   7.048   7.234   6.962 -1.8445  1.2474 -1.0903
  319MOL    C7026146   6.981   7.395   6.779 -0.3946  0.2193 -0.2254
  319MOL    O7126147   6.861   7.339   6.812  0.7743  0.1303  0.0727
  319MOL    H7226148   7.032   7.328   6.710  1.6940  1.6661 -0.1233
  319MOL    H7326149   6.959   7.490   6.731 -1.9729 -1.0758 -2.1417
  319MOL    C7426150   6.783   7.416   6.893  0.2301 -0.9813 -0.9508
  319MOL    O7526151   6.668   7.349   6.937 -0.4738  0.0627  0.1558
  319MOL    H7626152   6.763   7.512   6.846  0.8761 -0.2116  0.3306
  319MOL    H7726153   6.836   7.436   6.986  0.4001 -1.4184 -0.9506
  319MOL    C7826154   6.562   7.358   6.851 -0.4801 -0.3020  0.0623
  319MOL    O7926155   6.453   7.290   6.908 -0.0360  0.1839  0.3286
  319MOL    H8026156   6.585   7.317   6.752  0.7698  0.7839 -0.1157
  319MOL    H8126157   6.520   7.458   6.842 -0.5640 -0.5298 -2.5625
  319MOL    H8226158   6.482   7.201   6.921  2.9614  0.7710 -1.8786
  320MOL     C126159   6.561   6.514   7.403  0.1617  0.0503  0.0083
  320MOL     O226160   6.543   6.650   7.394  0.0089 -0.0460  0.5464
  320MOL     H326161   6.546   6.474   7.303  1.4516  0.8904 -0.5240
  320MOL     H426162   6.663   6.499   7.439 -0.0065  0.2592  0.5819
  320MOL     H526163   6.490   6.461   7.467 -0.8195  1.1950 -0.1202
  320MOL     C626164   6.644   6.713   7.333  0.4140 -0.0608 -0.7177
  320MOL     O726165   6.647   6.678   7.197 -0.0569  0.2293  0.6606
  320MOL     H826166   6.742   6.704   7.381  0.9419  2.7734 -1.1842
  320MOL     H926167   6.605   6.814   7.328 -0.5025 -0.4614 -2.0212
  320MOL    C1026168   6.761   6.726   7.131  0.4043  0.6650 -0.4328
  320MOL    O1126169   6.879   6.668   7.188 -0.1817  0.2499  0.2131
  320MOL    H1226170   6.766   6.833   7.152 -1.0747  0.2777  2.1209
  320MOL    H1326171   6.763   6.709   7.024 -0.3054 -0.7625 -0.2332
  320MOL    C1426172   6.887   6.531   7.167 -0.4321 -0.1196  0.0238
  320MOL    O1526173   6.920   6.510   7.032  0.6064 -0.4620 -0.3534
  320MOL    H1626174   6.786   6.495   7.186 -0.3571  0.2066  1.0440
  320MOL    H1726175   6.954   6.481   7.237  0.0249  0.9045  0.3259
  320MOL    C1826176   7.061   6.505   7.019  0.1646 -0.2357  0.6552
  320MOL    O1926177   7.107   6.389   7.079 -0.1889 -0.3861  0.0039
  320MOL    H2026178   7.108   6.598   7.049  1.0623  0.0804 -1.6419
  320MOL    H2126179   7.086   6.500   6.913 -0.2089  1.1666  0.4925
  320MOL    C2226180   7.049   6.268   7.041 -0.0154 -0.3301  0.0764
  320MOL    O2326181   7.116   6.219   6.928  0.3071 -0.3825 -0.2131
  320MOL    H2426182   6.944   6.279   7.014  0.2916  0.9212 -0.6475
  320MOL    H2526183   7.071   6.200   7.123 -0.3061  1.3564  1.5919
  320MOL    C2626184   7.217   6.129   6.963 -0.0802 -0.2475 -0.5076
  320MOL    O2726185   7.169   6.010   7.017  0.1259 -0.1070 -0.2262
  320MOL    H2826186   7.276   6.181   7.037 -1.5128 -0.9507  1.1541
  320MOL    H2926187   7.284   6.108   6.879  3.8838  3.8082  1.4190
  320MOL    C3026188   7.093   5.946   6.921 -0.2327  0.0065 -0.1046
  320MOL    O3126189   7.012   5.844   6.979  0.4161 -0.0477  0.4900
  320MOL    H3226190   7.152   5.907   6.838 -1.8466  0.2755 -1.3924
  320MOL    H3326191   7.023   6.014   6.872  0.7068  0.8226 -0.3311
  320MOL    C3426192   7.091   5.743   7.032  0.0602  0.3421 -1.4367
  320MOL    O3526193   7.152   5.668   6.929 -0.1634  0.0059  0.1377
  320MOL    H3626194   7.038   5.680   7.104 -1.4009  1.2996 -1.6423
  320MOL    H3726195   7.155   5.795   7.103 -1.1882  2.5530 -1.8861
  320MOL    C3826196   7.255   5.584   6.971 -0.1104  0.9585 -0.2933
  320MOL    O3926197   7.375   5.645   7.012 -0.2605 -0.3588  0.2580
  320MOL    H4026198   7.272   5.504   6.900  2.0786 -0.1624  1.4271
  320MOL    H4126199   7.231   5.511   7.048  1.9765 -0.2502 -0.7629
  320MOL    C4226200   7.436   5.707   6.905  0.0037  0.3365  0.7327
  320MOL    O4326201   7.545   5.781   6.952 -0.5150 -0.4093  0.1598
  320MOL    H4426202   7.371   5.769   6.843  0.8669 -1.0487 -1.6538
  320MOL    H4526203   7.482   5.623   6.851  0.7026  2.0600 -1.4393
  320MOL    C4626204   7.514   5.890   7.034 -0.4590 -1.3505 -0.5732
  320MOL    O4726205   7.605   5.996   7.026 -0.1132 -0.0702  0.6745
  320MOL    H4826206   7.489   5.862   7.137  1.9520 -1.5445 -0.0152
  320MOL    H4926207   7.423   5.941   7.004  0.2136 -0.1077 -0.5327
  320MOL    C5026208   7.734   5.967   7.074 -0.4445 -0.2939  0.7867
  320MOL    O5126209   0.004   6.063   7.159 -0.4720  0.1199  0.3748
  320MOL    H5226210   7.774   5.937   6.977 -1.9180  1.0322 -0.2637
  320MOL    H5326211   7.731   5.883   7.143 -3.1043  1.1563  2.5479
  320MOL    C5426212   0.038   6.175   7.092 -0.5476 -0.9762  0.0355
  320MOL    O5526213   0.102   6.264   7.171  0.5990  0.0744  0.2846
  320MOL    H5626214   7.738   6.226   7.046  0.5436  1.4762  0.7195
  320MOL    H5726215   0.101   6.146   7.008 -0.3457 -2.3697  0.6521
  320MOL    C5826216   0.019   6.333   7.255  0.7132  0.3099  0.2019
  320MOL    O5926217   7.750   6.440   7.182 -0.7080 -0.0555 -0.1749
  320MOL    H6026218   0.076   6.380   7.336  0.6905 -2.6865  2.0249
  320MOL    H6126219   7.727   6.264   7.292  1.1007 -1.1298 -1.6413
  320MOL    C6226220   0.042   6.553   7.172  0.3724  0.2547 -0.2164
  320MOL    O6326221   0.022   6.637   7.286 -0.5425 -0.7421 -0.5911
  320MOL    H6426222   0.019   6.617   7.087 -2.6994  2.3708  2.1119
  320MOL    H6526223   0.148   6.526   7.165 -0.1893 -1.8254 -1.0152
  320MOL    C6626224   7.681   6.702   7.287 -0.2247 -0.5146 -0.3040
  320MOL    O6726225   7.677   6.821   7.210 -0.6823 -0.0806  0.0680
  320MOL    H6826226   7.640   6.728   7.385  0.9395  0.2918 -0.0177
  320MOL    H6926227   7.603   6.629   7.262 -1.3323  1.1370 -1.8002
  320MOL    C7026228   7.779   6.911   7.245  0.0398 -0.1288 -0.7180
  320MOL    O7126229   7.737   7.013   7.332  0.3675 -0.1279 -0.0705
  320MOL    H7226230   0.038   6.957   7.156  3.0503 -0.8003  0.2921
  320MOL    H7326231   0.078   6.853   7.289 -0.8745 -1.0079 -0.1356
  320MOL    C7426232   7.657   7.107   7.273 -0.3342 -0.8279  0.7688
  320MOL    O7526233   7.732   7.182   7.186  0.8888 -0.1714  0.0972
  320MOL    H7626234   7.614   7.167   7.353 -0.9455 -0.8199  0.4330
  320MOL    H7726235   7.576   7.064   7.214 -1.5444 -0.5744  2.2085
  320MOL    C7826236   0.030   7.270   7.254 -1.4809  0.1989  0.5058
  320MOL    O7926237   0.070   7.374   7.172 -1.0047 -0.4462  0.2060
  320MOL    H8026238   0.122   7.230   7.297 -2.0466 -1.3898  0.2921
  320MOL    H8126239   7.749   7.316   7.328 -2.1653 -1.8572  1.2134
  320MOL    H8226240   0.149   7.341   7.131  0.5062 -0.0049  2.6417
  321MOL     C126241   0.585   0.253   3.172  0.4900  0.0623 -0.0331
  321MOL     O226242   0.587   0.345   3.282 -0.1961  0.0431 -0.0081
  321MOL     H326243   0.628   0.156   3.198 -1.2424 -0.3878  1.2453
  321MOL     H426244   0.485   0.232   3.134 -0.9001  1.0700  2.8891
  321MOL     H526245   0.648   0.298   3.095 -0.5368 -0.7250 -1.3692
  321MOL     C626246   0.492   0.307   3.384 -0.5632 -0.3684  0.1018
  321MOL     O726247   0.360   0.334   3.344 -0.5842 -0.0031 -0.1556
  321MOL     H826248   0.523   0.377   3.462  0.9452  2.5572 -2.9610
  321MOL     H926249   0.495   0.205   3.421  0.8985  0.0651  1.2410
  321MOL    C1026250   0.341   0.467   3.296  0.2992  0.0079  0.0655
  321MOL    O1126251   0.205   0.497   3.279  0.2051 -0.1601  0.4535
  321MOL    H1226252   0.377   0.467   3.193 -0.6338  1.6465 -0.2758
  321MOL    H1326253   0.385   0.543   3.360 -0.4857 -0.4509  1.1724
  321MOL    C1426254   0.138   0.477   3.400 -0.0345  0.2651  0.0125
  321MOL    O1526255   0.164   0.591   3.480 -0.6788  0.1600  0.2840
  321MOL    H1626256   0.153   0.384   3.455 -1.9204  0.0799  0.2642
  321MOL    H1726257   0.032   0.475   3.371 -1.1274 -0.7005  3.7610
  321MOL    C1826258   0.121   0.577   3.610 -0.6286 -0.1863  0.4570
  321MOL    O1926259   0.219   0.520   3.693  0.7286 -0.4919 -0.3067
  321MOL    H2026260   0.034   0.511   3.609  1.1353 -2.5607  0.3374
  321MOL    H2126261   0.075   0.668   3.650 -0.7279 -0.1822  0.3310
  321MOL    C2226262   0.325   0.602   3.727 -0.1077 -0.5715  0.2955
  321MOL    O2326263   0.283   0.705   3.810  0.1166  0.6790  0.2704
  321MOL    H2426264   0.357   0.647   3.633  2.7282 -1.0704  0.9820
  321MOL    H2526265   0.409   0.552   3.775  0.7248 -0.4337 -1.0180
  321MOL    C2626266   0.389   0.774   3.886  0.0209  0.1035 -0.5524
  321MOL    O2726267   0.491   0.804   3.802  0.0385  0.0984  0.5241
  321MOL    H2826268   0.415   0.712   3.972  0.1401 -0.1249 -0.7502
  321MOL    H2926269   0.339   0.863   3.922 -0.8328 -0.5895 -0.0239
  321MOL    C3026270   0.590   0.873   3.859 -0.4141 -1.3571 -0.1380
  321MOL    O3126271   0.557   0.998   3.899 -0.4738 -0.0141  0.2048
  321MOL    H3226272   0.667   0.875   3.782 -1.2510  1.1436 -0.9810
  321MOL    H3326273   0.633   0.832   3.951 -0.2589 -3.8730 -1.2966
  321MOL    C3426274   0.533   1.085   3.795 -0.8660 -0.4726  0.2297
  321MOL    O3526275   0.645   1.131   3.733  0.2277 -0.1909 -0.5037
  321MOL    H3626276   0.491   1.172   3.846 -1.5382  0.5794 -2.0291
  321MOL    H3726277   0.463   1.040   3.725 -0.5276  1.5278 -1.4407
  321MOL    C3826278   0.727   1.218   3.817 -0.1214 -0.2984 -0.2597
  321MOL    O3926279   0.669   1.344   3.850  0.1107 -0.6529 -0.1944
  321MOL    H4026280   0.814   1.231   3.752 -0.7390 -1.0229 -1.2289
  321MOL    H4126281   0.743   1.169   3.913 -0.0434 -0.1934 -0.2191
  321MOL    C4226282   0.767   1.440   3.878 -0.0918 -0.8150 -0.3723
  321MOL    O4326283   0.846   1.407   3.981 -0.3142 -0.2837  0.0166
  321MOL    H4426284   0.717   1.537   3.882  0.0368 -0.6672 -2.2669
  321MOL    H4526285   0.829   1.452   3.790 -1.6559  0.9135 -1.2881
  321MOL    C4626286   0.951   1.497   4.000 -0.4319 -0.0225  0.3322
  321MOL    O4726287   1.060   1.459   3.927 -0.2791 -0.5373  0.5227
  321MOL    H4826288   0.974   1.505   4.106  0.2203  0.8166  0.1365
  321MOL    H4926289   0.929   1.597   3.963 -1.0151 -0.9927 -2.0463
  321MOL    C5026290   1.136   1.357   3.993  0.7316 -0.1306 -0.1610
  321MOL    O5126291   1.216   1.416   4.090 -0.6535 -0.3313 -0.0100
  321MOL    H5226292   1.202   1.314   3.917 -0.8430 -1.1817 -0.9592
  321MOL    H5326293   1.069   1.279   4.028  0.2269  0.3236 -0.1128
  321MOL    C5426294   1.266   1.318   4.173  0.3089  0.4549 -0.1420
  321MOL    O5526295   1.177   1.287   4.279  0.0771  0.0768  0.2188
  321MOL    H5626296   1.362   1.349   4.211  0.1763 -0.2882  0.8190
  321MOL    H5726297   1.294   1.223   4.128  0.8175  0.3420  0.4189
  321MOL    C5826298   1.158   1.393   4.366  0.5286 -0.0226 -0.2196
  321MOL    O5926299   1.279   1.434   4.431 -0.6624 -0.5000  0.1350
  321MOL    H6026300   1.094   1.366   4.450 -2.1746  3.9259 -0.8585
  321MOL    H6126301   1.101   1.474   4.320 -1.6391  0.5237  3.2462
  321MOL    C6226302   1.331   1.345   4.519  0.0337  0.0436  0.4904
  321MOL    O6326303   1.267   1.351   4.638  0.4075 -0.8024 -0.7717
  321MOL    H6426304   1.439   1.363   4.529  0.6490 -1.6855 -2.5236
  321MOL    H6526305   1.315   1.246   4.476  0.0489  1.2897 -2.5048
  321MOL    C6626306   1.285   1.477   4.708  0.2163 -0.3570 -0.0673
  321MOL    O6726307   1.400   1.486   4.789 -0.9195 -0.1639  0.1793
  321MOL    H6826308   1.195   1.501   4.765  1.5955 -0.2061  2.0955
  321MOL    H6926309   1.297   1.561   4.639 -2.3697  1.4370  1.5944
  321MOL    C7026310   1.389   1.394   4.898  0.0750 -0.2310 -0.4741
  321MOL    O7126311   1.476   1.433   4.999 -0.8237 -0.0278 -0.2047
  321MOL    H7226312   1.408   1.293   4.862  0.3329 -0.4676  0.3145
  321MOL    H7326313   1.287   1.397   4.935  0.3140  1.7695  0.1008
  321MOL    C7426314   1.439   1.547   5.079 -0.3519  0.4257 -0.2724
  321MOL    O7526315   1.321   1.522   5.148  0.8350 -0.0633 -0.1502
  321MOL    H7626316   1.431   1.638   5.020  2.8378  1.0580  0.1655
  321MOL    H7726317   1.522   1.564   5.147 -0.0018 -1.4876 -0.1839
  321MOL    C7826318   1.337   1.423   5.249 -0.2266 -0.0094  0.1677
  321MOL    O7926319   1.211   1.378   5.282  0.6620  0.1403  0.8312
  321MOL    H8026320   1.370   1.480   5.335 -0.5724 -0.1041  0.3593
  321MOL    H8126321   1.406   1.339   5.232 -0.9885 -0.5239 -0.4208
  321MOL    H8226322   1.211   1.306   5.342 -2.6235 -0.2848  0.3795
  322MOL     C126323   0.303   6.573   5.042 -0.1046 -0.0566 -0.1087
  322MOL     O226324   0.350   6.581   4.908  0.3387 -0.1647  0.2478
  322MOL     H326325   0.379   6.583   5.120 -1.0292 -0.2609  0.8325
  322MOL     H426326   0.244   6.663   5.061 -0.2690 -0.3268  0.6902
  322MOL     H526327   0.243   6.485   5.063 -1.8562  1.0069 -0.5713
  322MOL     C626328   0.414   6.701   4.891 -1.3537 -0.1299 -0.0916
  322MOL     O726329   0.512   6.728   4.982 -0.1543  1.0563 -0.5551
  322MOL     H826330   0.335   6.776   4.904  0.0936  1.4751 -0.3664
  322MOL     H926331   0.442   6.686   4.787 -0.8847  3.5493 -0.5640
  322MOL    C1026332   0.636   6.673   4.955  0.3130 -0.2637  0.1019
  322MOL    O1126333   0.677   6.719   4.829 -0.1417  0.0222 -0.3600
  322MOL    H1226334   0.630   6.567   4.932 -1.4240  0.0513 -0.9985
  322MOL    H1326335   0.700   6.696   5.041  3.8805  0.4919 -2.6449
  322MOL    C1426336   0.729   6.845   4.834 -0.7375 -0.7740  0.6862
  322MOL    O1526337   0.760   6.885   4.707  0.4089 -0.0327 -0.0401
  322MOL    H1626338   0.825   6.836   4.883  0.3810  3.0647 -0.5817
  322MOL    H1726339   0.663   6.911   4.891  1.2610  0.7755  1.2344
  322MOL    C1826340   0.650   6.923   4.627 -0.0581 -0.2951  1.1047
  322MOL    O1926341   0.693   6.985   4.509  0.6857 -0.0251 -0.3940
  322MOL    H2026342   0.582   6.991   4.679 -1.0900 -1.0119  0.7073
  322MOL    H2126343   0.599   6.836   4.586 -1.1343  0.0412  1.7191
  322MOL    C2226344   0.745   7.114   4.540 -0.2051  0.7245 -0.3872
  322MOL    O2326345   0.644   7.196   4.579 -0.6441  0.1659 -0.2657
  322MOL    H2426346   0.790   7.160   4.452  2.7043 -1.2733 -0.0195
  322MOL    H2526347   0.810   7.100   4.626 -0.9993  1.1387  0.2872
  322MOL    C2626348   0.681   7.322   4.630 -0.3480 -0.2324  0.2663
  322MOL    O2726349   0.731   7.308   4.758  0.1316  0.2298  0.8167
  322MOL    H2826350   0.590   7.381   4.618  1.2505  2.4446  0.9262
  322MOL    H2926351   0.769   7.359   4.579 -1.6321 -0.6532 -2.3007
  322MOL    C3026352   0.620   7.310   4.847  0.1543 -0.3994 -0.5429
  322MOL    O3126353   0.553   7.434   4.857 -0.5102 -0.0247 -0.2867
  322MOL    H3226354   0.653   7.271   4.943  1.2563  0.5907 -0.5151
  322MOL    H3326355   0.552   7.234   4.809 -1.0153  0.8684 -1.0068
  322MOL    C3426356   0.614   7.530   4.936 -0.9507  0.6084  0.1478
  322MOL    O3526357   0.569   7.649   4.897 -0.5089 -0.4345 -0.1956
  322MOL    H3626358   0.720   7.538   4.912 -0.8995  0.1208  0.2194
  322MOL    H3726359   0.609   7.508   5.043  0.7396 -2.9537 -0.4720
  322MOL    C3826360   0.546   7.739   5.003  0.2066  0.2559  0.2939
  322MOL    O3926361   0.449   7.703   5.091 -0.3419  0.2887 -0.7820
  322MOL    H4026362   0.522   0.052   4.959  2.2236 -0.4397 -2.4675
  322MOL    H4126363   0.637   7.764   5.057  1.2158 -2.7212  0.0695
  322MOL    C4226364   0.315   7.718   5.055  0.8292 -0.0361 -0.1856
  322MOL    O4326365   0.278   0.066   5.035 -0.2671  0.0396 -0.4117
  322MOL    H4426366   0.252   7.672   5.131 -0.1458 -0.0453 -0.9873
  322MOL    H4526367   0.305   7.680   4.953 -0.1310  0.7169 -0.3820
  322MOL    C4626368   0.246   0.135   5.151  0.6274  0.5544 -0.4346
  322MOL    O4726369   0.238   0.271   5.130  0.1022 -0.5078 -0.6930
  322MOL    H4826370   0.327   0.121   5.223 -0.7704 -0.7478  0.9253
  322MOL    H4926371   0.166   0.081   5.202  1.5742 -2.5345 -2.1084
  322MOL    C5026372   0.130   0.306   5.053  0.5220  1.0542  0.5245
  322MOL    O5126373   0.001   0.273   5.103 -0.6779 -0.3513  0.2786
  322MOL    H5226374   0.137   0.259   4.955 -0.1197  0.9872  0.5088
  322MOL    H5326375   0.126   0.415   5.043 -0.0118  1.3066  3.2120
  322MOL    C5426376   7.776   0.311   5.236 -0.0204 -0.1637  0.6617
  322MOL    O5526377   7.655   0.366   5.277  0.2933 -0.1620 -0.4576
  322MOL    H5626378   0.068   0.384   5.265 -0.7662  0.4259  1.1578
  322MOL    H5726379   0.023   0.226   5.296  0.0751  1.3046  2.7615
  322MOL    C5826380   7.561   0.268   5.299  0.2987  0.4416  0.6701
  322MOL    O5926381   7.599   0.186   5.406  0.1699  0.4443 -0.2528
  322MOL    H6026382   7.544   0.206   5.211  0.4631  1.1370  0.1346
  322MOL    H6126383   7.465   0.318   5.317 -1.1048 -1.0609 -2.2034
  322MOL    C6226384   7.494   0.106   5.455  0.2317 -0.5169 -0.0201
  322MOL    O6326385   7.457   0.007   5.359 -0.1133 -0.3815  0.6577
  322MOL    H6426386   7.407   0.165   5.481  0.3167  0.0439 -0.9907
  322MOL    H6526387   7.527   0.040   5.536 -1.3000 -1.0417  0.1856
  322MOL    C6626388   7.556   7.713   5.311 -0.0289 -0.6916 -0.0093
  322MOL    O6726389   7.589   7.608   5.403 -0.2095 -0.4996 -0.0530
  322MOL    H6826390   7.640   7.776   5.281  0.2350 -0.3630  1.4068
  322MOL    H6926391   7.529   7.665   5.217  0.2416 -0.9241  0.0304
  322MOL    C7026392   7.485   7.513   5.417 -0.0416 -0.9950  0.3837
  322MOL    O7126393   7.480   7.431   5.300 -0.4245  0.4891  0.1076
  322MOL    H7226394   7.392   7.568   5.432 -0.2359 -1.5089  1.0808
  322MOL    H7326395   7.520   7.452   5.500  3.1160 -1.2838 -1.0802
  322MOL    C7426396   7.552   7.312   5.312  0.4978 -0.3556  0.0952
  322MOL    O7526397   7.691   7.329   5.338 -0.4263  0.7277 -0.0222
  322MOL    H7626398   7.530   7.239   5.234 -0.5760 -1.5388  1.4678
  322MOL    H7726399   7.511   7.253   5.394 -1.5285  0.3907 -0.3317
  322MOL    C7826400   7.758   7.363   5.227  0.1541  0.1400 -0.0956
  322MOL    O7926401   7.782   7.254   5.134 -0.7605 -0.2473 -0.2954
  322MOL    H8026402   0.068   7.402   5.266 -0.1981  0.2088  0.7082
  322MOL    H8126403   7.710   7.446   5.175 -0.0107  0.3256  0.3526
  322MOL    H8226404   0.076   7.280   5.086 -0.6052  0.0106  0.0908
  323MOL     C126405   5.360   4.966   6.148  0.5505  0.3842  0.0824
  323MOL     O226406   5.472   4.885   6.099 -0.6566 -0.6528  0.2238
  323MOL     H326407   5.295   4.909   6.215 -1.0705 -0.0612 -1.8052
  323MOL     H426408   5.402   5.050   6.203  1.1965  1.6307 -2.2157
  323MOL     H526409   5.289   4.989   6.068 -1.2992 -0.5339  1.4185
  323MOL     C626410   5.526   4.929   5.977 -0.7447 -0.2218 -0.1809
  323MOL     O726411   5.606   5.041   5.992  0.3216  0.2969  0.5035
  323MOL     H826412   5.449   4.962   5.908  0.0108 -0.0845 -0.9596
  323MOL     H926413   5.573   4.846   5.925 -0.2783  0.2032 -0.4411
  323MOL    C1026414   5.723   5.034   5.921 -0.1318 -0.4420 -0.4890
  323MOL    O1126415   5.699   5.067   5.789 -0.0283  0.0992 -0.4450
  323MOL    H1226416   5.774   4.937   5.928  0.1066 -0.5267 -3.0840
  323MOL    H1326417   5.802   5.094   5.966 -0.9932 -0.6345  1.3593
  323MOL    C1426418   5.678   5.209   5.776 -0.0918  0.5712 -0.3355
  323MOL    O1526419   5.792   5.280   5.810  0.1456  0.2595  0.1494
  323MOL    H1626420   5.602   5.251   5.842 -0.6257 -0.5514 -0.2409
  323MOL    H1726421   5.642   5.243   5.679 -0.4030 -0.2045 -0.4909
  323MOL    C1826422   5.894   5.278   5.716  0.6822 -0.0354 -0.0248
  323MOL    O1926423   5.862   5.380   5.621 -0.1018  0.7046  0.4155
  323MOL    H2026424   5.901   5.174   5.686  3.3117  0.5465 -1.5764
  323MOL    H2126425   5.991   5.297   5.762  0.3476  0.4651  0.4924
  323MOL    C2226426   5.904   5.509   5.662 -0.6697  0.1400 -0.2316
  323MOL    O2326427   6.035   5.519   5.640 -0.1500 -0.2415  0.0666
  323MOL    H2426428   5.882   5.520   5.768  0.7860 -1.2615  0.2229
  323MOL    H2526429   5.853   5.593   5.614  1.5896  2.1722  0.8194
  323MOL    C2626430   6.098   5.605   5.726  0.2243  0.3390  0.7375
  323MOL    O2726431   6.102   5.554   5.857  0.7125 -0.1633 -0.5435
  323MOL    H2826432   6.049   5.702   5.716 -2.2625 -0.9461  0.1385
  323MOL    H2926433   6.203   5.598   5.698 -0.6269 -2.2027 -2.0740
  323MOL    C3026434   6.194   5.622   5.935  0.2018  0.3166  0.0387
  323MOL    O3126435   6.330   5.602   5.887  0.1884  0.1526 -0.0084
  323MOL    H3226436   6.189   5.573   6.032 -0.7781  0.9190  0.3028
  323MOL    H3326437   6.159   5.725   5.940 -1.0711 -0.1458  0.9018
  323MOL    C3426438   6.418   5.704   5.925  0.3586 -0.4554 -0.2954
  323MOL    O3526439   6.436   5.707   6.060 -0.3940  0.2773 -0.2353
  323MOL    H3626440   6.394   5.803   5.885  0.6054  0.0025  0.6747
  323MOL    H3726441   6.522   5.687   5.897  0.4242 -1.3200  0.4640
  323MOL    C3826442   6.495   5.820   6.116 -0.6385  0.3081  0.5664
  323MOL    O3926443   6.622   5.841   6.063 -0.3126  0.7263  0.2085
  323MOL    H4026444   6.496   5.814   6.225 -1.2291  0.2883  0.5720
  323MOL    H4126445   6.440   5.909   6.088 -0.0150  0.3806 -0.5015
  323MOL    C4226446   6.702   5.733   6.095  0.2769  0.2790  0.2076
  323MOL    O4326447   6.723   5.718   6.233  0.1595 -0.7813 -0.0714
  323MOL    H4426448   6.799   5.734   6.047  1.6112 -0.4692  2.7498
  323MOL    H4526449   6.673   5.637   6.052 -0.8530  1.0431 -0.7333
  323MOL    C4626450   6.818   5.794   6.293 -0.1797 -0.1523  0.3267
  323MOL    O4726451   6.953   5.771   6.249  0.3725 -0.8359  0.6291
  323MOL    H4826452   6.814   5.775   6.401  1.4530  0.0014  0.4138
  323MOL    H4926453   6.795   5.899   6.275  0.5580  0.1520  1.1274
  323MOL    C5026454   6.999   5.652   6.308 -0.1498  0.2625  0.4551
  323MOL    O5126455   7.051   5.667   6.440 -0.5603  0.0908  0.0138
  323MOL    H5226456   7.075   5.609   6.243  1.7846  0.4127  2.5869
  323MOL    H5326457   6.922   5.576   6.293 -0.1071  0.4468 -0.7514
  323MOL    C5426458   7.180   5.718   6.442 -0.2176  0.5745  0.2977
  323MOL    O5526459   7.277   5.620   6.411  0.5929  0.5020 -0.4247
  323MOL    H5626460   7.199   5.774   6.534 -0.9215  0.1961  0.6689
  323MOL    H5726461   7.179   5.792   6.362 -2.5201 -0.3286 -0.5389
  323MOL    C5826462   7.306   5.534   6.516 -0.1690  0.8569  0.5220
  323MOL    O5926463   7.380   5.589   6.618 -0.4766 -0.5012 -0.5884
  323MOL    H6026464   7.353   5.439   6.490 -2.4170 -0.0139 -0.4834
  323MOL    H6126465   7.216   5.491   6.561  0.7260  1.1736  2.6524
  323MOL    C6226466   7.503   5.627   6.570 -0.2401  0.4231 -0.3051
  323MOL    O6326467   7.604   5.602   6.666 -0.8189  0.1206 -0.1793
  323MOL    H6426468   7.501   5.736   6.563  1.2269  0.5806  1.3801
  323MOL    H6526469   7.535   5.589   6.473 -1.7502 -0.0928 -0.6091
  323MOL    C6626470   7.657   5.478   6.675 -1.0237 -0.0159  0.8219
  323MOL    O6726471   7.729   5.449   6.561  0.2197 -0.0744  0.1397
  323MOL    H6826472   7.572   5.411   6.689 -0.4802 -0.7243  0.7878
  323MOL    H6926473   7.719   5.464   6.763  1.0080  1.5418 -0.2867
  323MOL    C7026474   0.057   5.522   6.556 -0.0552  0.0124 -0.4857
  323MOL    O7126475   0.155   5.474   6.646  0.0385 -0.2886 -0.4266
  323MOL    H7226476   0.038   5.629   6.559  0.8927  0.1365  2.6254
  323MOL    H7326477   0.093   5.512   6.453 -0.9104 -0.1457 -0.7762
  323MOL    C7426478   0.270   5.555   6.639  0.4094  0.3416 -0.3875
  323MOL    O7526479   0.245   5.684   6.686  0.1221 -0.5671 -0.4547
  323MOL    H7626480   0.306   5.563   6.536 -0.6954  1.0391 -0.7301
  323MOL    H7726481   0.357   5.513   6.689 -0.6850 -2.6060 -0.8216
  323MOL    C7826482   0.220   5.691   6.821  0.1847  0.6366 -0.6256
  323MOL    O7926483   0.237   5.826   6.860  0.3092 -0.2182  0.4477
  323MOL    H8026484   0.303   5.630   6.858 -1.3142 -1.6497 -0.8801
  323MOL    H8126485   0.117   5.664   6.842 -0.2508  1.2257 -1.9794
  323MOL    H8226486   0.151   5.865   6.852  1.1218  1.8529  1.4951
  324MOL     C126487   1.394   3.379   6.099  0.8696 -0.0148  0.2034
  324MOL     O226488   1.338   3.251   6.109 -0.3668  0.3841  0.4733
  324MOL     H326489   1.359   3.418   6.003  0.9370  0.2156  0.2728
  324MOL     H426490   1.352   3.452   6.168 -0.0544 -0.7556  0.4423
  324MOL     H526491   1.502   3.386   6.107  0.6301  3.9215  0.7103
  324MOL     C626492   1.207   3.251   6.151  0.6967 -0.5555 -0.1229
  324MOL     O726493   1.145   3.129   6.127 -0.1194 -0.2679 -0.0452
  324MOL     H826494   1.148   3.314   6.084 -0.1047 -1.8061 -0.6253
  324MOL     H926495   1.190   3.292   6.250  0.1218 -0.8481 -0.0944
  324MOL    C1026496   1.186   3.028   6.211 -0.6095  0.3395  0.2268
  324MOL    O1126497   1.130   3.045   6.329  0.2935 -0.2863 -0.7187
  324MOL    H1226498   1.295   3.019   6.217 -0.5959  1.4745  2.1905
  324MOL    H1326499   1.167   2.931   6.166 -0.9037  0.0388  0.9916
  324MOL    C1426500   0.999   3.007   6.329 -0.0199  0.1930  0.2886
  324MOL    O1526501   0.992   2.867   6.325 -0.3602  0.3660 -0.5569
  324MOL    H1626502   0.945   3.046   6.243  2.2123  3.0383  0.1194
  324MOL    H1726503   0.939   3.034   6.417 -0.6848  0.3926 -0.2211
  324MOL    C1826504   1.041   2.813   6.441 -0.2209 -0.3331 -0.1044
  324MOL    O1926505   0.977   2.846   6.562  0.5367 -0.4005 -0.3164
  324MOL    H2026506   1.143   2.846   6.459 -1.0006  1.2741  1.5455
  324MOL    H2126507   1.051   2.705   6.446  1.9978 -0.0894  1.1996
  324MOL    C2226508   0.847   2.806   6.569 -0.2874  0.4304 -0.1510
  324MOL    O2326509   0.778   2.876   6.672  0.2158  0.9394 -0.2217
  324MOL    H2426510   0.839   2.697   6.580 -0.4910  0.4070 -0.5348
  324MOL    H2526511   0.795   2.828   6.476 -1.7086 -0.6078  0.3756
  324MOL    C2626512   0.774   3.012   6.659  0.8846 -0.1575  0.1475
  324MOL    O2726513   0.732   3.051   6.529  0.3312 -0.5546  0.1584
  324MOL    H2826514   0.877   3.048   6.669  0.6848  0.0636  1.4710
  324MOL    H2926515   0.710   3.056   6.735  0.6341 -1.5992  0.7863
  324MOL    C3026516   0.594   3.027   6.509  0.3572 -0.2802  1.0508
  324MOL    O3126517   0.512   3.095   6.597  0.5963  0.2561 -0.3340
  324MOL    H3226518   0.569   2.923   6.528 -0.5618  0.3401  3.2876
  324MOL    H3326519   0.572   3.063   6.408  0.4716  1.3500  1.5897
  324MOL    C3426520   0.377   3.096   6.571  0.0615  0.3389  0.1867
  324MOL    O3526521   0.321   2.968   6.551  0.1239 -0.1729  0.4572
  324MOL    H3626522   0.355   3.152   6.480 -0.0488  1.1642  0.7151
  324MOL    H3726523   0.321   3.142   6.653  0.6770  1.1300  0.1772
  324MOL    C3826524   0.303   2.908   6.673  0.5687 -0.2275  0.0608
  324MOL    O3926525   0.185   2.949   6.737  0.5962 -0.3049  0.6724
  324MOL    H4026526   0.394   2.920   6.732 -0.3496  1.9454  1.0857
  324MOL    H4126527   0.296   2.802   6.647 -1.8107 -0.4457  1.4597
  324MOL    C4226528   0.071   2.883   6.691 -0.0762 -0.9791 -0.4003
  324MOL    O4326529   0.068   2.753   6.725 -0.1336 -0.0779 -0.2815
  324MOL    H4426530   0.067   2.901   6.583 -1.5957  0.1842 -0.1577
  324MOL    H4526531   7.764   2.934   6.725  0.6757 -1.0139  1.7378
  324MOL    C4626532   0.039   2.739   6.860 -0.0303  0.9673  0.4261
  324MOL    O4726533   7.683   2.742   6.881 -0.0363 -0.1930 -0.1695
  324MOL    H4826534   0.086   2.807   6.931 -0.3155  1.8902 -0.2703
  324MOL    H4926535   0.077   2.642   6.892  0.4594  0.6369 -1.1142
  324MOL    C5026536   7.623   2.618   6.859  0.5711 -0.5965 -0.1962
  324MOL    O5126537   7.483   2.630   6.883  0.2363 -0.3862  0.4586
  324MOL    H5226538   7.671   2.542   6.920  1.7295  0.0568 -0.2791
  324MOL    H5326539   7.633   2.602   6.752 -1.5762  1.3999 -0.7382
  324MOL    C5426540   7.435   2.647   7.010  0.8184 -0.5364 -0.5316
  324MOL    O5526541   7.480   2.539   7.089  0.6464 -0.2348 -0.0655
  324MOL    H5626542   7.328   2.648   7.026  0.7468  2.1230 -0.8725
  324MOL    H5726543   7.466   2.745   7.048 -3.4202 -0.3380  2.7947
  324MOL    C5826544   7.459   2.568   7.225  1.0949 -0.4824 -0.4374
  324MOL    O5926545   7.549   2.663   7.278 -0.0224  0.5876 -0.4243
  324MOL    H6026546   7.466   2.473   7.279 -1.3448 -0.3415  0.2094
  324MOL    H6126547   7.353   2.588   7.243  0.4689 -4.3794  0.8006
  324MOL    C6226548   7.674   2.611   7.313  0.1904 -0.1674  0.2873
  324MOL    O6326549   7.667   2.561   7.441 -0.1821  0.7371 -0.2208
  324MOL    H6426550   7.743   2.693   7.291  1.0994 -1.2264 -0.9309
  324MOL    H6526551   7.706   2.537   7.239  1.3613 -1.6149  2.1959
  324MOL    C6626552   7.657   2.664   7.538 -0.2384  0.2056 -0.0685
  324MOL    O6726553   0.001   2.705   7.568  0.0032 -0.5842  0.2359
  324MOL    H6826554   7.604   2.630   7.627 -0.8371 -1.4548 -1.0272
  324MOL    H6926555   7.597   2.744   7.494 -1.0230  0.4521  1.4326
  324MOL    C7026556   0.073   2.619   7.648  0.9498  0.5347 -0.0139
  324MOL    O7126557   0.036   2.623   7.776 -1.0895 -0.0014 -0.0276
  324MOL    H7226558   0.179   2.636   7.629  0.9007 -0.4283 -1.2484
  324MOL    H7326559   0.057   2.516   7.616 -0.7209  0.6213  0.4522
  324MOL    C7426560   0.107   2.719   0.060 -0.1629  0.3525 -0.1016
  324MOL    O7526561   0.233   2.676   0.102  0.5042 -0.2994  0.7299
  324MOL    H7626562   0.054   2.753   0.149  2.0024  1.0517  0.9449
  324MOL    H7726563   0.113   2.807   7.780 -0.2114  0.1298 -0.4117
  324MOL    C7826564   0.234   2.580   0.206  0.5518 -0.4337 -0.9837
  324MOL    O7926565   0.363   2.572   0.260 -0.2122  0.2194 -0.2716
  324MOL    H8026566   0.203   2.480   0.175  0.9393 -0.8277 -0.1008
  324MOL    H8126567   0.169   2.619   0.284 -1.2979 -0.9109 -2.2707
  324MOL    H8226568   0.416   2.556   0.184 -0.2787 -1.9691  0.1047
  325MOL     C126569   2.277   6.500   0.479  0.8202  0.6924  0.0541
  325MOL     O226570   2.191   6.597   0.535  0.1193 -0.4238  0.2312
  325MOL     H326571   2.301   6.522   0.375  1.6547 -2.2258 -0.3915
  325MOL     H426572   2.371   6.510   0.532 -0.8746 -0.5556  3.5051
  325MOL     H526573   2.231   6.402   0.490 -0.9991  1.2572 -2.0801
  325MOL     C626574   2.116   6.667   0.444  0.2144  0.2342  1.0526
  325MOL     O726575   2.012   6.605   0.386 -0.3195  0.8386 -0.0876
  325MOL     H826576   2.182   6.692   0.361 -1.1011 -0.7935 -0.3314
  325MOL     H926577   2.083   6.759   0.491 -2.3369  0.1970 -0.5860
  325MOL    C1026578   1.900   6.602   0.467 -0.7705  0.6601 -0.1073
  325MOL    O1126579   1.812   6.701   0.427  0.2887 -0.1336 -0.5450
  325MOL    H1226580   1.926   6.617   0.572  1.2681 -1.3580 -0.2595
  325MOL    H1326581   1.851   6.505   0.459 -0.5930  0.7138 -2.0385
  325MOL    C1426582   1.732   6.658   0.317  0.1928  0.1959 -0.0100
  325MOL    O1526583   1.638   6.575   0.372 -0.0162  0.1344 -0.2297
  325MOL    H1626584   1.785   6.607   0.237  0.0310 -0.6363  0.4110
  325MOL    H1726585   1.679   6.744   0.275  0.6425 -0.4181 -1.8538
  325MOL    C1826586   1.524   6.569   0.292  0.4230 -0.6809  0.4074
  325MOL    O1926587   1.445   6.684   0.307 -0.0340  0.1907 -0.0170
  325MOL    H2026588   1.473   6.477   0.319  0.1011 -0.3389  0.9749
  325MOL    H2126589   1.556   6.551   0.189 -1.2969 -1.6172  0.0096
  325MOL    C2226590   1.316   6.657   0.257  0.0582 -0.4002  0.0592
  325MOL    O2326591   1.307   6.702   0.127 -0.3957  0.2863 -0.4509
  325MOL    H2426592   1.248   6.714   0.319 -0.3187  0.6587 -1.3018
  325MOL    H2526593   1.295   6.550   0.265  0.6631 -0.4900  0.5690
  325MOL    C2626594   1.338   6.839   0.114  0.2256 -0.3833  0.0592
  325MOL    O2726595   1.317   6.892   7.765  0.4243  0.2576  0.3124
  325MOL    H2826596   1.442   6.853   0.145  0.0615  0.2702  0.3130
  325MOL    H2926597   1.277   6.898   0.182 -0.6514 -1.9128  0.6288
  325MOL    C3026598   1.186   6.861   7.720  0.0314 -0.7624  0.2289
  325MOL    O3126599   1.156   6.937   7.605  0.2180  0.3811 -0.1236
  325MOL    H3226600   1.115   6.889   0.014  0.3094  0.9660 -0.1124
  325MOL    H3326601   1.178   6.755   7.695  0.9726 -0.7961  0.0652
  325MOL    C3426602   1.235   6.915   7.497 -0.5032 -0.1930  0.3086
  325MOL    O3526603   1.245   6.784   7.446  0.0796 -1.8024 -0.4975
  325MOL    H3626604   1.331   6.961   7.522 -0.5296  0.7613 -1.2363
  325MOL    H3726605   1.209   6.986   7.418 -0.2411  1.6131  1.8119
  325MOL    C3826606   1.122   6.737   7.400  0.1274  0.4205  0.4099
  325MOL    O3926607   1.120   6.598   7.391 -0.1796  0.6135 -0.0477
  325MOL    H4026608   1.086   6.775   7.305 -0.7961 -1.3022  0.0543
  325MOL    H4126609   1.048   6.755   7.478  1.5022  0.4023  1.7395
  325MOL    C4226610   1.203   6.546   7.295 -0.5661  0.7596  1.1407
  325MOL    O4326611   1.141   6.563   7.172  0.0731 -0.0616 -0.5304
  325MOL    H4426612   1.200   6.438   7.304 -1.8607  0.4613 -2.3032
  325MOL    H4526613   1.308   6.578   7.293 -0.2582 -0.3032 -0.0359
  325MOL    C4626614   1.074   6.447   7.128  0.9766 -0.0020  0.3372
  325MOL    O4726615   0.962   6.405   7.202  0.5324 -0.6938  0.2757
  325MOL    H4826616   1.139   6.362   7.108 -1.9152 -2.8435  2.3894
  325MOL    H4926617   1.021   6.477   7.037 -1.0978 -0.4558  1.3668
  325MOL    C5026618   0.860   6.497   7.227 -0.4814  0.0531 -0.0625
  325MOL    O5126619   0.780   6.530   7.118  0.3439  0.3424  0.3338
  325MOL    H5226620   0.898   6.590   7.271 -2.3434  0.9247 -0.2185
  325MOL    H5326621   0.801   6.442   7.301 -0.5553  0.4797  0.2042
  325MOL    C5426622   0.685   6.437   7.086 -0.1236  0.2016  0.9936
  325MOL    O5526623   0.572   6.439   7.182  0.1490 -0.5460  0.4566
  325MOL    H5626624   0.723   6.335   7.071 -1.5699 -0.6067  2.6685
  325MOL    H5726625   0.651   6.470   6.988  1.8947  0.8096  0.4648
  325MOL    C5826626   0.508   6.564   7.196  0.2125  0.5866  0.0459
  325MOL    O5926627   0.458   6.579   7.321 -0.1019 -0.0482  0.1133
  325MOL    H6026628   0.426   6.569   7.124 -1.4850  1.6374  1.9872
  325MOL    H6126629   0.578   6.642   7.168 -0.2664  1.7708  2.1009
  325MOL    C6226630   0.557   6.592   7.417 -0.0366  0.0829 -0.2478
  325MOL    O6326631   0.649   6.691   7.375  0.1159  0.1734  0.4512
  325MOL    H6426632   0.605   6.496   7.437 -0.9037 -0.5565 -1.1634
  325MOL    H6526633   0.518   6.631   7.511 -1.1461  0.2585 -0.7606
  325MOL    C6626634   0.734   6.733   7.480 -0.1104  0.0864  0.1023
  325MOL    O6726635   0.680   6.844   7.549  0.4522 -0.2777 -0.0874
  325MOL    H6826636   0.829   6.762   7.435 -0.0187 -0.0188  0.2263
  325MOL    H6926637   0.758   6.645   7.540 -1.5871  0.1664  0.8093
  325MOL    C7026638   0.666   6.964   7.472  0.1724  0.1270 -0.3482
  325MOL    O7126639   0.786   7.029   7.439  0.1613 -0.4451  0.5493
  325MOL    H7226640   0.619   7.027   7.547 -1.5568 -0.9571 -0.4927
  325MOL    H7326641   0.615   6.953   7.376  0.4293 -1.3671 -0.3253
  325MOL    C7426642   0.881   7.053   7.543  1.2426 -0.2279  1.1515
  325MOL    O7526643   0.816   7.114   7.659 -0.5270 -0.0523 -0.0596
  325MOL    H7626644   0.968   7.105   7.503 -0.8619  0.3254 -2.9669
  325MOL    H7726645   0.912   6.953   7.573 -1.0955 -1.5321 -0.6440
  325MOL    C7826646   0.811   7.257   7.660 -0.5066 -0.1237  0.0142
  325MOL    O7926647   0.733   7.302   7.767  0.2644 -0.6942  0.3480
  325MOL    H8026648   0.768   7.306   7.573 -0.2112  0.2624  0.0803
  325MOL    H8126649   0.916   7.281   7.677  0.0580 -1.4541 -1.5227
  325MOL    H8226650   0.766   7.262   0.062  0.2188 -0.4516  0.4922
  326MOL     C126651   1.031   4.482   2.255  0.9078  0.1559  0.1671
  326MOL     O226652   0.984   4.612   2.284  0.2782  0.2023  0.8146
  326MOL     H326653   1.009   4.400   2.322  1.6985  0.7644  1.1944
  326MOL     H426654   0.996   4.467   2.153  0.7558 -1.9162  0.5043
  326MOL     H526655   1.140   4.478   2.247  0.8794  0.1968 -0.3017
  326MOL     C626656   0.999   4.644   2.417  0.2225  0.1179  0.1774
  326MOL     O726657   0.906   4.587   2.506 -0.1861 -0.2096 -0.1013
  326MOL     H826658   0.999   4.753   2.416  0.4953  0.1299  1.0363
  326MOL     H926659   1.099   4.610   2.445 -0.3736  0.7995  3.3056
  326MOL    C1026660   0.776   4.613   2.476  0.1803  0.0322 -0.1047
  326MOL    O1126661   0.704   4.538   2.569 -0.1758  0.2787  0.6625
  326MOL    H1226662   0.758   4.587   2.372  0.8065  0.0643 -0.2244
  326MOL    H1326663   0.756   4.720   2.482  1.6928  0.3215 -0.0568
  326MOL    C1426664   0.692   4.605   2.693  0.1407 -0.2631 -0.2714
  326MOL    O1526665   0.594   4.698   2.685  0.2939  0.1449 -0.3474
  326MOL    H1626666   0.786   4.657   2.711 -1.0779  1.8961 -0.0006
  326MOL    H1726667   0.663   4.531   2.767  1.4469 -2.0465 -1.4899
  326MOL    C1826668   0.475   4.651   2.629  0.2409  0.1289  0.2174
  326MOL    O1926669   0.372   4.746   2.641  0.8031  0.9617  0.5488
  326MOL    H2026670   0.455   4.565   2.694  2.4570 -0.0024  0.7655
  326MOL    H2126671   0.488   4.609   2.530 -1.0300 -2.3528  1.0443
  326MOL    C2226672   0.376   4.849   2.549  0.3225 -0.7894 -0.4663
  326MOL    O2326673   0.256   4.917   2.550  0.6417 -0.4021 -0.0140
  326MOL    H2426674   0.402   4.812   2.450  2.0556 -0.6312 -0.0925
  326MOL    H2526675   0.458   4.912   2.582 -0.7184  0.3339 -0.0002
  326MOL    C2626676   0.155   4.851   2.478 -0.2411  0.4147  0.1629
  326MOL    O2726677   0.179   4.859   2.342 -0.0590  0.6581  0.7216
  326MOL    H2826678   0.062   4.905   2.495 -0.1735  0.7668 -0.5648
  326MOL    H2926679   0.140   4.745   2.498 -0.6861  0.5783  0.6888
  326MOL    C3026680   0.163   4.981   2.286 -0.1476  0.4793 -0.4611
  326MOL    O3126681   0.027   4.998   2.264  0.4054 -0.0148  0.1239
  326MOL    H3226682   0.212   4.996   2.189 -1.0519 -1.4885 -1.2368
  326MOL    H3326683   0.207   5.057   2.352 -0.1309  1.1450 -1.2251
  326MOL    C3426684   7.774   5.113   2.192  0.1871 -0.3137  0.0522
  326MOL    O3526685   0.009   5.224   2.271  0.4568  0.1080  0.2438
  326MOL    H3626686   7.667   5.104   2.171  0.8025 -1.0099 -2.9610
  326MOL    H3726687   0.050   5.121   2.102  1.6127  0.2732  1.0244
  326MOL    C3826688   7.706   5.228   2.379  0.8241 -0.6833  0.2675
  326MOL    O3926689   7.570   5.258   2.351  0.4257  0.5851 -0.3582
  326MOL    H4026690   7.746   5.308   2.441 -0.5637  0.3936 -0.1830
  326MOL    H4126691   7.719   5.141   2.443  0.9510  0.0943  1.3137
  326MOL    C4226692   7.535   5.395   2.334  0.3434  0.4371 -0.1668
  326MOL    O4326693   7.548   5.458   2.462  0.5271 -0.3227 -0.3195
  326MOL    H4426694   7.434   5.403   2.294  0.0347 -0.3406  0.4340
  326MOL    H4526695   7.601   5.436   2.257 -1.0624  0.6576 -1.2859
  326MOL    C4626696   7.445   5.413   2.547  0.2917  0.0862 -0.0735
  326MOL    O4726697   7.313   5.435   2.496 -0.4243 -0.0689  0.2597
  326MOL    H4826698   7.453   5.473   2.637  0.1546 -1.9286  1.3145
  326MOL    H4926699   7.456   5.309   2.577 -0.1995  1.0331  3.5405
  326MOL    C5026700   7.290   5.576   2.480  0.0756  0.8391 -0.0740
  326MOL    O5126701   7.193   5.631   2.567 -0.8015  0.1114  0.7905
  326MOL    H5226702   7.262   5.587   2.375 -0.8442  0.6937  0.1496
  326MOL    H5326703   7.376   5.642   2.476  1.2927 -0.7698 -1.4028
  326MOL    C5426704   7.231   5.636   2.703 -0.4830  0.2449 -0.3565
  326MOL    O5526705   7.348   5.714   2.709 -0.1077  0.3604  0.1425
  326MOL    H5626706   7.243   5.532   2.735 -0.3228  0.2598 -0.3640
  326MOL    H5726707   7.146   5.692   2.742 -0.4736 -0.8656  1.3123
  326MOL    C5826708   7.419   5.710   2.828  0.6891 -0.3781  0.1068
  326MOL    O5926709   7.469   5.580   2.855  0.7468 -0.2344 -0.1393
  326MOL    H6026710   7.358   5.743   2.912 -0.5652 -2.1477 -0.0565
  326MOL    H6126711   7.494   5.789   2.823 -0.1296  0.4577  0.8121
  326MOL    C6226712   7.601   5.572   2.813 -0.2294  0.7457 -0.4053
  326MOL    O6326713   7.687   5.628   2.908 -0.4549  0.0521  0.2798
  326MOL    H6426714   7.615   5.622   2.717  0.6436  0.3024 -0.5197
  326MOL    H6526715   7.624   5.469   2.787  0.3360  0.8688 -0.4163
  326MOL    C6626716   7.709   5.551   3.015 -0.1093 -0.1258 -0.2412
  326MOL    O6726717   7.760   5.429   2.978 -0.0172 -0.3194  0.1126
  326MOL    H6826718   7.617   5.525   3.067 -0.6265  0.6132 -0.7916
  326MOL    H6926719   7.767   5.605   3.090  0.4847 -0.8633 -0.1576
  326MOL    C7026720   0.101   5.441   2.907 -0.1162 -0.0012 -1.0405
  326MOL    O7126721   0.148   5.309   2.875 -0.4278  0.1248 -0.4223
  326MOL    H7226722   0.178   5.486   2.970 -0.6860 -1.6284  0.8673
  326MOL    H7326723   0.091   5.496   2.814 -0.0062 -0.5216 -1.3590
  326MOL    C7426724   0.061   5.244   2.782  0.4823 -1.1628 -0.7832
  326MOL    O7526725   0.090   5.275   2.654  1.0613  0.0279 -0.5831
  326MOL    H7626726   7.739   5.248   2.808  0.6501  2.3563 -0.4319
  326MOL    H7726727   0.072   5.136   2.796  0.8218 -1.3816 -2.5660
  326MOL    C7826728   0.223   5.247   2.618  0.5374 -0.2209  0.2990
  326MOL    O7926729   0.240   5.262   2.479 -0.1806 -0.3283 -0.8296
  326MOL    H8026730   0.247   5.141   2.634 -0.0146  0.1243  3.8281
  326MOL    H8126731   0.292   5.315   2.668  1.8422  1.1347 -3.1795
  326MOL    H8226732   0.233   5.356   2.468 -1.7774 -0.4309 -0.7337
  327MOL     C126733   1.854   5.205   5.365  0.3664  0.0151  0.0630
  327MOL     O226734   1.988   5.160   5.334  0.2314 -0.1947  0.2215
  327MOL     H326735   1.788   5.161   5.290  0.7469 -1.2859  0.4792
  327MOL     H426736   1.812   5.176   5.461 -0.8815  0.5347 -0.3141
  327MOL     H526737   1.838   5.312   5.353  1.5173 -0.0684 -2.7290
  327MOL     C626738   2.076   5.173   5.441 -0.7413 -0.7375 -0.0860
  327MOL     O726739   2.080   5.308   5.475  0.0767  0.2546 -0.8966
  327MOL     H826740   2.176   5.139   5.413 -0.6792 -0.1877 -0.5507
  327MOL     H926741   2.046   5.114   5.527  0.1323 -0.2225  0.5840
  327MOL    C1026742   2.174   5.377   5.407 -0.9614 -0.2391 -0.8128
  327MOL    O1126743   2.305   5.338   5.434  0.6228  0.2376  0.6660
  327MOL    H1226744   2.162   5.484   5.421 -1.9024 -0.3924 -0.3890
  327MOL    H1326745   2.163   5.365   5.299 -0.1968 -0.5297 -0.8595
  327MOL    C1426746   2.401   5.417   5.364 -0.3170 -0.9463  0.1008
  327MOL    O1526747   2.410   5.374   5.237 -0.4181  0.1079  0.4366
  327MOL    H1626748   2.500   5.427   5.409 -0.6591 -0.5820  0.7801
  327MOL    H1726749   2.373   5.522   5.360 -0.4452 -1.0331 -1.6178
  327MOL    C1826750   2.476   5.258   5.234 -0.3237 -0.6871 -0.0796
  327MOL    O1926751   2.550   5.240   5.120  0.9884 -0.3218 -0.0334
  327MOL    H2026752   2.409   5.173   5.241 -0.3449 -0.8587 -1.9440
  327MOL    H2126753   2.540   5.235   5.319 -0.9884 -2.4384 -0.0382
  327MOL    C2226754   2.669   5.312   5.118  1.0011  0.6331  0.6382
  327MOL    O2326755   2.757   5.256   5.214  0.7878 -0.2153  0.3455
  327MOL    H2426756   2.658   5.419   5.136 -1.2537  0.3898  0.8921
  327MOL    H2526757   2.709   5.299   5.018 -1.5810 -1.0720 -0.2274
  327MOL    C2626758   2.884   5.304   5.200  0.1207  0.3974  0.1091
  327MOL    O2726759   2.933   5.276   5.073  0.2501 -0.3355 -0.0027
  327MOL    H2826760   2.932   5.252   5.282 -2.1925 -0.6514  0.8485
  327MOL    H2926761   2.889   5.411   5.220 -0.8221  0.6680 -1.0234
  327MOL    C3026762   2.984   5.153   5.053  0.2271  0.9012 -0.1541
  327MOL    O3126763   3.118   5.149   5.102 -0.4202 -0.3965  0.5362
  327MOL    H3226764   2.983   5.145   4.944  0.7782  2.0309 -0.2474
  327MOL    H3326765   2.910   5.081   5.086  1.9999 -0.4771  0.9270
  327MOL    C3426766   3.179   5.026   5.068  0.4576 -0.2650 -0.3080
  327MOL    O3526767   3.192   5.006   4.928 -0.9153  0.3239  0.0903
  327MOL    H3626768   3.120   4.946   5.112  1.7098 -0.4416  1.1049
  327MOL    H3726769   3.275   5.022   5.120  0.3762 -0.8069 -0.2010
  327MOL    C3826770   3.296   5.074   4.861 -0.0725  0.2258 -0.3870
  327MOL    O3926771   3.420   5.018   4.891 -0.1789  0.3759 -0.4910
  327MOL    H4026772   3.292   5.174   4.905  1.4729  0.9104 -1.7312
  327MOL    H4126773   3.282   5.073   4.753 -2.0181 -1.1618 -0.1505
  327MOL    C4226774   3.531   5.099   4.872 -0.5604 -0.0192  0.0621
  327MOL    O4326775   3.583   5.117   4.741  0.0881  0.1952  0.0395
  327MOL    H4426776   3.607   5.065   4.942 -1.9946 -1.3810  0.9971
  327MOL    H4526777   3.501   5.196   4.911 -1.3512  0.3640 -1.4703
  327MOL    C4626778   3.644   5.002   4.689 -0.2487 -0.6551  0.1372
  327MOL    O4726779   3.767   4.980   4.756  0.6447  0.3899 -0.7346
  327MOL    H4826780   3.657   5.013   4.582  0.8646 -3.0664 -0.0261
  327MOL    H4926781   3.579   4.915   4.703 -0.5960 -0.2957  0.7573
  327MOL    C5026782   3.859   5.091   4.756  0.2217  0.6340  0.1884
  327MOL    O5126783   3.855   5.175   4.869 -0.2947  0.1603  0.7327
  327MOL    H5226784   3.841   5.153   4.668 -0.1324 -0.8886 -0.8274
  327MOL    H5326785   3.957   5.047   4.740 -0.7869 -1.5048 -0.2822
  327MOL    C5426786   3.920   5.122   4.974 -0.0797 -0.0823 -0.4499
  327MOL    O5526787   4.057   5.129   4.963 -0.5209  0.2800 -0.0459
  327MOL    H5626788   3.887   5.018   4.986  0.7686 -0.0405  2.5266
  327MOL    H5726789   3.892   5.173   5.066 -1.4233 -1.5113 -0.0259
  327MOL    C5826790   4.114   5.257   4.997  0.0702  0.3765 -0.0166
  327MOL    O5926791   4.107   5.281   5.137  0.3122  0.1910 -0.3133
  327MOL    H6026792   4.065   5.343   4.951  0.0781 -0.0775 -0.8858
  327MOL    H6126793   4.217   5.256   4.961  0.4261  0.2790  0.9737
  327MOL    C6226794   4.225   5.226   5.194  0.7471 -0.0686 -0.4097
  327MOL    O6326795   4.327   5.322   5.176  0.0314  0.0463  0.0473
  327MOL    H6426796   4.247   5.133   5.141 -2.2097 -1.4360  0.6332
  327MOL    H6526797   4.211   5.216   5.301 -3.3319 -1.4682 -0.9606
  327MOL    C6626798   4.454   5.269   5.185 -0.6927  0.1799 -0.3362
  327MOL    O6726799   4.492   5.216   5.057 -0.2966  0.1256 -0.1277
  327MOL    H6826800   4.462   5.191   5.260 -0.6142  0.6527  0.1525
  327MOL    H6926801   4.522   5.346   5.220 -2.0143  1.0603  0.3635
  327MOL    C7026802   4.544   5.319   4.975  1.0054 -0.0103  0.2645
  327MOL    O7126803   4.665   5.369   5.025  0.5953  0.4814 -0.3313
  327MOL    H7226804   4.476   5.404   4.982  0.4304 -0.5928  1.8095
  327MOL    H7326805   4.560   5.291   4.871  0.3859  0.4833  0.0344
  327MOL    C7426806   4.773   5.278   5.020 -0.8083  0.7111 -0.6171
  327MOL    O7526807   4.807   5.243   4.888 -0.2422 -0.1312 -0.1047
  327MOL    H7626808   4.736   5.187   5.068  1.2141  0.4750  0.5484
  327MOL    H7726809   4.851   5.318   5.086 -0.1097  1.0568 -1.6507
  327MOL    C7826810   4.914   5.325   4.852  0.6393  0.0631 -0.5422
  327MOL    O7926811   4.919   5.343   4.708 -0.9874 -0.2771 -0.0009
  327MOL    H8026812   5.013   5.294   4.886  0.3036  0.0379  0.4025
  327MOL    H8126813   4.890   5.425   4.889  0.3866 -0.9839  2.2049
  327MOL    H8226814   5.006   5.320   4.679 -0.2467  0.9178  1.2055
  328MOL     C126815   4.343   5.018   4.782 -0.4637 -0.4629 -0.1314
  328MOL     O226816   4.390   4.975   4.659 -0.1848 -0.4744  0.4638
  328MOL     H326817   4.366   4.956   4.868  0.9516 -0.4425 -0.4951
  328MOL     H426818   4.383   5.116   4.808  1.8517 -1.5591  0.4891
  328MOL     H526819   4.234   5.030   4.774 -0.5888 -1.0116  0.7484
  328MOL     C626820   4.520   5.005   4.625  0.5411  0.5083 -0.3997
  328MOL     O726821   4.536   5.135   4.570  0.1666 -0.1381  0.3297
  328MOL     H826822   4.562   4.924   4.566  0.4854  0.1721  0.0229
  328MOL     H926823   4.575   4.998   4.719 -0.0221 -0.4270 -0.1349
  328MOL    C1026824   4.675   5.167   4.564 -0.0156  0.3191  0.1567
  328MOL    O1126825   4.747   5.067   4.504 -0.2667  0.1005 -0.4972
  328MOL    H1226826   4.714   5.181   4.664 -1.2116  1.2151  0.5087
  328MOL    H1326827   4.685   5.269   4.527 -2.1676  0.1769 -0.9320
  328MOL    C1426828   4.717   5.078   4.372  0.5482 -0.6287  0.1493
  328MOL    O1526829   4.790   5.003   4.280  0.3311 -0.5748  0.3881
  328MOL    H1626830   4.727   5.184   4.346  0.8984 -0.5288  0.6851
  328MOL    H1726831   4.615   5.043   4.360  0.4849 -0.4536  0.1852
  328MOL    C1826832   4.928   5.033   4.289 -0.6467  0.0088 -0.8309
  328MOL    O1926833   4.952   5.163   4.240  0.4739 -0.3735 -0.0267
  328MOL    H2026834   4.973   4.958   4.224  0.0742  1.0385 -1.5219
  328MOL    H2126835   4.964   5.024   4.391 -3.6868  2.5707  0.5516
  328MOL    C2226836   4.953   5.163   4.103 -1.1188  0.6528 -0.4283
  328MOL    O2326837   5.075   5.109   4.052  0.1259 -0.0996  0.3624
  328MOL    H2426838   4.942   5.265   4.067  0.8688  1.4013  1.0250
  328MOL    H2526839   4.875   5.105   4.053 -1.2388 -0.9112  1.5014
  328MOL    C2626840   5.182   5.199   4.076  0.5257 -0.2636 -0.5552
  328MOL    O2726841   5.202   5.290   3.974 -0.0676 -0.2157  0.3390
  328MOL    H2826842   5.266   5.131   4.094  0.0945 -0.5541  0.4252
  328MOL    H2926843   5.173   5.256   4.168 -0.1660  0.5065 -1.0937
  328MOL    C3026844   5.260   5.235   3.861 -0.3377  0.9940 -0.3297
  328MOL    O3126845   5.301   5.334   3.780 -0.6609  0.0265 -0.4071
  328MOL    H3226846   5.186   5.187   3.796  1.1817 -1.3671 -0.3678
  328MOL    H3326847   5.338   5.162   3.885 -0.6300  0.8297  0.1123
  328MOL    C3426848   5.412   5.401   3.825 -0.9552 -0.4969 -0.8359
  328MOL    O3526849   5.533   5.325   3.802  0.1468 -0.9407  0.3131
  328MOL    H3626850   5.415   5.437   3.928 -0.4636 -1.7483 -0.3944
  328MOL    H3726851   5.428   5.492   3.767  0.4623 -0.4023 -0.3304
  328MOL    C3826852   5.555   5.316   3.663 -0.5168 -0.1096  1.0324
  328MOL    O3926853   5.658   5.217   3.641  0.5546  0.4929 -0.3542
  328MOL    H4026854   5.590   5.409   3.617  1.2051 -0.2102  2.1076
  328MOL    H4126855   5.462   5.286   3.615 -0.1045 -2.1479  1.4497
  328MOL    C4226856   5.619   5.090   3.674 -0.2706 -1.0099  0.2340
  328MOL    O4326857   5.722   5.002   3.643  0.1819  0.4419 -0.2946
  328MOL    H4426858   5.534   5.057   3.616 -0.8746  1.7655 -0.5081
  328MOL    H4526859   5.595   5.088   3.781  1.4926 -0.7360  0.6548
  328MOL    C4626860   5.830   5.018   3.723  0.1820 -0.6059 -0.0975
  328MOL    O4726861   5.919   4.914   3.733 -0.0246 -0.3988  0.3629
  328MOL    H4826862   5.800   5.046   3.823 -2.1919  0.1219 -0.9791
  328MOL    H4926863   5.880   5.103   3.677  0.1452 -0.1138  0.7715
  328MOL    C5026864   5.981   4.888   3.608  0.7465  0.0598 -0.1757
  328MOL    O5126865   6.076   4.994   3.580  0.0366 -0.5719  0.6522
  328MOL    H5226866   5.909   4.894   3.526 -0.5267  0.7025  0.9628
  328MOL    H5326867   6.026   4.789   3.606 -2.4925 -1.4553 -2.2912
  328MOL    C5426868   6.189   4.995   3.657  0.1398  0.2682 -0.2012
  328MOL    O5526869   6.271   4.884   3.624 -0.1828 -0.4393  0.5311
  328MOL    H5626870   6.164   4.995   3.763 -1.2178  1.9706 -0.4844
  328MOL    H5726871   6.237   5.089   3.629 -0.9918  1.0479  0.4410
  328MOL    C5826872   6.289   4.875   3.485 -0.1303 -0.7129  0.3012
  328MOL    O5926873   6.392   4.787   3.454  0.4338  0.2355 -0.0809
  328MOL    H6026874   6.334   4.959   3.433  0.3851 -0.9801  0.3082
  328MOL    H6126875   6.201   4.841   3.431 -0.4939  1.3949 -0.4682
  328MOL    C6226876   6.379   4.656   3.504  0.2300  0.0471 -0.0089
  328MOL    O6326877   6.275   4.591   3.440 -0.0569 -0.1776  0.0646
  328MOL    H6426878   6.361   4.662   3.611  0.3809 -2.7507  0.1966
  328MOL    H6526879   6.474   4.603   3.495  1.3174  2.2013 -1.9230
  328MOL    C6626880   6.251   4.458   3.483  0.0147  0.0730  0.4435
  328MOL    O6726881   6.248   4.442   3.621  0.5596 -1.1422 -0.8033
  328MOL    H6826882   6.336   4.404   3.444 -0.0040 -1.3129  2.2551
  328MOL    H6926883   6.158   4.429   3.433 -0.9657  1.4990  1.3895
  328MOL    C7026884   6.124   4.466   3.682  0.6072 -0.1272 -0.3455
  328MOL    O7126885   6.132   4.473   3.816  0.1120  0.2685 -0.1915
  328MOL    H7226886   6.042   4.399   3.656 -0.8352  0.9860  1.2658
  328MOL    H7326887   6.083   4.551   3.628  1.7681  1.7518  1.6771
  328MOL    C7426888   6.180   4.592   3.860  0.4135  0.3026 -0.3495
  328MOL    O7526889   6.319   4.610   3.840 -0.4233  0.3167  0.1104
  328MOL    H7626890   6.168   4.610   3.967 -1.3620  0.3312 -0.5290
  328MOL    H7726891   6.131   4.675   3.808  1.1424  2.4790  2.3270
  328MOL    C7826892   6.389   4.511   3.902 -0.0838 -0.4357  0.4204
  328MOL    O7926893   6.441   4.427   3.806 -0.1365  0.1858 -0.1326
  328MOL    H8026894   6.338   4.452   3.979  0.8859  0.4552  1.7690
  328MOL    H8126895   6.466   4.564   3.957 -0.6379  0.1954  0.5916
  328MOL    H8226896   6.370   4.398   3.752  0.0259 -1.0417  0.3085
  329MOL     C126897   5.446   0.832   3.867  0.4705  0.6126  0.0495
  329MOL     O226898   5.347   0.810   3.961 -0.1309 -0.2732  0.2139
  329MOL     H326899   5.501   0.922   3.896  2.0332  0.2605 -1.6388
  329MOL     H426900   5.516   0.749   3.874 -1.0829 -0.5155  2.7377
  329MOL     H526901   5.426   0.845   3.760  0.9209  2.4537  0.1714
  329MOL     C626902   5.274   0.690   3.923  0.3800  0.6420  0.2048
  329MOL     O726903   5.347   0.575   3.949 -0.2890  0.7887  0.4032
  329MOL     H826904   5.248   0.692   3.817 -2.7380 -0.0213  0.9122
  329MOL     H926905   5.174   0.691   3.966  1.0221  0.5012  1.7265
  329MOL    C1026906   5.322   0.526   4.075 -0.3697 -0.5359 -0.6842
  329MOL    O1126907   5.186   0.513   4.116 -0.0723 -0.1943 -0.6285
  329MOL    H1226908   5.375   0.577   4.156 -1.0003  1.1801 -1.3434
  329MOL    H1326909   5.376   0.431   4.076  0.5234 -0.0453  1.3088
  329MOL    C1426910   5.163   0.427   4.220  0.1496 -0.1404 -0.3218
  329MOL    O1526911   5.202   0.307   4.181  0.4163  0.0980  0.6297
  329MOL    H1626912   5.057   0.427   4.246  0.8467 -3.5323  2.8879
  329MOL    H1726913   5.207   0.465   4.313 -0.1597  0.2823 -0.3429
  329MOL    C1826914   5.209   0.220   4.286  0.1241 -0.5144  0.1307
  329MOL    O1926915   5.307   0.262   4.380 -0.3733 -0.7536 -0.2624
  329MOL    H2026916   5.238   0.125   4.241  1.5078  0.5423 -1.2808
  329MOL    H2126917   5.118   0.207   4.345 -0.0327 -1.8803 -0.3921
  329MOL    C2226918   5.441   0.268   4.330  0.3594  0.4823  0.2585
  329MOL    O2326919   5.490   0.141   4.286  0.0240 -0.1022 -0.0772
  329MOL    H2426920   5.506   0.308   4.408 -0.1496 -0.6412  1.2944
  329MOL    H2526921   5.451   0.340   4.249  0.1642  1.3324  0.9850
  329MOL    C2626922   5.510   0.050   4.389 -0.6035 -0.5605 -0.7294
  329MOL    O2726923   5.568   7.718   4.346  0.5116  0.6453  0.1499
  329MOL    H2826924   5.430   0.027   4.459 -0.2842  0.8050  0.1309
  329MOL    H2926925   5.575   0.080   4.472 -0.9774 -2.0242  0.1124
  329MOL    C3026926   5.494   7.643   4.244 -0.7300 -0.3488  0.4057
  329MOL    O3126927   5.350   7.629   4.257 -0.3232 -0.0411  0.3304
  329MOL    H3226928   5.539   7.545   4.228  0.8728  0.7619 -2.2497
  329MOL    H3326929   5.507   7.693   4.148  0.3888  1.4773  1.4884
  329MOL    C3426930   5.313   7.525   4.338  0.0478 -0.1472  0.2318
  329MOL    O3526931   5.313   7.402   4.274 -0.1177  0.7341 -0.3232
  329MOL    H3626932   5.212   7.547   4.373 -0.6309  0.8243 -2.2477
  329MOL    H3726933   5.382   7.513   4.422  2.8031 -1.0723 -2.0560
  329MOL    C3826934   5.225   7.391   4.160  0.5394 -0.5133  0.4469
  329MOL    O3926935   5.090   7.392   4.187  0.1870 -0.1660 -0.0313
  329MOL    H4026936   5.243   7.306   4.093  1.1383  1.3697 -1.8632
  329MOL    H4126937   5.232   7.473   4.088 -1.5258  0.7267  1.6180
  329MOL    C4226938   5.048   7.277   4.250  0.3387 -0.3656  0.6832
  329MOL    O4326939   4.997   7.300   4.381 -0.8324  0.2643  0.3814
  329MOL    H4426940   5.124   7.199   4.255  1.5729  0.6747 -1.1250
  329MOL    H4526941   4.962   7.243   4.193  0.0093  0.0391  0.9354
  329MOL    C4626942   4.894   7.384   4.382 -0.1333  0.0475  0.4268
  329MOL    O4726943   4.783   7.309   4.368  0.0540 -0.4450 -0.6632
  329MOL    H4826944   4.894   7.466   4.310 -0.4121  0.2569  0.6604
  329MOL    H4926945   4.892   7.431   4.480  3.2763 -0.7377  0.9209
  329MOL    C5026946   4.681   7.387   4.323 -0.2777 -0.4628 -0.0959
  329MOL    O5126947   4.562   7.316   4.327  0.3367 -0.5858  0.0464
  329MOL    H5226948   4.706   7.413   4.220  0.0862  0.6655  0.2755
  329MOL    H5326949   4.665   7.479   4.379 -0.1574  0.6370 -1.8059
  329MOL    C5426950   4.453   7.379   4.251 -0.3295  0.1111 -0.3348
  329MOL    O5526951   4.441   7.334   4.123 -0.3285  0.2181  0.0884
  329MOL    H5626952   4.463   7.488   4.250 -0.9304  0.1584 -0.8995
  329MOL    H5726953   4.362   7.365   4.308 -0.4733  0.0766 -0.5732
  329MOL    C5826954   4.430   7.194   4.118 -0.2232  0.2064 -0.3449
  329MOL    O5926955   4.318   7.147   4.182  0.3024  0.2216 -0.0490
  329MOL    H6026956   4.506   7.137   4.173  1.1839  3.2047  0.9249
  329MOL    H6126957   4.438   7.171   4.012 -2.6019 -1.0119 -0.2950
  329MOL    C6226958   4.278   7.013   4.144 -0.3658  0.7836  0.2548
  329MOL    O6326959   4.360   6.910   4.197 -0.5428  0.0484  0.5463
  329MOL    H6426960   4.280   7.003   4.035  0.1193 -0.2491  0.3547
  329MOL    H6526961   4.176   6.993   4.176 -0.8193 -0.1848 -1.7187
  329MOL    C6626962   4.345   6.893   4.333 -0.8806  0.3641 -0.3061
  329MOL    O6726963   4.276   6.776   4.365  0.7960 -0.2335 -0.0327
  329MOL    H6826964   4.297   6.982   4.374 -0.4198  0.1685  0.6800
  329MOL    H6926965   4.445   6.897   4.377 -1.8434 -2.2994  2.2780
  329MOL    C7026966   4.257   6.762   4.504 -0.3080 -0.7642  0.4312
  329MOL    O7126967   4.376   6.760   4.581  0.2031  0.0319 -0.2959
  329MOL    H7226968   4.202   6.669   4.518  0.4845 -1.7121 -2.4863
  329MOL    H7326969   4.203   6.847   4.547 -1.2568 -1.2766  0.2656
  329MOL    C7426970   4.454   6.648   4.559 -0.1828 -0.1303  0.3943
  329MOL    O7526971   4.395   6.536   4.604 -0.5333 -0.0560  0.2112
  329MOL    H7626972   4.552   6.658   4.605  0.1006  0.9930 -0.4348
  329MOL    H7726973   4.471   6.638   4.452 -2.4980  1.0442 -0.1242
  329MOL    C7826974   4.357   6.544   4.739  0.6467 -0.5476 -0.0840
  329MOL    O7926975   4.297   6.422   4.773  0.0152  0.4832 -0.5190
  329MOL    H8026976   4.284   6.622   4.761 -0.2875 -1.2449 -0.6654
  329MOL    H8126977   4.449   6.549   4.798  0.1001 -0.0680  0.7297
  329MOL    H8226978   4.354   6.354   4.742 -2.4053 -1.0983 -1.6261
  330MOL     C126979   4.649   2.202   0.261 -0.8151 -0.3011  0.3603
  330MOL     O226980   4.678   2.334   0.228 -0.2632  0.0312 -0.0212
  330MOL     H326981   4.634   2.155   0.164  0.2208  0.9493 -0.4378
  330MOL     H426982   4.742   2.163   0.302  1.4887  3.3360 -1.0753
  330MOL     H526983   4.566   2.183   0.330 -2.0235  1.0749 -0.6657
  330MOL     C626984   4.568   2.406   0.217  0.2224  0.0253  0.0455
  330MOL     O726985   4.477   2.345   0.134  0.3036 -0.2372  0.5923
  330MOL     H826986   4.596   2.502   0.173  1.7411 -1.8762 -3.3284
  330MOL     H926987   4.517   2.429   0.310  0.6897  0.5305  0.1820
  330MOL    C1026988   4.479   2.393   7.777 -0.5795  0.1349 -0.0435
  330MOL    O1126989   4.455   2.533   7.768 -0.2574 -0.5254  0.2345
  330MOL    H1226990   4.394   2.339   7.735  0.2351 -0.5427 -0.8332
  330MOL    H1326991   4.568   2.359   7.725 -1.2746  1.1249 -1.9094
  330MOL    C1426992   4.451   2.579   7.636 -0.1591 -0.7945 -0.5772
  330MOL    O1526993   4.328   2.552   7.580  0.2694  0.0340 -0.3366
  330MOL    H1626994   4.532   2.529   7.582  1.8017 -0.0449  1.5974
  330MOL    H1726995   4.484   2.683   7.643  0.1866 -0.9196 -0.3445
  330MOL    C1826996   4.233   2.650   7.613  0.0231 -0.2931 -0.1567
  330MOL    O1926997   4.247   2.765   7.522 -0.2097  0.7166 -0.2504
  330MOL    H2026998   4.249   2.683   7.715 -0.8191 -0.3758  0.0048
  330MOL    H2126999   4.127   2.626   7.598  0.0313  0.4288 -1.5052
  330MOL    C2227000   4.236   2.726   7.395 -0.0246  0.2281  0.3301
  330MOL    O2327001   4.104   2.725   7.364 -0.1448 -0.2015  0.0552
  330MOL    H2427002   4.275   2.627   7.371  1.0816  0.1065  2.4609
  330MOL    H2527003   4.283   2.802   7.332 -4.3757  3.9832  1.3349
  330MOL    C2627004   4.086   2.659   7.243  0.0895  0.1633 -0.2876
  330MOL    O2727005   4.087   2.518   7.247 -0.2297  0.2164  0.2376
  330MOL    H2827006   4.152   2.703   7.167  1.8554  0.0761  1.1467
  330MOL    H2927007   3.988   2.688   7.206  0.0575  0.9244  0.3865
  330MOL    C3027008   3.991   2.460   7.334  0.3337  0.1476 -0.2033
  330MOL    O3127009   4.012   2.326   7.344  0.3488  0.3170  0.1874
  330MOL    H3227010   3.890   2.485   7.301  1.0193  0.3821 -2.2323
  330MOL    H3327011   4.003   2.504   7.433 -1.9950  1.4209 -0.4585
  330MOL    C3427012   3.993   2.246   7.224  0.1618 -0.3230  0.3445
  330MOL    O3527013   3.885   2.164   7.247 -0.0492 -0.0944  0.1061
  330MOL    H3627014   4.086   2.192   7.204 -0.7107 -1.7638  0.0909
  330MOL    H3727015   3.973   2.308   7.137 -1.4530 -0.0583  0.8811
  330MOL    C3827016   3.856   2.082   7.125 -0.2035 -0.2887  0.4691
  330MOL    O3927017   3.821   2.158   7.012  0.7009 -0.4917  0.2886
  330MOL    H4027018   3.785   2.001   7.138 -0.4549 -0.0813  0.4002
  330MOL    H4127019   3.941   2.019   7.099 -1.1906 -1.7312  0.6896
  330MOL    C4227020   3.707   2.240   7.039 -0.1595  1.2672  0.4225
  330MOL    O4327021   3.671   2.315   6.922  0.3235 -0.3733  0.2025
  330MOL    H4427022   3.715   2.303   7.127  3.1726  1.7501 -0.1343
  330MOL    H4527023   3.632   2.165   7.064  1.6215 -0.6442  0.2332
  330MOL    C4627024   3.555   2.387   6.927 -0.6757 -0.2127 -0.3240
  330MOL    O4727025   3.453   2.301   6.922  0.1540  0.2060 -0.1163
  330MOL    H4827026   3.540   2.471   6.859 -1.0299  0.6118  0.7698
  330MOL    H4927027   3.559   2.439   7.022  0.9654 -1.0505  0.0843
  330MOL    C5027028   3.427   2.230   6.804 -0.2924 -0.2153 -0.1205
  330MOL    O5127029   3.303   2.171   6.814  0.4057 -0.7619 -0.8398
  330MOL    H5227030   3.499   2.148   6.798  0.7323  0.7365 -1.0543
  330MOL    H5327031   3.432   2.294   6.716 -1.6286 -1.0848 -0.8303
  330MOL    C5427032   3.201   2.270   6.796 -0.6955 -0.1223  0.4154
  330MOL    O5527033   3.196   2.308   6.665 -0.1528  0.2871 -0.0790
  330MOL    H5627034   3.218   2.363   6.850  0.3703  1.3049 -2.2578
  330MOL    H5727035   3.103   2.239   6.832 -0.7515  1.0818  1.3242
  330MOL    C5827036   3.151   2.201   6.584  0.0025 -0.0531  0.0421
  330MOL    O5927037   3.161   2.227   6.447  0.1852 -0.5064  0.6426
  330MOL    H6027038   3.044   2.195   6.601  0.0763  3.4730  1.9729
  330MOL    H6127039   3.200   2.104   6.592  1.8210  0.9200  0.9117
  330MOL    C6227040   3.299   2.240   6.410  0.3429 -0.4824 -0.3606
  330MOL    O6327041   3.310   2.229   6.275 -0.0875 -0.0415 -0.0056
  330MOL    H6427042   3.363   2.155   6.435  0.0146 -0.8288 -0.6825
  330MOL    H6527043   3.335   2.330   6.460 -1.4702  1.2141 -2.0257
  330MOL    C6627044   3.297   2.357   6.211 -0.3975 -0.3521 -0.2479
  330MOL    O6727045   3.306   2.332   6.078  0.3571 -0.0976  0.2001
  330MOL    H6827046   3.382   2.408   6.255 -1.2743  1.1885 -0.3189
  330MOL    H6927047   3.207   2.410   6.243 -0.9561 -0.9197 -0.8561
  330MOL    C7027048   3.192   2.281   6.016 -0.1321  0.9306  0.4515
  330MOL    O7127049   3.083   2.374   5.999  0.1790 -0.2563 -0.4160
  330MOL    H7227050   3.156   2.197   6.075 -2.5019  1.2209 -0.5310
  330MOL    H7327051   3.218   2.236   5.920  0.7546  0.5843  0.8450
  330MOL    C7427052   3.094   2.450   5.884  0.4501  0.3930 -0.0427
  330MOL    O7527053   3.113   2.366   5.777 -0.0690  0.4733  0.5115
  330MOL    H7627054   3.181   2.515   5.888  0.3228  0.4677  2.1492
  330MOL    H7727055   3.009   2.515   5.863 -0.1628 -0.4832 -0.2773
  330MOL    C7827056   3.004   2.340   5.698  0.2417  0.0884 -0.5878
  330MOL    O7927057   2.882   2.295   5.761 -0.7473  0.1745 -1.1298
  330MOL    H8027058   3.031   2.272   5.617  1.4394  0.5035 -0.5477
  330MOL    H8127059   2.984   2.432   5.644  0.8692 -0.3400 -1.5635
  330MOL    H8227060   2.905   2.209   5.794 -3.1313 -0.5192 -1.2020
  331MOL     C127061   4.713   7.709   0.941 -0.0152 -0.8539 -0.3404
  331MOL     O227062   4.646   7.600   1.012  0.3226  0.5227 -0.9022
  331MOL     H327063   4.822   7.700   0.946 -0.1732 -1.7197  2.1119
  331MOL     H427064   4.692   7.698   0.834  0.8240 -0.2197 -0.5786
  331MOL     H527065   4.686   0.024   0.978 -3.1052 -1.6038 -0.4680
  331MOL     C627066   4.608   7.643   1.144  0.2604 -0.1659  0.5162
  331MOL     O727067   4.716   7.638   1.229  0.6324 -0.3473 -0.4492
  331MOL     H827068   4.532   7.572   1.179 -0.1833  0.3962  0.6967
  331MOL     H927069   4.561   7.742   1.145  1.7181  0.5832 -1.4628
  331MOL    C1027070   4.761   7.517   1.283 -0.1153 -0.3288 -0.5943
  331MOL    O1127071   4.677   7.460   1.379  0.4519  0.0298  0.3676
  331MOL    H1227072   4.864   7.533   1.314  0.6031 -0.3360 -2.9083
  331MOL    H1327073   4.775   7.456   1.194 -0.7788  0.5002 -1.2802
  331MOL    C1427074   4.679   7.517   1.502 -0.3676 -0.2514  0.2507
  331MOL    O1527075   4.778   7.463   1.588  0.2952 -0.3414 -0.1018
  331MOL    H1627076   4.580   7.488   1.538 -1.0227  1.9203  0.2961
  331MOL    H1727077   4.670   7.626   1.506  3.1948  0.0732  2.4736
  331MOL    C1827078   4.779   7.523   1.715  0.3951 -0.5063 -0.0978
  331MOL    O1927079   4.647   7.522   1.777 -0.3108  0.5211  0.0327
  331MOL    H2027080   4.811   7.627   1.716  1.3849 -0.8142  0.6156
  331MOL    H2127081   4.859   7.473   1.770 -0.1863 -0.5990  0.6772
  331MOL    C2227082   4.619   7.395   1.822  0.2300  0.8120  0.2156
  331MOL    O2327083   4.699   7.350   1.925  0.0556  0.9535 -0.2398
  331MOL    H2427084   4.617   7.312   1.751  1.2349  0.0903  1.0248
  331MOL    H2527085   4.515   7.396   1.854 -0.6828 -0.5985 -2.5689
  331MOL    C2627086   4.681   7.429   2.038  0.2143 -0.5606  0.0119
  331MOL    O2727087   4.735   7.379   2.156 -0.1715 -0.1760 -0.4629
  331MOL    H2827088   4.574   7.440   2.052  0.5085 -0.9485  2.7948
  331MOL    H2927089   4.712   7.531   2.015  1.9014 -0.7417  1.3968
  331MOL    C3027090   4.874   7.368   2.152 -0.6948 -0.2860 -0.3358
  331MOL    O3127091   4.936   7.485   2.109 -0.5803  0.4789  0.1045
  331MOL    H3227092   4.901   7.297   2.074  1.3685  1.2807 -1.0913
  331MOL    H3327093   4.911   7.349   2.253  0.2053 -0.4049 -0.6767
  331MOL    C3427094   4.930   7.588   2.203  0.0441  0.3647 -0.2604
  331MOL    O3527095   4.821   7.667   2.200 -0.5353 -0.4754  0.3778
  331MOL    H3627096   5.012   7.651   2.168  0.3095 -0.4209 -1.0664
  331MOL    H3727097   4.955   7.564   2.307  1.4897 -1.0903 -0.9237
  331MOL    C3827098   4.834   0.019   2.224 -0.1229  0.3016  0.3414
  331MOL    O3927099   4.906   0.080   2.120  0.0115 -0.2960 -0.3703
  331MOL    H4027100   4.885   0.033   2.320 -1.1885 -0.6423  1.0561
  331MOL    H4127101   4.735   0.059   2.245 -0.7189 -2.1664  2.4587
  331MOL    C4227102   4.845   0.051   2.001  0.1214  0.6701  0.3579
  331MOL    O4327103   4.748   0.145   1.972  0.1772 -0.1336 -0.6306
  331MOL    H4427104   4.801   7.735   1.992 -0.0196  0.8092 -0.5179
  331MOL    H4527105   4.928   0.051   1.930  0.1399  2.0474  0.3795
  331MOL    C4627106   4.664   0.096   1.870 -0.1609  0.1919  0.1514
  331MOL    O4727107   4.726   0.094   1.746  0.2211  0.0036 -0.1260
  331MOL    H4827108   4.568   0.147   1.865  0.4480  1.2701 -0.7319
  331MOL    H4927109   4.632   7.779   1.899  0.8545  0.3081  1.7111
  331MOL    C5027110   4.708   0.219   1.680  0.5305 -0.0946 -0.3048
  331MOL    O5127111   4.580   0.229   1.624 -0.2830  0.5224  0.3268
  331MOL    H5227112   4.773   0.214   1.592  1.5545 -0.0539  0.4339
  331MOL    H5327113   4.728   0.298   1.753 -0.7515  0.2225 -0.2985
  331MOL    C5427114   4.564   0.145   1.517 -0.0429 -0.4039 -0.0334
  331MOL    O5527115   4.448   0.184   1.448 -0.0154 -0.1359 -0.0298
  331MOL    H5627116   4.555   0.049   1.567 -1.0697 -0.4405 -0.2641
  331MOL    H5727117   4.641   0.149   1.440 -0.2013  2.3122 -0.1210
  331MOL    C5827118   4.461   0.304   1.372  0.3428  0.0577 -0.1656
  331MOL    O5927119   4.451   0.279   1.238 -0.1357 -0.1091  0.6068
  331MOL    H6027120   4.551   0.363   1.392 -1.7758  3.5566 -0.5387
  331MOL    H6127121   4.373   0.363   1.399  1.8633  1.6472  1.4286
  331MOL    C6227122   4.440   0.398   1.168  0.8005 -0.1440 -0.7570
  331MOL    O6327123   4.313   0.453   1.170  0.1932  0.3638 -0.2384
  331MOL    H6427124   4.457   0.369   1.064 -0.0597 -2.4602 -0.2824
  331MOL    H6527125   4.527   0.459   1.192 -0.8750  1.1949  2.1808
  331MOL    C6627126   4.218   0.350   1.132 -0.8956 -0.3648  1.2259
  331MOL    O6727127   4.085   0.394   1.144 -0.0343  0.5198 -0.5017
  331MOL    H6827128   4.236   0.254   1.181 -1.3728 -1.0025  0.1986
  331MOL    H6927129   4.236   0.339   1.025 -2.7697  1.4708  0.7015
  331MOL    C7027130   4.032   0.369   1.266 -0.7122  0.0394  0.2690
  331MOL    O7127131   4.000   0.234   1.291 -0.2649 -0.0689  0.1901
  331MOL    H7227132   3.939   0.426   1.272 -2.1012 -2.1107  0.0162
  331MOL    H7327133   4.099   0.408   1.342 -1.9795  0.9887  0.9261
  331MOL    C7427134   3.884   0.187   1.224  0.2380  0.4081 -0.2090
  331MOL    O7527135   3.769   0.186   1.303  0.1372 -0.3720 -0.6155
  331MOL    H7627136   3.913   0.089   1.187  0.8873  0.1274  1.0001
  331MOL    H7727137   3.872   0.253   1.138  0.9355  1.0962  0.2144
  331MOL    C7827138   3.771   0.089   1.395  0.5099  0.6033 -0.0106
  331MOL    O7927139   3.698   0.136   1.501  0.9517 -0.2911 -0.4865
  331MOL    H8027140   3.870   0.055   1.422  0.9939  1.3073 -0.8685
  331MOL    H8127141   3.721   0.005   1.347  0.7566  0.5654 -0.2016
  331MOL    H8227142   3.617   0.166   1.462  1.0888  2.1700  1.0057
  332MOL     C127143   5.621   2.709   2.209 -0.0095  0.5744 -0.2876
  332MOL     O227144   5.563   2.843   2.236 -0.1677  0.6204 -0.2885
  332MOL     H327145   5.548   2.642   2.164  1.1159  0.5664 -2.1784
  332MOL     H427146   5.711   2.696   2.149 -1.1547 -3.9566 -1.2082
  332MOL     H527147   5.648   2.655   2.300 -0.8979  0.1166 -0.2968
  332MOL     C627148   5.583   2.929   2.127  0.6764 -0.2964  0.8993
  332MOL     O727149   5.523   2.894   2.007 -0.0271  0.1576  0.5213
  332MOL     H827150   5.691   2.930   2.115  0.2371  0.2883 -3.9767
  332MOL     H927151   5.558   3.032   2.153  1.2587  0.2716 -0.7357
  332MOL    C1027152   5.380   2.894   2.010  0.3883  0.2424 -0.1801
  332MOL    O1127153   5.330   3.024   1.995 -0.2768  0.2678 -0.3441
  332MOL    H1227154   5.343   2.841   2.097  1.9742 -2.1167 -0.8946
  332MOL    H1327155   5.344   2.835   1.925 -2.5301 -0.9736  1.8288
  332MOL    C1427156   5.328   3.067   1.867 -0.6514 -0.4074  0.3071
  332MOL    O1527157   5.222   3.020   1.790  0.1737 -0.3364 -0.5634
  332MOL    H1627158   5.421   3.036   1.819 -1.4686 -1.4825 -0.5921
  332MOL    H1727159   5.318   3.176   1.868  2.9444 -0.0091 -0.1585
  332MOL    C1827160   5.099   3.069   1.837  0.2634  0.8025  0.3388
  332MOL    O1927161   5.027   3.140   1.734 -0.2538 -0.3366 -0.1275
  332MOL    H2027162   5.100   3.140   1.919 -3.0654  0.4715  0.7226
  332MOL    H2127163   5.044   2.980   1.864  2.3758 -1.1051 -1.3925
  332MOL    C2227164   5.091   3.254   1.693  0.3343  0.0611  0.3075
  332MOL    O2327165   5.104   3.353   1.794 -0.0316 -0.0324 -0.4499
  332MOL    H2427166   5.045   3.304   1.607 -1.3344 -0.8094  0.6707
  332MOL    H2527167   5.187   3.220   1.654  1.9324  1.3814  2.9720
  332MOL    C2627168   4.989   3.419   1.833 -0.0844 -0.0902  0.5999
  332MOL    O2727169   4.943   3.500   1.727  0.3057 -0.4937 -0.0043
  332MOL    H2827170   4.988   3.472   1.928  0.8194 -0.7440  0.9761
  332MOL    H2927171   4.899   3.357   1.832  0.3653 -0.7276 -1.2122
  332MOL    C3027172   5.013   3.618   1.707  0.7271  0.3854 -0.2192
  332MOL    O3127173   5.015   3.705   1.809 -0.2197  0.5716 -0.5957
  332MOL    H3227174   4.973   3.687   1.632  0.2404 -1.0156 -1.2895
  332MOL    H3327175   5.115   3.587   1.685 -0.0289 -1.1172 -1.8172
  332MOL    C3427176   4.888   3.747   1.847  0.2117  0.6386 -0.0724
  332MOL    O3527177   4.892   3.866   1.918 -0.5427 -0.6979  0.1423
  332MOL    H3627178   4.836   3.677   1.912  2.5112  1.1068  2.3260
  332MOL    H3727179   4.824   3.786   1.767 -0.0118  1.4283  0.4955
  332MOL    C3827180   4.940   3.850   2.051  0.5302 -0.0929 -0.0027
  332MOL    O3927181   4.852   3.771   2.126 -0.3413  0.0836 -0.4224
  332MOL    H4027182   4.949   3.951   2.090 -1.2625  0.6738 -1.4866
  332MOL    H4127183   5.041   3.809   2.057  0.2498 -0.6845  0.6977
  332MOL    C4227184   4.733   3.829   2.159  0.0234 -0.0089  0.3589
  332MOL    O4327185   4.743   3.937   2.245 -0.3772 -0.2932  0.7612
  332MOL    H4427186   4.663   3.752   2.194 -0.1764 -0.5905 -1.2504
  332MOL    H4527187   4.679   3.865   2.071  0.4878 -0.4922 -0.1287
  332MOL    C4627188   4.797   3.897   2.367 -0.3420  0.4451 -0.2319
  332MOL    O4727189   4.717   3.807   2.433  0.1289  0.5713  0.1221
  332MOL    H4827190   4.803   3.991   2.422  1.1171 -0.1003  0.5759
  332MOL    H4927191   4.900   3.862   2.357 -0.2375  0.8496 -0.5936
  332MOL    C5027192   4.601   3.862   2.474  0.0829 -0.1825 -0.4778
  332MOL    O5127193   4.535   3.770   2.567 -0.3514 -0.2529 -0.3859
  332MOL    H5227194   4.534   3.890   2.394  1.1607  0.9536 -0.9943
  332MOL    H5327195   4.614   3.962   2.515 -0.1371 -1.0023  1.6946
  332MOL    C5427196   4.437   3.691   2.495 -0.7942 -0.3464 -0.4040
  332MOL    O5527197   4.385   3.588   2.583  0.1868  0.2168 -0.0066
  332MOL    H5627198   4.478   3.650   2.403 -1.0772 -0.5885 -0.4198
  332MOL    H5727199   4.360   3.757   2.457  0.9490  1.9524 -0.0866
  332MOL    C5827200   4.481   3.498   2.625  0.4145  0.4054  0.4597
  332MOL    O5927201   4.423   3.377   2.678 -0.1196 -0.1887 -0.4566
  332MOL    H6027202   4.547   3.541   2.701  1.4616 -1.6066  0.7188
  332MOL    H6127203   4.556   3.480   2.548  0.6937  0.2652  0.7571
  332MOL    C6227204   4.363   3.304   2.575  0.3149  0.0761  0.8241
  332MOL    O6327205   4.454   3.251   2.486  0.2280  0.4987 -0.1656
  332MOL    H6427206   4.299   3.361   2.508  0.5952 -0.7293 -0.1477
  332MOL    H6527207   4.302   3.221   2.614  0.1640  0.1265  0.6956
  332MOL    C6627208   4.545   3.166   2.547 -0.8034  0.7132 -0.1052
  332MOL    O6727209   4.491   3.039   2.554 -0.4439 -0.3006 -0.6523
  332MOL    H6827210   4.588   3.198   2.642 -0.4922  2.4430 -0.8034
  332MOL    H6927211   4.630   3.162   2.479  1.0722 -0.2035  2.2194
  332MOL    C7027212   4.578   2.936   2.571  0.0013 -0.4292  0.1833
  332MOL    O7127213   4.671   2.921   2.465 -0.2786  0.0757 -0.3728
  332MOL    H7227214   4.524   2.843   2.593 -0.2977 -0.4889 -0.7783
  332MOL    H7327215   4.633   2.961   2.662 -0.7455  2.1986 -0.0602
  332MOL    C7427216   4.609   2.869   2.363 -0.4668  0.1010 -0.2000
  332MOL    O7527217   4.585   2.728   2.378  0.1193  0.5131  0.2233
  332MOL    H7627218   4.671   2.882   2.274 -2.0010  1.0184 -1.1616
  332MOL    H7727219   4.521   2.928   2.338  0.8618  1.8377 -0.8827
  332MOL    C7827220   4.695   2.657   2.383  0.0643 -0.2369  0.3337
  332MOL    O7927221   4.674   2.524   2.392 -0.3872  0.7098 -0.1342
  332MOL    H8027222   4.763   2.689   2.462 -1.3430 -0.1816  1.5342
  332MOL    H8127223   4.733   2.654   2.281 -0.5012 -0.1523  0.1165
  332MOL    H8227224   4.621   2.498   2.319 -0.7723  1.3409 -0.0846
  333MOL     C127225   2.992   5.780   4.725 -0.3542  0.2338  0.2301
  333MOL     O227226   2.863   5.788   4.668  0.1886 -0.3203 -0.8614
  333MOL     H327227   3.041   5.875   4.744  1.5280 -0.2079 -2.1350
  333MOL     H427228   2.997   5.718   4.814 -0.4117 -0.1468 -0.0294
  333MOL     H527229   3.058   5.733   4.651 -0.3807  1.8200 -0.8256
  333MOL     C627230   2.847   5.865   4.560 -0.2973  0.7393 -0.9995
  333MOL     O727231   2.919   5.810   4.444  0.4416 -0.1101 -0.2587
  333MOL     H827232   2.866   5.972   4.565 -1.4278  1.0552 -2.8137
  333MOL     H927233   2.740   5.862   4.540 -0.7265  1.7212  1.0935
  333MOL    C1027234   2.848   5.709   4.384  0.8327 -0.0832 -0.3498
  333MOL    O1127235   2.732   5.751   4.324 -0.0350  0.3517  0.1317
  333MOL    H1227236   2.826   5.625   4.450 -2.3060  0.5525 -0.4986
  333MOL    H1327237   2.913   5.679   4.302 -0.7140 -1.0107 -1.2620
  333MOL    C1427238   2.675   5.654   4.246 -0.8323  0.1628 -0.3387
  333MOL    O1527239   2.604   5.559   4.320  0.0774 -0.5716 -0.0525
  333MOL    H1627240   2.749   5.611   4.178  0.1769 -3.1295  2.6980
  333MOL    H1727241   2.607   5.700   4.174 -0.4051  1.7901  0.2891
  333MOL    C1827242   2.581   5.446   4.246  0.1403 -0.0235 -0.2812
  333MOL    O1927243   2.470   5.466   4.156  0.6291  0.2606 -0.0820
  333MOL    H2027244   2.542   5.361   4.303  0.8420 -0.1062  0.0756
  333MOL    H2127245   2.665   5.414   4.185  1.0099  0.3087  0.7314
  333MOL    C2227246   2.347   5.478   4.223 -0.4358  0.0238  0.2863
  333MOL    O2327247   2.308   5.363   4.287  0.0017 -0.6158  0.0589
  333MOL    H2427248   2.267   5.500   4.153  0.8684 -0.9834 -1.5530
  333MOL    H2527249   2.349   5.560   4.295  3.4623  0.1649  0.1353
  333MOL    C2627250   2.262   5.259   4.206  0.2321  0.0343  0.2079
  333MOL    O2727251   2.119   5.258   4.206 -0.1588  0.3144 -0.2920
  333MOL    H2827252   2.305   5.169   4.250  1.3809  1.0207  1.1293
  333MOL    H2927253   2.301   5.273   4.105 -0.2162 -1.1424 -0.1341
  333MOL    C3027254   2.063   5.306   4.089 -0.2864  0.3493  0.3759
  333MOL    O3127255   2.080   5.226   3.974 -0.2799  0.1221  0.2684
  333MOL    H3227256   2.097   5.405   4.059 -1.1456  0.6089  0.2538
  333MOL    H3327257   1.957   5.329   4.100 -0.3443  1.8580 -2.6596
  333MOL    C3427258   2.040   5.093   3.990 -0.3744 -0.2874 -0.0565
  333MOL    O3527259   1.907   5.072   3.962  0.1421  0.3057 -0.1422
  333MOL    H3627260   2.072   5.045   4.082 -3.5804  0.3400  1.4750
  333MOL    H3727261   2.085   5.033   3.911 -1.4068 -0.3529 -0.6110
  333MOL    C3827262   1.832   5.016   4.073 -0.9267 -1.0257  0.1200
  333MOL    O3927263   1.839   5.097   4.186 -0.2898  0.2884  0.1135
  333MOL    H4027264   1.883   4.922   4.094  1.5025 -0.2677 -2.0773
  333MOL    H4127265   1.728   4.994   4.049 -0.5609 -1.1286 -1.4242
  333MOL    C4227266   1.745   5.207   4.188 -0.0736 -0.1702 -0.2462
  333MOL    O4327267   1.631   5.173   4.252 -1.0130 -0.5546 -0.7109
  333MOL    H4427268   1.722   5.254   4.093  0.4551  3.3585  1.2691
  333MOL    H4527269   1.789   5.292   4.239  0.8251 -0.3803 -0.6727
  333MOL    C4627270   1.656   5.142   4.387 -0.6808  0.1802 -0.3784
  333MOL    O4727271   1.546   5.174   4.465 -0.2170  0.5735 -0.0070
  333MOL    H4827272   1.735   5.204   4.430 -0.4640 -0.9708  0.9097
  333MOL    H4927273   1.686   5.038   4.398  2.5334  1.2400  1.6263
  333MOL    C5027274   1.502   5.304   4.443  0.2065  0.1177  0.0919
  333MOL    O5127275   1.370   5.327   4.489  0.4848  0.1404 -0.5325
  333MOL    H5227276   1.506   5.349   4.344 -1.4219  0.2861  0.0821
  333MOL    H5327277   1.566   5.365   4.508 -0.9365  0.0818  1.2824
  333MOL    C5427278   1.276   5.263   4.410 -0.2478 -0.3981 -0.0118
  333MOL    O5527279   1.145   5.294   4.445  0.7663  0.2720  0.1352
  333MOL    H5627280   1.305   5.158   4.418  0.1282 -0.2545  0.5867
  333MOL    H5727281   1.287   5.283   4.304 -1.9985  0.0930 -0.1146
  333MOL    C5827282   1.106   5.244   4.570 -0.3964  0.4747 -0.1708
  333MOL    O5927283   1.107   5.102   4.573  0.0135 -0.8817 -0.2343
  333MOL    H6027284   1.004   5.271   4.597 -0.9566  0.2642 -1.9510
  333MOL    H6127285   1.169   5.297   4.642  0.3049  0.9503 -1.1050
  333MOL    C6227286   1.087   5.048   4.699 -0.1590  0.2052  0.4988
  333MOL    O6327287   1.204   5.039   4.771  0.1177 -0.0989 -0.1537
  333MOL    H6427288   1.057   4.944   4.688  1.8294 -0.3721  0.3554
  333MOL    H6527289   1.011   5.103   4.755 -1.8566 -0.5199 -1.0345
  333MOL    C6627290   1.276   4.923   4.752 -0.5658  0.2433 -0.0184
  333MOL    O6727291   1.403   4.930   4.808  0.8126  0.2440 -0.0172
  333MOL    H6827292   1.285   4.902   4.645 -1.1999 -0.1492  0.0031
  333MOL    H6927293   1.229   4.832   4.790  0.5839 -0.0784  0.6502
  333MOL    C7027294   1.494   4.975   4.713  0.5747  0.0446 -0.0565
  333MOL    O7127295   1.547   4.871   4.643  0.3401 -0.2242  0.3046
  333MOL    H7227296   1.575   5.025   4.767  0.9934  0.4605 -1.0585
  333MOL    H7327297   1.445   5.052   4.654 -0.6323 -0.3765  0.3932
  333MOL    C7427298   1.672   4.830   4.681  0.3077 -0.0663  0.0637
  333MOL    O7527299   1.763   4.916   4.637 -0.6799 -0.3021 -0.0895
  333MOL    H7627300   1.699   4.742   4.622  0.7442 -0.8938  1.4935
  333MOL    H7727301   1.670   4.813   4.788  0.9405  0.7124  0.2076
  333MOL    C7827302   1.864   4.933   4.725  0.6610 -0.5456  0.2192
  333MOL    O7927303   1.932   4.814   4.749 -0.3809  0.0857 -0.4921
  333MOL    H8027304   1.825   4.968   4.821  1.1559  1.9636 -0.4754
  333MOL    H8127305   1.932   5.008   4.685 -0.3345  0.0325 -0.4033
  333MOL    H8227306   1.964   4.789   4.664 -0.5741  0.0443 -0.5539
  334MOL     C127307   4.980   5.166   6.815  0.2463  0.4999 -0.7318
  334MOL     O227308   5.114   5.210   6.811  0.0260  0.4258  0.0443
  334MOL     H327309   4.953   5.085   6.748 -1.6892  0.6319 -0.1317
  334MOL     H427310   4.967   5.135   6.918 -0.1253  3.4313  0.1452
  334MOL     H527311   4.913   5.250   6.798 -0.6286  0.4371  2.1058
  334MOL     C627312   5.139   5.332   6.868 -0.3850 -0.2499 -0.2669
  334MOL     O727313   5.269   5.361   6.899 -0.2018 -0.3773  0.1583
  334MOL     H827314   5.094   5.342   6.966  0.9413  0.4880  0.2854
  334MOL     H927315   5.088   5.407   6.807 -1.4145 -0.8530 -0.1457
  334MOL    C1027316   5.349   5.348   6.783  0.3278 -1.2575  0.2269
  334MOL    O1127317   5.346   5.462   6.698 -0.0778  0.1349 -0.1722
  334MOL    H1227318   5.321   5.256   6.731  1.6799 -1.7663  0.3655
  334MOL    H1327319   5.450   5.337   6.822  0.8331 -1.6277 -1.1553
  334MOL    C1427320   5.428   5.565   6.740  1.0139  0.2943 -0.0247
  334MOL    O1527321   5.559   5.535   6.700  0.1723 -0.4221 -0.0949
  334MOL    H1627322   5.436   5.584   6.847  0.1940  1.0395 -0.0843
  334MOL    H1727323   5.405   5.649   6.674 -3.0881 -1.1805 -0.6293
  334MOL    C1827324   5.577   5.533   6.563  0.4447  0.1836  0.0194
  334MOL    O1927325   5.619   5.656   6.518  0.1659  0.6540  0.0017
  334MOL    H2027326   5.485   5.510   6.510  0.4296 -3.6942  1.5500
  334MOL    H2127327   5.655   5.460   6.539  0.7624  1.1813 -2.0775
  334MOL    C2227328   5.736   5.700   6.577 -0.3574  0.3089  0.3953
  334MOL    O2327329   5.845   5.609   6.574  0.2086 -0.2864 -0.3231
  334MOL    H2427330   5.717   5.730   6.680  2.7317  2.0240  0.5252
  334MOL    H2527331   5.762   5.795   6.530 -2.6649 -1.2025 -4.1816
  334MOL    C2627332   5.898   5.593   6.448  0.0497  0.2194 -0.1193
  334MOL    O2727333   5.987   5.702   6.416  0.2504  0.5018 -0.3400
  334MOL    H2827334   5.816   5.575   6.378  0.0141  0.6497 -0.1863
  334MOL    H2927335   5.957   5.502   6.463 -1.7756 -0.9072  0.3454
  334MOL    C3027336   6.084   5.734   6.518  0.0933 -0.8336 -0.1668
  334MOL    O3127337   6.174   5.626   6.535  0.5734 -0.6247  0.1082
  334MOL    H3227338   6.039   5.759   6.614  0.2820 -2.2113  0.3071
  334MOL    H3327339   6.140   5.825   6.497 -0.7940  0.3047  2.2294
  334MOL    C3427340   6.285   5.631   6.455 -0.7589 -1.3684  0.8682
  334MOL    O3527341   6.366   5.742   6.480  0.0200  0.2283 -0.3920
  334MOL    H3627342   6.246   5.653   6.356 -1.2959  0.8236  1.5506
  334MOL    H3727343   6.340   5.537   6.463  3.0261  0.6588 -0.2397
  334MOL    C3827344   6.494   5.697   6.531 -0.2163 -0.5989 -0.4806
  334MOL    O3927345   6.490   5.641   6.656  0.2494  0.0317 -0.6320
  334MOL    H4027346   6.558   5.785   6.536 -0.9306 -0.2034  2.0294
  334MOL    H4127347   6.550   5.630   6.466  0.7094 -0.1208 -0.1946
  334MOL    C4227348   6.505   5.727   6.764  0.1669  0.1535  0.0988
  334MOL    O4327349   6.635   5.786   6.763  0.3528 -0.1945  0.2824
  334MOL    H4427350   6.489   5.664   6.852  0.3037  0.7490  0.5553
  334MOL    H4527351   6.421   5.795   6.749 -0.1965  0.0861  1.6851
  334MOL    C4627352   6.673   5.830   6.884 -0.0061  0.3485  0.2429
  334MOL    O4727353   6.586   5.928   6.938 -0.4399  0.3676 -0.3025
  334MOL    H4827354   6.776   5.866   6.879  0.5526 -1.2463 -0.0281
  334MOL    H4927355   6.670   5.740   6.945 -0.6372  0.0943 -0.1610
  334MOL    C5027356   6.610   6.059   6.902 -0.3002 -0.0909  0.0629
  334MOL    O5127357   6.711   6.128   6.970  0.4337 -0.1281  0.0452
  334MOL    H5227358   6.514   6.108   6.920 -0.2237 -0.2219  0.8301
  334MOL    H5327359   6.613   6.076   6.794 -0.8274  0.9644  0.2110
  334MOL    C5427360   6.687   6.128   7.111  0.2180 -0.5783  0.1365
  334MOL    O5527361   6.805   6.133   7.183 -0.1739  0.5205  0.0861
  334MOL    H5627362   6.622   6.048   7.147 -2.5104  2.1568  1.6098
  334MOL    H5727363   6.624   6.216   7.126  1.7524  0.4145  0.8105
  334MOL    C5827364   6.856   6.003   7.189 -0.0063 -0.7322 -0.4112
  334MOL    O5927365   6.805   5.945   7.306  0.7174 -0.2707  0.1382
  334MOL    H6027366   6.963   6.012   7.209  0.0074  1.6729 -1.4018
  334MOL    H6127367   6.832   5.941   7.103  0.2785 -1.6235  0.1434
  334MOL    C6227368   6.874   5.832   7.347 -0.1018  0.3747 -0.6606
  334MOL    O6327369   6.980   5.855   7.433  0.4020  0.1806  0.4724
  334MOL    H6427370   6.904   5.769   7.264 -1.5332  0.7167 -1.4616
  334MOL    H6527371   6.804   5.774   7.407 -0.1063  1.0893  0.0504
  334MOL    C6627372   6.946   5.891   7.564  0.1092 -0.3435 -0.2151
  334MOL    O6727373   6.862   5.807   7.638  0.0767  0.0984 -0.3772
  334MOL    H6827374   6.892   5.986   7.570  0.8329  0.1998 -1.9657
  334MOL    H6927375   7.046   5.900   7.605 -0.4767  1.4922  0.8824
  334MOL    C7027376   6.902   5.680   7.653  0.0921 -0.0989 -0.0413
  334MOL    O7127377   6.840   5.616   7.754  0.1671 -0.0104  0.4158
  334MOL    H7227378   7.007   5.684   7.681 -0.2508  0.1870  1.2396
  334MOL    H7327379   6.894   5.621   7.562  1.9353 -0.8224  0.2384
  334MOL    C7427380   6.707   5.582   7.723  1.7382 -0.0224 -0.9979
  334MOL    O7527381   6.696   5.490   7.625  0.0266  0.6076 -0.2189
  334MOL    H7627382   6.645   5.664   7.684  3.1833  2.1737  1.1723
  334MOL    H7727383   6.666   5.547   0.033  1.5689  2.1564 -0.2201
  334MOL    C7827384   6.718   5.367   7.672  0.3894  0.1759 -0.0443
  334MOL    O7927385   6.735   5.271   7.570 -0.0899 -0.5751  0.4634
  334MOL    H8027386   6.636   5.329   7.732  1.0107 -0.0749  0.6633
  334MOL    H8127387   6.810   5.358   7.729  0.4320  1.1992  0.0458
  334MOL    H8227388   6.674   5.199   7.582  0.8909 -1.3317  0.9963
  335MOL     C127389   1.904   1.549   2.856  0.2336 -0.7596  0.3924
  335MOL     O227390   1.876   1.414   2.887 -0.3469  0.1851 -0.2082
  335MOL     H327391   1.885   1.559   2.749  1.9452  2.4642  0.3426
  335MOL     H427392   1.843   1.618   2.914 -0.0079 -0.6367 -0.0042
  335MOL     H527393   2.007   1.564   2.887 -0.3420  0.9805  1.5384
  335MOL     C627394   1.745   1.385   2.901  0.5110  0.0704 -0.0016
  335MOL     O727395   1.683   1.369   2.770  0.0975  0.1946 -0.0846
  335MOL     H827396   1.673   1.450   2.950  0.9290  1.7301 -1.5308
  335MOL     H927397   1.746   1.280   2.929 -1.6370  0.5142  1.8603
  335MOL    C1027398   1.548   1.344   2.766 -0.6297 -0.5202 -0.1227
  335MOL    O1127399   1.515   1.222   2.816  0.2765 -0.3826 -0.5299
  335MOL    H1227400   1.514   1.358   2.664  0.0574  2.0798 -0.0338
  335MOL    H1327401   1.486   1.419   2.814 -0.7036 -1.4708  1.3029
  335MOL    C1427402   1.578   1.117   2.755  0.1455  0.1076 -1.0389
  335MOL    O1527403   1.652   1.026   2.840  0.2288 -0.6124 -0.5920
  335MOL    H1627404   1.655   1.148   2.684  2.0047  1.1617  1.3679
  335MOL    H1727405   1.506   1.067   2.690  0.6938  0.4163 -1.8953
  335MOL    C1827406   1.566   0.956   2.919  0.1244 -0.0721  0.5594
  335MOL    O1927407   1.467   0.883   2.852  0.1809  0.2405 -0.3685
  335MOL    H2027408   1.511   1.026   2.981  0.7573 -2.1887  3.6077
  335MOL    H2127409   1.623   0.892   2.986  0.7035 -1.7002 -1.4355
  335MOL    C2227410   1.526   0.786   2.764  0.1319 -0.1975  0.0989
  335MOL    O2327411   1.426   0.717   2.696 -0.7759  0.1282 -0.2932
  335MOL    H2427412   1.591   0.727   2.829  3.0333  1.6888 -1.0079
  335MOL    H2527413   1.584   0.823   2.680 -2.2531 -0.7075 -1.8138
  335MOL    C2627414   1.374   0.612   2.776 -0.2567 -0.2221 -0.3253
  335MOL    O2727415   1.460   0.501   2.756  0.2532 -0.3088 -0.7463
  335MOL    H2827416   1.276   0.594   2.732  0.6981  0.0431 -2.6418
  335MOL    H2927417   1.361   0.640   2.881 -1.0395 -0.2819 -0.4058
  335MOL    C3027418   1.413   0.392   2.834  0.4442 -0.4888 -0.1382
  335MOL    O3127419   1.299   0.337   2.778 -0.0773 -0.0331  0.2457
  335MOL    H3227420   1.389   0.403   2.940 -2.2521 -2.5001 -0.4615
  335MOL    H3327421   1.485   0.310   2.832 -0.5013 -1.3218 -0.9591
  335MOL    C3427422   1.324   0.240   2.686 -0.2405 -0.1453 -0.3241
  335MOL    O3527423   1.376   0.118   2.739 -0.0928 -0.4690 -0.3131
  335MOL    H3627424   1.389   0.276   2.606  0.7875 -0.4192  0.3806
  335MOL    H3727425   1.230   0.222   2.634 -0.6888 -3.0147  1.3812
  335MOL    C3827426   1.274   0.033   2.782 -0.0606 -0.3875  1.2921
  335MOL    O3927427   1.197   7.763   2.673 -0.0530 -0.2548 -0.3525
  335MOL    H4027428   1.212   0.104   2.837 -0.1083  0.8003 -0.2551
  335MOL    H4127429   1.294   7.740   2.856  0.1547  0.0486  1.6860
  335MOL    C4227430   1.279   7.679   2.598 -0.3770 -0.1454 -0.4919
  335MOL    O4327431   1.319   7.565   2.660 -0.2164  0.9588  0.1208
  335MOL    H4427432   1.362   7.738   2.561 -0.3491  1.3239  1.7956
  335MOL    H4527433   1.211   7.651   2.517  1.7341  1.6745 -2.9590
  335MOL    C4627434   1.218   7.470   2.679  0.2026 -0.5693 -0.2523
  335MOL    O4727435   1.174   7.429   2.552  0.3385 -0.4578  0.8002
  335MOL    H4827436   1.146   7.522   2.742 -0.0654 -1.9671  0.6217
  335MOL    H4927437   1.244   7.378   2.731  3.5055 -0.5830 -1.7744
  335MOL    C5027438   1.251   7.319   2.501 -0.3592 -0.3178  0.0583
  335MOL    O5127439   1.216   7.201   2.560 -0.2249 -0.4241 -0.1921
  335MOL    H5227440   1.359   7.331   2.512 -0.4878  0.1053  0.8325
  335MOL    H5327441   1.234   7.305   2.394 -1.3264  1.2461  0.0036
  335MOL    C5427442   1.090   7.158   2.552  0.3841 -0.0162  0.3538
  335MOL    O5527443   1.069   7.103   2.425 -0.0269 -0.2469 -0.6714
  335MOL    H5627444   1.021   7.241   2.568  1.3979  1.4975 -2.6250
  335MOL    H5727445   1.069   7.087   2.632 -2.7112  1.5414  0.9708
  335MOL    C5827446   1.124   6.973   2.416  0.1401 -0.0692 -0.6478
  335MOL    O5927447   1.070   6.883   2.512  0.1340 -0.3184 -0.1543
  335MOL    H6027448   1.233   6.978   2.422  0.2482 -0.8510 -1.7022
  335MOL    H6127449   1.104   6.940   2.314  3.3505  0.0267 -1.3806
  335MOL    C6227450   1.129   6.756   2.497 -0.1454  0.9104  0.3001
  335MOL    O6327451   1.256   6.754   2.527 -0.0473 -0.7104  0.3324
  335MOL    H6427452   1.112   6.714   2.398  0.4107  3.5948 -0.9713
  335MOL    H6527453   1.078   6.690   2.567 -1.9465  0.7232 -1.1372
  335MOL    C6627454   1.276   6.777   2.662  0.2252  0.1836  0.3819
  335MOL    O6727455   1.251   6.665   2.740 -0.3873  0.1797  0.5342
  335MOL    H6827456   1.211   6.855   2.702 -2.7995 -1.5102 -1.1216
  335MOL    H6927457   1.384   6.792   2.658  0.2012  1.0783  2.4596
  335MOL    C7027458   1.361   6.579   2.759 -0.2823  0.5526  0.1584
  335MOL    O7127459   1.414   6.530   2.645  0.5287  0.6650 -0.9138
  335MOL    H7227460   1.330   6.486   2.806 -1.3269  1.2607  0.8988
  335MOL    H7327461   1.447   6.620   2.811  1.1257 -0.9395 -0.9117
  335MOL    C7427462   1.333   6.444   2.569 -0.7400  0.5997  0.3811
  335MOL    O7527463   1.312   6.320   2.634  0.0774  0.3353 -0.5582
  335MOL    H7627464   1.412   6.411   2.501  0.4740 -0.2775  2.1706
  335MOL    H7727465   1.247   6.490   2.521  0.1973  2.6945  0.6691
  335MOL    C7827466   1.230   6.246   2.550 -0.7821 -0.0007 -0.0117
  335MOL    O7927467   1.193   6.127   2.605  0.0243 -0.5934  0.2255
  335MOL    H8027468   1.280   6.212   2.460 -1.2055  1.3303 -0.7687
  335MOL    H8127469   1.142   6.305   2.522  0.2145  0.4818 -2.1871
  335MOL    H8227470   1.272   6.077   2.619 -0.1464 -0.8240  0.3787
  336MOL     C127471   3.859   6.241   5.751 -0.2073  0.1337  0.1941
  336MOL     O227472   3.863   6.147   5.640  0.2564 -0.1701 -0.1412
  336MOL     H327473   3.761   6.242   5.800  0.9875 -0.5303  2.7236
  336MOL     H427474   3.925   6.229   5.838 -0.0425  0.0747  0.0617
  336MOL     H527475   3.896   6.334   5.710  1.9751 -0.7496  0.1178
  336MOL     C627476   3.791   6.029   5.657  0.4794 -0.0916 -0.6441
  336MOL     O727477   3.825   5.970   5.778  0.3639  0.2102 -0.7590
  336MOL     H827478   3.807   5.974   5.564  1.4894  1.1540 -1.2103
  336MOL     H927479   3.684   6.050   5.666  0.1490 -1.7245 -0.4679
  336MOL    C1027480   3.950   5.905   5.781  0.3214 -0.7244 -0.2428
  336MOL    O1127481   3.969   5.843   5.905  0.1843 -0.2528 -0.3151
  336MOL    H1227482   4.026   5.982   5.772 -0.3292  0.0301  0.6335
  336MOL    H1327483   3.959   5.821   5.713  2.2827 -0.2527 -0.6080
  336MOL    C1427484   3.991   5.936   6.006  0.5798 -0.7071 -0.3724
  336MOL    O1527485   4.115   6.000   5.982  0.1881  0.8061  0.0928
  336MOL    H1627486   3.983   5.896   6.107 -0.4352 -1.0835 -0.6001
  336MOL    H1727487   3.917   6.016   6.008  1.6658  0.2890  0.4760
  336MOL    C1827488   4.219   5.913   6.006 -0.4216  0.1222 -0.0319
  336MOL    O1927489   4.324   5.966   6.080  0.3427 -0.4080  0.2078
  336MOL    H2027490   4.249   5.880   5.907 -0.8912 -0.4295  0.0050
  336MOL    H2127491   4.184   5.815   6.039  4.5813 -1.7051  0.3390
  336MOL    C2227492   4.283   5.966   6.210 -0.0190  0.2628  0.5345
  336MOL    O2327493   4.352   6.054   6.285 -0.5081 -0.0404  0.3718
  336MOL    H2427494   4.299   5.864   6.245  0.5418  0.1387 -0.0769
  336MOL    H2527495   4.179   5.999   6.217 -0.5347 -0.6127 -2.2323
  336MOL    C2627496   4.316   6.186   6.253 -0.3701 -0.1304  0.3137
  336MOL    O2727497   4.237   6.240   6.354  0.2272 -0.3651  0.0550
  336MOL    H2827498   4.261   6.193   6.160  3.4610  0.4957 -2.0087
  336MOL    H2927499   4.408   6.244   6.243  0.8548 -1.5940  2.5206
  336MOL    C3027500   4.286   6.241   6.481  0.9006  0.7231  0.0281
  336MOL    O3127501   4.403   6.313   6.481  0.4842 -0.1414  0.6657
  336MOL    H3227502   4.298   6.140   6.519 -0.8130  0.6578  0.4363
  336MOL    H3327503   4.204   6.285   6.538 -0.9089 -1.9326 -0.4216
  336MOL    C3427504   4.381   6.448   6.506  0.0786 -0.0395 -0.2598
  336MOL    O3527505   4.363   6.482   6.641 -0.3915 -0.1923  0.4938
  336MOL    H3627506   4.294   6.479   6.448 -0.6667  0.4370  1.0994
  336MOL    H3727507   4.461   6.506   6.461  0.8142 -0.4091  0.5453
  336MOL    C3827508   4.479   6.458   6.722  0.3815  0.2471 -0.1416
  336MOL    O3927509   4.500   6.328   6.766  0.3496  0.2446  0.1303
  336MOL    H4027510   4.467   6.514   6.814 -2.4832 -0.2777 -0.1224
  336MOL    H4127511   4.568   6.496   6.672 -0.6895  1.0040 -1.5234
  336MOL    C4227512   4.393   6.281   6.845 -0.3842  0.1071  0.2793
  336MOL    O4327513   4.382   6.355   6.960 -0.2323  0.4583  0.3878
  336MOL    H4427514   4.430   6.182   6.873  1.9367  0.7746 -0.2551
  336MOL    H4527515   4.305   6.274   6.782  2.4779  0.4166 -3.9583
  336MOL    C4627516   4.258   6.345   7.022 -0.8890 -0.1703 -0.4881
  336MOL    O4727517   4.150   6.353   6.939  0.3218  0.1107  0.8861
  336MOL    H4827518   4.238   6.421   7.097 -2.9695 -1.1605 -0.0163
  336MOL    H4927519   4.270   6.241   7.052  2.4440 -0.3302 -2.1573
  336MOL    C5027520   4.134   6.480   6.882  0.3219 -0.2492 -0.1213
  336MOL    O5127521   4.084   6.577   6.970  0.0634  0.2854 -0.2288
  336MOL    H5227522   4.058   6.452   6.810  0.8862 -0.2957 -0.7056
  336MOL    H5327523   4.216   6.524   6.826 -1.4428  2.3559 -0.7534
  336MOL    C5427524   3.966   6.536   7.037  0.5640 -0.1534  0.1400
  336MOL    O5527525   3.922   6.628   7.137  0.5055  0.4212 -0.0488
  336MOL    H5627526   4.000   6.454   7.100  1.1748  0.6902  0.9348
  336MOL    H5727527   3.888   6.494   6.974  3.1085 -1.5559 -2.1548
  336MOL    C5827528   3.899   6.750   7.084  0.0906 -0.6515 -0.1174
  336MOL    O5927529   3.811   6.741   6.973  0.0615 -0.2800 -0.0497
  336MOL    H6027530   3.989   6.796   7.043  0.4967 -0.8724  0.5169
  336MOL    H6127531   3.855   6.810   7.164 -2.2954 -1.6635 -0.6345
  336MOL    C6227532   3.753   6.863   6.941 -0.6904  0.1331 -0.2456
  336MOL    O6327533   3.652   6.889   7.031 -0.0493  0.0103 -0.7716
  336MOL    H6427534   3.714   6.875   6.840  0.5877  0.1567 -0.7364
  336MOL    H6527535   3.817   6.951   6.941  1.9440 -1.7023  1.2275
  336MOL    C6627536   3.540   6.812   7.012  0.2977 -0.1482 -0.1342
  336MOL    O6727537   3.432   6.858   7.091  0.1189 -0.8964  0.9266
  336MOL    H6827538   3.551   6.704   7.004  2.2733  0.1129 -1.2504
  336MOL    H6927539   3.509   6.824   6.909  1.3375  0.5556 -0.3798
  336MOL    C7027540   3.368   6.987   7.046  0.3810  0.4093  0.0917
  336MOL    O7127541   3.289   6.970   6.934  0.2178  0.8815  0.2455
  336MOL    H7227542   3.447   7.059   7.027  1.9479 -0.1231  4.1393
  336MOL    H7327543   3.301   7.028   7.122 -0.0921 -0.8347  0.3623
  336MOL    C7427544   3.179   6.883   6.959 -0.2013 -0.1358  0.2970
  336MOL    O7527545   3.103   6.876   6.851  0.5301  0.2406 -0.1709
  336MOL    H7627546   3.119   6.910   7.046  0.7557  2.5812  0.1598
  336MOL    H7727547   3.224   6.784   6.971  0.1868 -0.0573 -0.5225
  336MOL    C7827548   3.038   6.995   6.814 -0.4101  0.6899 -0.2918
  336MOL    O7927549   2.969   6.980   6.696  0.4264 -0.0161  0.8588
  336MOL    H8027550   3.110   7.076   6.804  3.0972 -1.8847  2.6470
  336MOL    H8127551   2.964   7.028   6.887 -1.2996  0.0839 -0.9182
  336MOL    H8227552   2.891   6.932   6.717  0.7687 -0.6312  0.7469
  337MOL     C127553   6.231   6.512   4.395  0.5167 -0.4523  0.1765
  337MOL     O227554   6.258   6.394   4.327 -0.3835 -0.2412  0.4602
  337MOL     H327555   6.198   6.501   4.499  1.4070  0.2505  0.5489
  337MOL     H427556   6.326   6.566   4.390  0.3036 -0.1608 -0.6971
  337MOL     H527557   6.153   6.566   4.342  0.3331  0.8257  1.6992
  337MOL     C627558   6.356   6.305   4.381 -0.4577  0.1785  0.1074
  337MOL     O727559   6.318   6.252   4.504  0.4455  0.3241 -0.0439
  337MOL     H827560   6.455   6.345   4.402  0.5045 -2.0002 -0.1832
  337MOL     H927561   6.373   6.223   4.312  1.8710  2.1567 -1.7493
  337MOL    C1027562   6.191   6.194   4.502  0.0971 -0.1696 -0.2952
  337MOL    O1127563   6.182   6.097   4.400 -0.2704  0.0612 -1.3354
  337MOL    H1227564   6.119   6.275   4.488  0.4753 -0.0393 -1.5778
  337MOL    H1327565   6.163   6.154   4.599  1.2731 -1.7312 -0.5703
  337MOL    C1427566   6.056   6.053   4.378 -0.0898 -0.1260  0.3777
  337MOL    O1527567   5.973   6.148   4.320 -0.1240 -0.3402 -0.6298
  337MOL    H1627568   6.000   6.025   4.467  0.1125  1.0334  0.8863
  337MOL    H1727569   6.058   5.965   4.314 -1.2076 -0.5853  0.9632
  337MOL    C1827570   6.003   6.168   4.182 -0.7336  0.2267  0.3159
  337MOL    O1927571   5.924   6.090   4.101  0.2574 -0.4496 -0.1289
  337MOL    H2027572   6.109   6.161   4.157 -0.9317 -2.4766  0.0493
  337MOL    H2127573   5.962   6.265   4.154 -1.4029 -0.5410 -1.4701
  337MOL    C2227574   5.790   6.140   4.104  0.7813  0.2365  0.7512
  337MOL    O2327575   5.768   6.223   3.997  0.5386  0.4993 -0.4526
  337MOL    H2427576   5.747   6.179   4.195 -0.8741  0.9018 -0.3055
  337MOL    H2527577   5.733   6.049   4.084  1.1488  0.3274 -0.8207
  337MOL    C2627578   5.793   6.162   3.874  0.0333 -0.7528  0.1268
  337MOL    O2727579   5.760   6.236   3.763  0.4632  0.0782  0.0474
  337MOL    H2827580   5.729   6.074   3.875  0.5438 -1.1297  1.8185
  337MOL    H2927581   5.897   6.134   3.865  0.3350 -0.3871  2.1621
  337MOL    C3027582   5.859   6.324   3.723 -0.5550  0.4460  0.0432
  337MOL    O3127583   5.983   6.265   3.697  0.0613 -0.1556 -1.2126
  337MOL    H3227584   5.872   6.415   3.782 -1.1039  0.3642  0.2900
  337MOL    H3327585   5.811   6.344   3.628 -0.3975 -2.1840 -0.6192
  337MOL    C3427586   6.070   6.355   3.637 -0.2279 -0.1964 -0.8687
  337MOL    O3527587   6.099   6.478   3.705  0.2482 -0.2830  0.4781
  337MOL    H3627588   6.029   6.374   3.538  1.0340 -0.3080 -1.4142
  337MOL    H3727589   6.164   6.307   3.612  0.4322 -0.0329  1.2191
  337MOL    C3827590   6.182   6.459   3.819  0.4835  0.0616 -0.1797
  337MOL    O3927591   6.161   6.550   3.918  0.6622  0.0104 -0.0848
  337MOL    H4027592   6.286   6.465   3.785  0.8838  0.6479  1.1136
  337MOL    H4127593   6.170   6.357   3.857 -1.6901  0.2683 -0.2579
  337MOL    C4227594   6.024   6.569   3.954 -0.0220  0.0582 -0.2447
  337MOL    O4327595   5.954   6.632   3.861  0.5380  0.2647  0.2048
  337MOL    H4427596   6.013   6.619   4.051  1.0416  0.7441 -0.4773
  337MOL    H4527597   5.975   6.472   3.962 -2.3685  1.2516  0.3979
  337MOL    C4627598   6.001   6.756   3.839 -0.1873  0.4916  0.2373
  337MOL    O4727599   5.969   6.847   3.946 -0.1546 -0.6452 -0.6090
  337MOL    H4827600   5.961   6.797   3.746 -0.9713  0.3768  0.5198
  337MOL    H4927601   6.107   6.778   3.845  0.1140 -0.5643 -1.0047
  337MOL    C5027602   5.836   6.886   3.944  0.0266 -1.0225 -0.2675
  337MOL    O5127603   5.818   6.962   3.830 -0.1352 -0.1793  0.2499
  337MOL    H5227604   5.800   6.936   4.034  1.7077 -3.1740  1.6717
  337MOL    H5327605   5.764   6.804   3.943 -1.9454  0.6934  0.3228
  337MOL    C5427606   5.847   7.098   3.843  0.1827 -0.0243  0.2705
  337MOL    O5527607   5.843   7.155   3.723 -0.0959  0.0679  0.2182
  337MOL    H5627608   5.931   7.129   3.905  0.3719  1.0054 -0.4847
  337MOL    H5727609   5.760   7.139   3.894  1.1692  3.7048 -0.8866
  337MOL    C5827610   5.974   7.153   3.660  0.0327  0.2866 -0.6093
  337MOL    O5927611   6.068   7.215   3.739 -0.1098 -0.4650 -0.2211
  337MOL    H6027612   5.966   7.190   3.557 -1.5772 -1.7539 -1.2427
  337MOL    H6127613   5.999   7.048   3.651 -2.0610 -0.2202 -0.8384
  337MOL    C6227614   6.033   7.352   3.753  0.5156 -0.7631 -0.1170
  337MOL    O6327615   6.094   7.431   3.656 -0.9097 -0.1078  0.1771
  337MOL    H6427616   6.056   7.377   3.857 -1.3568 -2.3069  0.6902
  337MOL    H6527617   5.925   7.364   3.750  0.3658 -1.9629  0.3544
  337MOL    C6627618   6.064   7.570   3.661 -0.2385  0.3495  0.6284
  337MOL    O6727619   6.132   7.634   3.764 -0.5387 -0.0826 -0.6471
  337MOL    H6827620   5.956   7.580   3.673 -0.2325  0.1419  0.8551
  337MOL    H6927621   6.082   7.612   3.562  0.1608 -0.1539  0.4844
  337MOL    C7027622   6.268   7.641   3.737 -0.1099 -0.2322  0.0703
  337MOL    O7127623   6.294   7.733   3.643  0.2946 -0.1813  0.4222
  337MOL    H7227624   6.321   7.547   3.721  0.5230  0.2017 -0.4437
  337MOL    H7327625   6.299   7.686   3.832 -2.1564 -1.1313  1.1758
  337MOL    C7427626   6.429   7.714   3.601  0.1654 -0.8062 -0.0456
  337MOL    O7527627   6.435   7.599   3.526  0.7008  0.1852 -0.5355
  337MOL    H7627628   6.501   7.716   3.683 -0.0204 -0.2211  0.1039
  337MOL    H7727629   6.462   0.018   3.546 -0.7333 -0.3919  0.0825
  337MOL    C7827630   6.361   7.606   3.405  0.1760 -0.1948  0.2806
  337MOL    O7927631   6.407   7.507   3.314  0.2338  0.6605  0.5318
  337MOL    H8027632   6.348   7.698   3.348  0.8489 -0.9956 -1.1832
  337MOL    H8127633   6.261   7.582   3.441  0.3061  0.2478  0.9509
  337MOL    H8227634   6.397   7.425   3.361 -0.8369  0.3211 -0.2620
  338MOL     C127635   3.338   5.423   1.894  0.3056  0.1500 -1.0723
  338MOL     O227636   3.275   5.294   1.921  0.6990  0.5640  0.6617
  338MOL     H327637   3.393   5.454   1.983 -1.1793 -0.4495  0.0626
  338MOL     H427638   3.402   5.429   1.806  1.7067  0.0780 -0.0740
  338MOL     H527639   3.262   5.501   1.880  0.2708  0.0367 -1.5349
  338MOL     C627640   3.330   5.201   1.832  0.2956  0.6388  1.1042
  338MOL     O727641   3.292   5.225   1.697 -0.4184 -0.1299 -0.5615
  338MOL     H827642   3.287   5.106   1.861 -1.3589  1.0209 -0.0579
  338MOL     H927643   3.435   5.207   1.863  0.6463  0.3548  0.0001
  338MOL    C1027644   3.161   5.193   1.673  1.1350  0.1924  0.6925
  338MOL    O1127645   3.159   5.075   1.598  0.3895  0.0798 -0.5110
  338MOL    H1227646   3.124   5.274   1.611  1.0608 -0.5561 -0.2547
  338MOL    H1327647   3.089   5.184   1.754  1.9176  0.1978  1.3926
  338MOL    C1427648   3.211   5.090   1.464 -0.4659 -0.0587  0.2751
  338MOL    O1527649   3.116   5.152   1.376  0.0964  0.1625 -0.3768
  338MOL    H1627650   3.228   4.991   1.421 -0.1356  0.3628 -0.5695
  338MOL    H1727651   3.312   5.129   1.459  0.0307 -1.6210 -2.7770
  338MOL    C1827652   3.170   5.162   1.249 -0.9976 -0.1448 -0.4129
  338MOL    O1927653   3.267   5.263   1.251 -0.0469  0.1421 -0.5752
  338MOL    H2027654   3.092   5.188   1.177  0.5692 -1.5819 -2.6732
  338MOL    H2127655   3.214   5.073   1.204 -0.4188 -0.9975  1.7812
  338MOL    C2227656   3.217   5.392   1.282 -0.3017  0.4571 -0.1995
  338MOL    O2327657   3.323   5.473   1.336 -0.5512  0.8232 -0.1726
  338MOL    H2427658   3.152   5.384   1.369 -0.3918  2.1511 -0.1068
  338MOL    H2527659   3.160   5.422   1.193 -0.6637 -1.3532 -0.6030
  338MOL    C2627660   3.369   5.428   1.457  0.3114  0.3175  0.4127
  338MOL    O2727661   3.481   5.504   1.501  0.0459 -0.1126 -0.2134
  338MOL    H2827662   3.403   5.325   1.453 -2.9543 -0.7871 -0.6056
  338MOL    H2927663   3.287   5.436   1.529  0.6008 -2.1640  1.0482
  338MOL    C3027664   3.591   5.471   1.420 -0.2522  0.2088 -0.9430
  338MOL    O3127665   3.643   5.341   1.450 -0.2784  0.3672 -0.3061
  338MOL    H3227666   3.663   5.552   1.409 -1.9765  1.7938 -0.8130
  338MOL    H3327667   3.560   5.456   1.316 -1.7077 -0.6468 -0.4020
  338MOL    C3427668   3.767   5.343   1.522  0.4048  0.1082 -0.1967
  338MOL    O3527669   3.859   5.419   1.456 -0.6748 -0.8415  0.2938
  338MOL    H3627670   3.804   5.241   1.528 -0.6186 -0.4685 -2.9270
  338MOL    H3727671   3.743   5.378   1.622  0.0493 -3.0625  0.8909
  338MOL    C3827672   3.916   5.372   1.341  1.0881 -0.4827  0.8148
  338MOL    O3927673   4.009   5.274   1.377  0.0515 -0.5854 -0.2984
  338MOL    H4027674   3.964   5.460   1.298  1.4852 -1.9635 -1.8979
  338MOL    H4127675   3.839   5.333   1.274  0.8687 -0.6882  1.1823
  338MOL    C4227676   4.083   5.214   1.276 -0.1994  0.1313 -0.4481
  338MOL    O4327677   4.150   5.294   1.193  0.1773  0.0355 -0.1672
  338MOL    H4427678   4.009   5.165   1.213 -0.2418 -0.0152 -0.2843
  338MOL    H4527679   4.150   5.135   1.309  1.8170  0.9963 -2.2808
  338MOL    C4627680   4.256   5.348   1.258  0.0660 -0.2863 -0.5427
  338MOL    O4727681   4.367   5.338   1.172 -0.0682 -0.3639  0.4476
  338MOL    H4827682   4.286   5.299   1.351 -0.2620  1.8673  0.7306
  338MOL    H4927683   4.229   5.451   1.284  0.0657 -0.5333  0.4718
  338MOL    C5027684   4.374   5.450   1.091  0.5412 -0.0520  0.1302
  338MOL    O5127685   4.419   5.561   1.147  1.1595 -0.1938  0.3759
  338MOL    H5227686   4.275   5.461   1.049  0.3569  0.9586  0.8167
  338MOL    H5327687   4.436   5.425   1.005  1.7248  2.0180  0.3394
  338MOL    C5427688   4.553   5.563   1.184 -0.0347  0.6930  0.1288
  338MOL    O5527689   4.592   5.690   1.224 -0.3497  0.5316  0.4355
  338MOL    H5627690   4.609   5.544   1.093  0.4992  0.4086  0.5147
  338MOL    H5727691   4.566   5.490   1.264 -0.9932  1.0790  0.6497
  338MOL    C5827692   4.611   5.777   1.113 -0.1029 -0.9012 -0.3184
  338MOL    O5927693   4.718   5.748   1.031 -0.2439  0.2869  0.1262
  338MOL    H6027694   4.621   5.878   1.151 -0.4171 -1.3504  0.9954
  338MOL    H6127695   4.523   5.772   1.049 -0.0191 -1.5938 -0.3890
  338MOL    C6227696   4.844   5.740   1.092 -1.2929 -0.6502  0.2044
  338MOL    O6327697   4.894   5.864   1.138  0.2532 -0.1833  0.1780
  338MOL    H6427698   4.905   5.713   1.005  0.3638  0.1035  1.1107
  338MOL    H6527699   4.844   5.668   1.173  1.5704 -1.5037 -0.4618
  338MOL    C6627700   4.912   5.872   1.278  0.5799  0.0796 -0.1996
  338MOL    O6727701   5.013   5.794   1.335  0.1420 -0.0655  0.3052
  338MOL    H6827702   4.821   5.836   1.326  0.9196  0.6868  0.9119
  338MOL    H6927703   4.926   5.975   1.311  2.3318 -0.1247 -0.2960
  338MOL    C7027704   5.138   5.846   1.340 -0.2989 -0.0304 -0.7499
  338MOL    O7127705   5.203   5.843   1.211  0.2576  0.6514  0.0278
  338MOL    H7227706   5.195   5.783   1.408 -0.1597  0.1544 -0.6955
  338MOL    H7327707   5.136   5.944   1.386 -4.0177  0.4201 -1.6889
  338MOL    C7427708   5.195   5.966   1.148  0.1663 -0.3460 -0.3031
  338MOL    O7527709   5.301   5.982   1.053 -0.4488  0.3282  0.2044
  338MOL    H7627710   5.200   6.056   1.210  2.0011 -0.1605 -0.6971
  338MOL    H7727711   5.104   5.980   1.090  0.6715 -1.8043 -1.4849
  338MOL    C7827712   5.294   5.882   0.953  0.1834  0.2434  0.1033
  338MOL    O7927713   5.396   5.911   0.864  0.0864  0.8423  0.6292
  338MOL    H8027714   5.198   5.886   0.903 -0.3795 -0.8570  1.0592
  338MOL    H8127715   5.314   5.778   0.980 -0.4279  0.5041  1.6297
  338MOL    H8227716   5.362   5.944   0.783  0.2231  2.1016  1.0696
  339MOL     C127717   0.391   2.695   4.037 -0.3575 -0.4756  0.5675
  339MOL     O227718   0.447   2.680   4.162 -0.6355  0.0805 -0.4463
  339MOL     H327719   0.465   2.695   3.957 -3.2401 -0.9891 -2.1966
  339MOL     H427720   0.343   2.604   4.002 -1.8711  0.1342  1.0027
  339MOL     H527721   0.335   2.787   4.024  1.9458  0.5913 -2.3639
  339MOL     C627722   0.521   2.785   4.213 -1.2933  0.8379 -0.3451
  339MOL     O727723   0.441   2.890   4.223 -0.2582  0.0953 -0.5919
  339MOL     H827724   0.601   2.812   4.145 -1.4183 -3.5423 -2.4269
  339MOL     H927725   0.577   2.754   4.301 -0.4680  1.5048 -0.6395
  339MOL    C1027726   0.359   2.884   4.334  0.8827  0.2792  0.5786
  339MOL    O1127727   0.418   2.894   4.456  0.3216 -0.4613  0.6827
  339MOL    H1227728   0.316   2.784   4.343 -1.3594  0.9303 -2.1518
  339MOL    H1327729   0.276   2.952   4.315  1.1199  0.4639  0.2142
  339MOL    C1427730   0.485   3.016   4.477 -0.1278  0.4135 -0.2295
  339MOL    O1527731   0.539   3.026   4.609  0.1204 -0.4943  0.3471
  339MOL    H1627732   0.409   3.095   4.480  1.2667  1.8039 -0.5776
  339MOL    H1727733   0.549   3.039   4.392  0.1102  2.2413  0.4145
  339MOL    C1827734   0.645   2.940   4.621  0.2804  0.3835  0.9408
  339MOL    O1927735   0.765   2.995   4.574  0.2626  0.2814 -0.2909
  339MOL    H2027736   0.618   2.843   4.581  1.1569  0.7120 -0.4851
  339MOL    H2127737   0.650   2.927   4.729  1.9510  2.2428  1.1322
  339MOL    C2227738   0.823   3.077   4.681  0.2838  0.2183 -0.4087
  339MOL    O2327739   0.909   3.009   4.768 -0.3303 -0.0096 -0.3263
  339MOL    H2427740   0.751   3.126   4.747  0.5043 -1.1254  0.8703
  339MOL    H2527741   0.877   3.156   4.628 -0.2260 -0.0118 -1.2833
  339MOL    C2627742   0.998   2.920   4.713 -0.4737 -0.4897 -0.6028
  339MOL    O2727743   1.078   2.851   4.800 -0.1661  0.6662 -0.2314
  339MOL    H2827744   1.051   2.971   4.633  0.3330  0.0896  0.2900
  339MOL    H2927745   0.940   2.839   4.668 -0.4539  0.1951 -1.8800
  339MOL    C3027746   1.132   2.946   4.891  0.4106  0.3417 -0.4059
  339MOL    O3127747   1.247   2.898   4.956  0.4117 -0.1792  0.1523
  339MOL    H3227748   1.067   2.961   4.977  0.1520 -1.7050 -0.2087
  339MOL    H3327749   1.168   3.039   4.848  0.8158  0.1449 -0.4963
  339MOL    C3427750   1.360   2.878   4.873  0.0829 -0.5828 -0.4922
  339MOL    O3527751   1.423   2.994   4.820 -0.0851  0.4325  0.2529
  339MOL    H3627752   1.341   2.804   4.795  3.7466  0.8274 -2.8060
  339MOL    H3727753   1.429   2.827   4.940 -0.1781  0.4600  0.5703
  339MOL    C3827754   1.488   3.068   4.909  0.2373 -0.4442  0.6310
  339MOL    O3927755   1.596   3.010   4.959 -0.3134 -0.1325 -0.3221
  339MOL    H4027756   1.420   3.091   4.992 -1.1766 -0.0000 -0.6349
  339MOL    H4127757   1.510   3.167   4.869  0.6394 -0.3651  1.0397
  339MOL    C4227758   1.707   3.015   4.872  0.1221  0.1574  0.6425
  339MOL    O4327759   1.741   3.140   4.837  0.8692 -0.3110  0.9760
  339MOL    H4427760   1.683   2.968   4.777  0.4365  1.8116 -0.2857
  339MOL    H4527761   1.790   2.953   4.904  0.9079  0.0058 -1.6054
  339MOL    C4627762   1.827   3.195   4.927  0.4322  0.3108 -0.1204
  339MOL    O4727763   1.962   3.180   4.884 -0.0500  0.5109 -0.2447
  339MOL    H4827764   1.820   3.142   5.022 -0.9036 -0.9955 -0.9162
  339MOL    H4927765   1.795   3.300   4.931 -1.9961 -0.3092 -1.9754
  339MOL    C5027766   2.001   3.251   4.769 -0.2964 -0.5787 -0.9281
  339MOL    O5127767   2.125   3.200   4.736 -0.3002  0.3537  0.0862
  339MOL    H5227768   1.997   3.359   4.782  3.7076 -0.4587 -0.1242
  339MOL    H5327769   1.938   3.228   4.682 -1.2888  0.7090 -0.5563
  339MOL    C5427770   2.233   3.271   4.787  0.6387  0.5274 -0.5053
  339MOL    O5527771   2.242   3.402   4.743 -0.2608  0.2511 -0.2239
  339MOL    H5627772   2.326   3.214   4.777  2.2508  1.5608  5.9736
  339MOL    H5727773   2.222   3.271   4.896  1.2696  3.4111 -0.4006
  339MOL    C5827774   2.266   3.404   4.604 -0.9496 -0.3227 -0.6606
  339MOL    O5927775   2.389   3.343   4.565  0.1212 -0.2728 -0.4465
  339MOL    H6027776   2.269   3.505   4.563 -0.6438  0.9507  2.3859
  339MOL    H6127777   2.191   3.353   4.544 -0.3097  0.0023 -1.7533
  339MOL    C6227778   2.500   3.410   4.600  0.0344  0.8346 -0.3014
  339MOL    O6327779   2.615   3.349   4.546 -0.1605 -0.1261 -0.1708
  339MOL    H6427780   2.503   3.409   4.709 -2.2061  0.0826 -0.2023
  339MOL    H6527781   2.498   3.515   4.570 -3.8846 -0.1794 -4.1099
  339MOL    C6627782   2.634   3.367   4.413 -0.3725  0.5864 -0.7791
  339MOL    O6727783   2.702   3.490   4.387 -0.6290 -0.4368  0.2680
  339MOL    H6827784   2.537   3.384   4.365  0.0560  0.4696 -1.6907
  339MOL    H6927785   2.683   3.278   4.373  0.2849 -0.2119  1.6861
  339MOL    C7027786   2.848   3.481   4.404  0.9330 -1.0275 -0.1947
  339MOL    O7127787   2.914   3.604   4.396 -0.0395  0.2139  0.2586
  339MOL    H7227788   2.875   3.410   4.326  0.9785 -3.1803  1.7100
  339MOL    H7327789   2.868   3.421   4.492  0.9789 -1.6877 -0.6501
  339MOL    C7427790   2.944   3.637   4.267 -0.3898  0.1533  0.3735
  339MOL    O7527791   3.046   3.553   4.219  0.5799  0.2939 -0.7089
  339MOL    H7627792   2.977   3.741   4.275 -1.4574  0.4758  0.6615
  339MOL    H7727793   2.855   3.637   4.204 -0.1380  2.4108 -0.0279
  339MOL    C7827794   3.177   3.587   4.247 -0.0674  0.2445 -0.1460
  339MOL    O7927795   3.229   3.673   4.148 -0.6927 -0.5353 -0.2942
  339MOL    H8027796   3.226   3.489   4.239 -1.1938 -0.3825  0.4850
  339MOL    H8127797   3.196   3.630   4.345  0.2155 -0.0014 -0.0914
  339MOL    H8227798   3.323   3.671   4.154 -0.7462 -1.6885  0.4561
  340MOL     C127799   5.196   5.661   3.932  0.4252  0.6611  0.0341
  340MOL     O227800   5.285   5.688   4.038  0.1295 -0.4052  0.2551
  340MOL     H327801   5.123   5.739   3.910  0.8305  1.0638  0.1167
  340MOL     H427802   5.258   5.643   3.844  0.1010  0.9628 -0.2560
  340MOL     H527803   5.145   5.570   3.960  1.2085  0.0292 -0.5688
  340MOL     C627804   5.223   5.717   4.157  0.1102  0.5819 -0.4806
  340MOL     O727805   5.170   5.603   4.223  0.0890  0.3759 -0.4119
  340MOL     H827806   5.140   5.788   4.158  1.9335  2.7669 -0.1562
  340MOL     H927807   5.294   5.762   4.226 -0.9155  0.5193  0.6208
  340MOL    C1027808   5.266   5.541   4.305 -0.6775  0.0685 -0.0106
  340MOL    O1127809   5.213   5.431   4.363 -0.1854  0.9649 -0.5490
  340MOL    H1227810   5.305   5.606   4.383  1.6408 -0.3226 -0.8034
  340MOL    H1327811   5.356   5.522   4.246 -0.2131 -1.3681  1.1174
  340MOL    C1427812   5.116   5.452   4.459  0.6283  0.7128  0.6789
  340MOL    O1527813   5.157   5.471   4.588  0.1717  0.0657 -0.8416
  340MOL    H1627814   5.049   5.366   4.457  1.9867 -0.4070  1.9719
  340MOL    H1727815   5.046   5.531   4.430  1.8852  1.8575  0.6834
  340MOL    C1827816   5.230   5.360   4.640  0.8463  0.0442 -0.5617
  340MOL    O1927817   5.155   5.238   4.625  0.1041 -0.4974 -0.8026
  340MOL    H2027818   5.259   5.373   4.744 -1.0533 -4.2120  0.6005
  340MOL    H2127819   5.323   5.354   4.583  1.1596 -1.4128  0.0901
  340MOL    C2227820   5.208   5.132   4.691 -0.4023  0.2950  0.1652
  340MOL    O2327821   5.198   5.125   4.826  0.6441 -0.6839  0.2003
  340MOL    H2427822   5.314   5.134   4.667 -0.4019 -0.7542  0.0512
  340MOL    H2527823   5.159   5.049   4.639  0.4689  1.0431 -1.9021
  340MOL    C2627824   5.096   5.045   4.865 -0.0399 -0.4995 -1.2267
  340MOL    O2727825   5.124   4.914   4.828  0.7089 -0.0402 -0.2017
  340MOL    H2827826   5.003   5.077   4.817  0.1073 -1.5567 -2.2392
  340MOL    H2927827   5.089   5.059   4.973 -1.7033  3.0866 -1.7368
  340MOL    C3027828   5.019   4.831   4.855  0.7793  0.6724 -0.3296
  340MOL    O3127829   4.906   4.855   4.781  0.2275  0.1517  0.2103
  340MOL    H3227830   4.979   4.824   4.956 -0.0431  0.1962 -0.6859
  340MOL    H3327831   5.057   4.731   4.835  1.2150  0.8163 -0.2312
  340MOL    C3427832   4.837   4.748   4.723  0.1110  0.0138 -0.5082
  340MOL    O3527833   4.912   4.665   4.637 -0.1581  0.8485  0.2597
  340MOL    H3627834   4.739   4.765   4.678 -0.2663 -0.5137  0.1135
  340MOL    H3727835   4.803   4.690   4.808 -0.2565 -1.4385 -1.6296
  340MOL    C3827836   4.938   4.736   4.518 -0.9878  0.8752  0.5317
  340MOL    O3927837   5.029   4.664   4.447  0.3150 -0.0016  0.5627
  340MOL    H4027838   4.998   4.821   4.552  0.9653 -0.8607  1.4664
  340MOL    H4127839   4.846   4.759   4.463 -0.2366  0.4113 -0.9467
  340MOL    C4227840   4.966   4.592   4.342 -0.6950  0.1947  0.8279
  340MOL    O4327841   4.965   4.678   4.226 -0.1029  0.4693 -0.4262
  340MOL    H4427842   4.866   4.568   4.377 -0.2804  0.7483  2.4373
  340MOL    H4527843   5.019   4.498   4.328  0.2340  0.6092  1.5163
  340MOL    C4627844   4.859   4.642   4.148 -0.8410 -0.2326 -0.6611
  340MOL    O4727845   4.746   4.701   4.196  0.5611 -0.7734 -0.0185
  340MOL    H4827846   4.855   4.533   4.154  0.9511 -0.1905  2.1561
  340MOL    H4927847   4.884   4.671   4.045  2.3887 -0.2811  0.0438
  340MOL    C5027848   4.622   4.668   4.146  0.8009 -0.4514  0.7495
  340MOL    O5127849   4.613   4.701   4.010  0.3482  0.1748  0.1629
  340MOL    H5227850   4.545   4.724   4.200 -0.1464 -0.6852 -0.3263
  340MOL    H5327851   4.610   4.563   4.172 -0.3695 -0.4317  0.3243
  340MOL    C5427852   4.593   4.843   3.990 -1.3630 -0.4997  0.2608
  340MOL    O5527853   4.457   4.881   3.990 -0.6299  0.4229 -0.7670
  340MOL    H5627854   4.643   4.884   3.902 -0.2732 -0.0332  1.1021
  340MOL    H5727855   4.641   4.899   4.070 -1.2710 -1.2897  0.7672
  340MOL    C5827856   4.434   5.016   3.952  0.0373  0.3867  0.6015
  340MOL    O5927857   4.467   5.111   4.055 -0.2882 -0.3359  0.1139
  340MOL    H6027858   4.327   5.031   3.932 -0.2395 -0.9293  1.0874
  340MOL    H6127859   4.482   5.037   3.856 -0.1314 -1.0473  0.1920
  340MOL    C6227860   4.375   5.124   4.155 -0.1181  0.0931  0.0513
  340MOL    O6327861   4.281   5.219   4.121  0.4296 -0.3130  0.1157
  340MOL    H6427862   4.419   5.148   4.251  0.0279  1.5493 -0.3813
  340MOL    H6527863   4.323   5.029   4.172  1.3638 -0.5965  0.7865
  340MOL    C6627864   4.343   5.338   4.089 -0.1883  0.6933 -0.2842
  340MOL    O6727865   4.261   5.438   4.134 -0.1277 -0.0977 -0.2425
  340MOL    H6827866   4.362   5.356   3.983 -2.1815 -2.8678 -1.3045
  340MOL    H6927867   4.435   5.351   4.146 -2.5490  2.4343  3.3602
  340MOL    C7027868   4.146   5.453   4.059 -0.3172 -0.2438 -0.3131
  340MOL    O7127869   4.069   5.542   4.121  0.4773  0.1792 -0.1447
  340MOL    H7227870   4.093   5.358   4.063 -0.8847  0.1575  1.9770
  340MOL    H7327871   4.160   5.476   3.953  0.0540 -0.9097 -0.4087
  340MOL    C7427872   4.094   5.675   4.096 -0.2041 -0.0137  0.0197
  340MOL    O7527873   4.063   5.711   3.964  0.3727  0.4639  0.1028
  340MOL    H7627874   4.201   5.694   4.102 -0.6030  2.9403 -1.4213
  340MOL    H7727875   4.040   5.737   4.167  1.5089  0.5719  0.8289
  340MOL    C7827876   3.929   5.739   3.949 -0.3933  0.6827  0.0496
  340MOL    O7927877   3.906   5.770   3.808 -0.7002 -0.0219 -0.4349
  340MOL    H8027878   3.902   5.826   4.009 -1.1824 -0.1817  0.9731
  340MOL    H8127879   3.862   5.657   3.973 -0.8911  1.0519 -0.0616
  340MOL    H8227880   3.928   5.693   3.758 -2.7885 -1.0988  0.2589
  341MOL     C127881   6.306   5.720   0.807 -0.5325  0.0346  0.6912
  341MOL     O227882   6.254   5.609   0.875 -0.0572 -0.4862 -0.2499
  341MOL     H327883   6.414   5.731   0.816 -0.2437 -1.2376 -0.8823
  341MOL     H427884   6.278   5.727   0.702  1.7351 -0.0900  0.0519
  341MOL     H527885   6.261   5.813   0.842 -0.9329 -0.2873  1.0343
  341MOL     C627886   6.315   5.486   0.861  0.0268  0.4815 -0.5896
  341MOL     O727887   6.463   5.476   0.886  0.3265 -0.0769  0.1088
  341MOL     H827888   6.304   5.464   0.755  0.8133 -2.9828 -0.0121
  341MOL     H927889   6.257   5.406   0.907 -2.4585  1.6563 -1.5816
  341MOL    C1027890   6.493   5.487   1.021 -0.4051 -0.5144 -0.5307
  341MOL    O1127891   6.443   5.379   1.101 -0.1689 -0.4076  0.2225
  341MOL    H1227892   6.439   5.573   1.061  1.3332  0.2259  0.2687
  341MOL    H1327893   6.600   5.495   1.038 -0.8662 -0.5008  2.5235
  341MOL    C1427894   6.493   5.260   1.047 -0.2146  0.1311  0.5207
  341MOL    O1527895   6.446   5.153   1.118 -0.2333  0.3343 -0.1201
  341MOL    H1627896   6.602   5.262   1.059 -0.2063  0.7324  0.3753
  341MOL    H1727897   6.479   5.232   0.942  0.4977  1.0959  0.1536
  341MOL    C1827898   6.307   5.146   1.115  0.0847  0.3835 -0.3288
  341MOL    O1927899   6.253   5.051   1.208 -0.1319 -0.2755 -0.1402
  341MOL    H2027900   6.285   5.114   1.013 -0.8458 -0.2977  0.0715
  341MOL    H2127901   6.264   5.243   1.137  2.4501  1.0483  1.5966
  341MOL    C2227902   6.194   4.935   1.153  0.6408 -0.1942  0.1492
  341MOL    O2327903   6.061   4.957   1.109 -0.0322  0.5188 -0.2468
  341MOL    H2427904   6.196   4.854   1.225  2.0931  0.1701  0.5241
  341MOL    H2527905   6.250   4.903   1.066  1.1784  1.5407 -0.1570
  341MOL    C2627906   5.975   4.964   1.222 -0.6484  0.0785 -0.3616
  341MOL    O2727907   5.868   5.051   1.199 -0.6442  0.2551  0.3033
  341MOL    H2827908   6.021   5.016   1.305  0.2774 -2.2942  0.6674
  341MOL    H2927909   5.945   4.861   1.245  0.0304  0.3777  2.0100
  341MOL    C3027910   5.777   5.044   1.298  0.8986  0.0667 -0.5833
  341MOL    O3127911   5.809   5.124   1.411 -0.6129  0.7488 -0.0981
  341MOL    H3227912   5.747   4.946   1.333  1.3575 -0.6380 -2.1388
  341MOL    H3327913   5.687   5.079   1.248  1.0454  2.4769  0.7582
  341MOL    C3427914   5.798   5.262   1.385 -0.1499  0.1404 -0.4272
  341MOL    O3527915   5.860   5.331   1.492  0.5012 -0.2535  0.0758
  341MOL    H3627916   5.696   5.300   1.380 -0.5232 -0.5037  1.9459
  341MOL    H3727917   5.851   5.289   1.293 -2.4741  1.3125 -1.4694
  341MOL    C3827918   6.002   5.327   1.468 -0.8793  0.1084 -0.1960
  341MOL    O3927919   6.039   5.409   1.358  0.6268  0.6973 -0.0829
  341MOL    H4027920   6.028   5.227   1.435 -1.1147  0.1851 -0.6201
  341MOL    H4127921   6.058   5.346   1.560 -1.6041  1.4059 -0.0006
  341MOL    C4227922   6.053   5.534   1.413  1.4017  0.0920  0.5778
  341MOL    O4327923   6.181   5.554   1.471 -0.0494  0.4752  0.5534
  341MOL    H4427924   5.969   5.551   1.480  0.4529 -0.3019 -0.4949
  341MOL    H4527925   6.040   5.602   1.328  0.7920 -1.4268 -0.5709
  341MOL    C4627926   6.291   5.541   1.385 -0.6491 -0.1515 -0.3019
  341MOL    O4727927   6.400   5.613   1.432 -1.0332 -0.1341 -0.4751
  341MOL    H4827928   6.270   5.578   1.285 -0.6271 -1.9889 -1.0139
  341MOL    H4927929   6.310   5.434   1.372  0.4214 -0.1724  1.2783
  341MOL    C5027930   6.467   5.547   1.539  0.9604 -0.2535  0.3245
  341MOL    O5127931   6.566   5.456   1.490 -0.5437  0.3769  0.7563
  341MOL    H5227932   6.402   5.487   1.602  0.6437  0.6823  0.8863
  341MOL    H5327933   6.502   5.623   1.608 -0.3196 -1.8014  2.7465
  341MOL    C5427934   6.684   5.525   1.447 -0.0417  0.3263 -0.4969
  341MOL    O5527935   6.791   5.433   1.438  0.1215  0.1869  0.2710
  341MOL    H5627936   6.708   5.601   1.521 -2.5098 -0.3284  1.0426
  341MOL    H5727937   6.651   5.584   1.361 -0.0921 -0.5519 -1.0837
  341MOL    C5827938   6.783   5.357   1.323  0.4315  0.0981 -0.7912
  341MOL    O5927939   6.811   5.430   1.212 -0.3423  0.2779  0.3540
  341MOL    H6027940   6.692   5.297   1.314  1.2384 -1.5217  1.2468
  341MOL    H6127941   6.867   5.289   1.315 -0.6639 -1.2080 -1.3717
  341MOL    C6227942   6.950   5.477   1.203  0.6560 -0.4195  0.2209
  341MOL    O6327943   7.043   5.381   1.163  0.9497  0.3192  0.4898
  341MOL    H6427944   6.977   5.506   1.304 -0.2678  2.3102 -0.2476
  341MOL    H6527945   6.953   5.558   1.130  1.6450  1.0418  1.8452
  341MOL    C6627946   7.058   5.363   1.022  0.3345  0.1077  0.2301
  341MOL    O6727947   7.134   5.459   0.955  0.1547 -0.3838 -0.1092
  341MOL    H6827948   6.960   5.367   0.974 -0.2058 -0.6050  1.2434
  341MOL    H6927949   7.100   5.263   1.009 -1.0605 -0.4212 -0.4237
  341MOL    C7027950   7.263   5.465   0.990  0.1997  0.3892  0.4122
  341MOL    O7127951   7.317   5.588   0.963  0.4226 -0.6349  0.1916
  341MOL    H7227952   7.309   5.381   0.937 -0.1485  0.7135 -0.4040
  341MOL    H7327953   7.274   5.437   1.095  0.8251 -0.2695  0.1729
  341MOL    C7427954   7.266   5.696   1.046 -0.6652 -0.2248  0.1899
  341MOL    O7527955   7.142   5.743   1.011  0.4475 -0.2000  0.3835
  341MOL    H7627956   7.338   5.778   1.047 -1.0587  0.1606 -1.0223
  341MOL    H7727957   7.264   5.680   1.153  0.6015 -0.7073  0.1463
  341MOL    C7827958   7.136   5.793   0.879  0.0564  0.3980  0.6690
  341MOL    O7927959   7.205   5.915   0.874 -0.1473 -0.0924 -0.4970
  341MOL    H8027960   7.032   5.809   0.850 -0.5101  0.7121  2.7878
  341MOL    H8127961   7.191   5.731   0.809 -1.3644 -0.1042 -0.0211
  341MOL    H8227962   7.135   5.976   0.893  1.1246  1.6268 -1.2747
  342MOL     C127963   3.665   5.580   1.870 -0.6263  0.2348  0.0817
  342MOL     O227964   3.735   5.462   1.909 -0.2529  0.3701 -0.6063
  342MOL     H327965   3.655   5.587   1.762  0.0896  1.7378  0.0904
  342MOL     H427966   3.564   5.578   1.910 -0.7559  0.2587 -0.2434
  342MOL     H527967   3.721   5.667   1.906 -1.9609  1.0053  0.3490
  342MOL     C627968   3.736   5.442   2.050  0.0510 -0.6582  0.2183
  342MOL     O727969   3.619   5.378   2.089 -0.3983  0.5360  0.3329
  342MOL     H827970   3.730   5.536   2.103  0.7168 -0.5230  0.0527
  342MOL     H927971   3.827   5.389   2.080 -0.2273  0.2053  2.6914
  342MOL    C1027972   3.637   5.244   2.070 -0.3378 -0.3602 -0.3142
  342MOL    O1127973   3.522   5.170   2.088 -0.6166  0.2580 -0.1186
  342MOL    H1227974   3.726   5.213   2.124 -0.3375 -0.9476 -0.6445
  342MOL    H1327975   3.659   5.230   1.964  3.0221  2.3422 -0.0486
  342MOL    C1427976   3.502   5.138   2.220  0.0397  1.0769 -0.1919
  342MOL    O1527977   3.592   5.037   2.266 -0.3350 -0.9455  0.7718
  342MOL    H1627978   3.395   5.123   2.233  0.0293  0.2972 -1.0951
  342MOL    H1727979   3.526   5.230   2.274  1.3394  0.9013 -0.4412
  342MOL    C1827980   3.551   4.974   2.384  0.5496  0.1734 -0.1664
  342MOL    O1927981   3.508   5.058   2.483  0.2243 -0.0197 -0.1214
  342MOL    H2027982   3.627   4.902   2.414 -1.8620 -2.8021 -0.9408
  342MOL    H2127983   3.466   4.919   2.345 -1.1536  0.9152  2.4047
  342MOL    C2227984   3.604   5.132   2.549  0.0656 -0.5797 -0.7397
  342MOL    O2327985   3.549   5.231   2.621  0.7782  0.2041 -0.0706
  342MOL    H2427986   3.665   5.179   2.472 -0.0334 -1.2850 -1.2559
  342MOL    H2527987   3.672   5.069   2.606  1.7878 -0.5279 -2.6491
  342MOL    C2627988   3.505   5.200   2.754  0.2334 -0.4157 -0.2549
  342MOL    O2727989   3.612   5.139   2.830 -0.0990 -0.2557 -0.7862
  342MOL    H2827990   3.436   5.116   2.757  0.3385 -0.5143 -0.5672
  342MOL    H2927991   3.450   5.278   2.807  0.5883 -0.7577  0.6389
  342MOL    C3027992   3.709   5.236   2.864  0.0161 -0.5142  0.3729
  342MOL    O3127993   3.820   5.195   2.927  0.2377 -0.0175 -0.3161
  342MOL    H3227994   3.679   5.337   2.891  0.4558 -0.6760  1.5046
  342MOL    H3327995   3.750   5.255   2.765 -1.0474  1.7445  0.3548
  342MOL    C3427996   3.788   5.177   3.071  0.3676 -0.1496  0.2380
  342MOL    O3527997   3.789   5.295   3.140 -0.0592  0.4500 -0.2494
  342MOL    H3627998   3.854   5.099   3.108  0.3413 -0.7878 -1.0444
  342MOL    H3727999   3.689   5.135   3.084  0.3457  0.4606  2.2223
  342MOL    C3828000   3.918   5.345   3.159 -0.3327 -0.1175  0.1479
  342MOL    O3928001   3.914   5.451   3.257 -0.2316  0.7164 -0.4139
  342MOL    H4028002   3.964   5.368   3.063 -1.4717  1.4425 -0.0423
  342MOL    H4128003   3.987   5.267   3.192  0.2366  0.3468  0.0690
  342MOL    C4228004   3.872   5.574   3.209 -0.3354  0.3823 -0.1886
  342MOL    O4328005   3.741   5.573   3.158 -0.0676  0.1462  0.1960
  342MOL    H4428006   3.932   5.636   3.142  2.0935 -0.6732  0.9435
  342MOL    H4528007   3.873   5.635   3.299  1.7974  1.3151 -0.8206
  342MOL    C4628008   3.723   5.586   3.025 -0.2242 -0.6616  0.5543
  342MOL    O4728009   3.686   5.718   2.984 -0.0553 -0.1573 -0.0641
  342MOL    H4828010   3.643   5.523   2.986  0.3390 -0.9592 -0.1289
  342MOL    H4928011   3.808   5.542   2.973  0.6152  0.2944  1.1093
  342MOL    C5028012   3.783   5.811   3.027  0.2165 -0.2186 -0.1510
  342MOL    O5128013   3.906   5.796   2.956 -0.6445 -0.1487  0.5827
  342MOL    H5228014   3.796   5.808   3.135 -1.5447 -0.8809  0.0694
  342MOL    H5328015   3.743   5.911   3.009  0.4963 -0.1182 -0.2175
  342MOL    C5428016   3.909   5.825   2.822  0.3410  0.3830 -0.1162
  342MOL    O5528017   3.888   5.959   2.798 -0.5608  0.5056 -0.3169
  342MOL    H5628018   3.829   5.773   2.770  2.2832 -1.1609 -1.6806
  342MOL    H5728019   3.995   5.775   2.777  1.3167  2.2521 -0.3645
  342MOL    C5828020   3.992   6.043   2.843 -0.4895 -0.1347  0.0516
  342MOL    O5928021   4.110   6.022   2.763 -0.1670 -0.2778 -0.1299
  342MOL    H6028022   4.006   6.018   2.948  0.7730 -0.9695 -0.3016
  342MOL    H6128023   3.967   6.149   2.849 -0.0939  0.0043 -0.6268
  342MOL    C6228024   4.101   6.091   2.635 -0.2102  0.1464 -0.1872
  342MOL    O6328025   4.148   6.224   2.629 -0.4681 -0.0791  0.3439
  342MOL    H6428026   3.996   6.086   2.607 -0.1126 -1.0236 -0.3497
  342MOL    H6528027   4.149   6.040   2.552 -0.0118  0.1414 -0.0692
  342MOL    C6628028   4.284   6.230   2.634  0.1398 -0.3112  0.8665
  342MOL    O6728029   4.337   6.191   2.514  0.4967  0.5930 -0.1107
  342MOL    H6828030   4.333   6.166   2.708 -1.1209  1.1368  2.9819
  342MOL    H6928031   4.316   6.332   2.652  0.7288  0.0760 -2.0390
  342MOL    C7028032   4.294   6.265   2.406 -0.0235  0.1906 -0.0115
  342MOL    O7128033   4.373   6.233   2.291  0.3820  0.2535 -0.4454
  342MOL    H7228034   4.302   6.370   2.435 -0.1155  0.5160 -1.1576
  342MOL    H7328035   4.196   6.221   2.389 -1.1942  2.1651  1.3743
  342MOL    C7428036   4.313   6.276   2.169  0.1381  0.1722 -1.5962
  342MOL    O7528037   4.316   6.409   2.147 -0.4604 -0.5837 -0.4748
  342MOL    H7628038   4.210   6.241   2.160  0.2351  0.0038 -2.0626
  342MOL    H7728039   4.369   6.219   2.096  0.8784  0.2012 -1.0585
  342MOL    C7828040   4.445   6.455   2.153  0.0409 -0.2660  0.0832
  342MOL    O7928041   4.465   6.589   2.120 -0.1003  0.7140 -0.1961
  342MOL    H8028042   4.514   6.402   2.087  0.1525 -1.3609  1.0408
  342MOL    H8128043   4.475   6.440   2.257  0.1842  0.2476  0.1164
  342MOL    H8228044   4.427   6.597   2.034  1.1246 -2.3101 -1.0923
  343MOL     C128045   3.997   1.986   3.773 -0.1570 -0.5554 -0.1473
  343MOL     O228046   3.991   1.867   3.839 -0.6200  0.1942 -0.0227
  343MOL     H328047   3.993   1.981   3.664  0.2049  0.0930 -0.1934
  343MOL     H428048   3.902   2.038   3.788 -0.2758 -0.8705  0.2091
  343MOL     H528049   4.076   2.049   3.814 -1.5943 -0.3331  2.3853
  343MOL     C628050   4.003   1.892   3.978 -0.7433  0.6242  0.1077
  343MOL     O728051   3.889   1.872   4.051  0.3598  0.5235 -0.6234
  343MOL     H828052   4.038   1.990   4.011  1.0982  0.0251  0.0302
  343MOL     H928053   4.081   1.824   4.012  1.0973  2.8068  0.3921
  343MOL    C1028054   3.853   1.739   4.054 -0.4344  0.3704  0.3845
  343MOL    O1128055   3.943   1.662   4.144  0.2882  0.2828 -0.4035
  343MOL    H1228056   3.852   1.692   3.956 -1.6331  0.0898  0.5187
  343MOL    H1328057   3.751   1.739   4.093 -1.4763 -0.1869 -2.2309
  343MOL    C1428058   3.914   1.523   4.143 -0.0457  0.2263 -0.0852
  343MOL    O1528059   3.923   1.460   4.019 -0.2889  0.2254  0.1559
  343MOL    H1628060   3.821   1.506   4.198 -0.0845 -1.6910 -0.6968
  343MOL    H1728061   3.987   1.478   4.210 -0.2632 -0.4416 -0.2947
  343MOL    C1828062   3.918   1.323   4.029 -0.7061 -0.1100 -0.0965
  343MOL    O1928063   4.035   1.273   4.093 -0.2786  0.0639  0.2941
  343MOL    H2028064   3.919   1.287   3.926  0.4236 -0.3363 -0.0110
  343MOL    H2128065   3.831   1.293   4.087 -0.2340  0.6050  0.9963
  343MOL    C2228066   4.031   1.144   4.133 -0.0743 -0.8265  0.4197
  343MOL    O2328067   4.057   1.057   4.023  0.0990 -0.4872  0.8618
  343MOL    H2428068   3.936   1.113   4.176 -0.7115 -1.1280 -1.1687
  343MOL    H2528069   4.102   1.117   4.212  0.5903 -0.9962 -0.2318
  343MOL    C2628070   4.175   1.090   3.946  0.8039  0.6920 -0.5065
  343MOL    O2728071   4.284   1.102   4.038  0.4304 -0.1468 -0.3582
  343MOL    H2828072   4.152   1.179   3.888 -1.7234 -0.9078 -1.9841
  343MOL    H2928073   4.187   1.013   3.870  1.6394 -2.7294  2.9230
  343MOL    C3028074   4.403   1.127   3.967 -0.1760 -0.5618  0.4279
  343MOL    O3128075   4.452   1.010   3.900 -0.7473 -0.8094  0.9549
  343MOL    H3228076   4.481   1.180   4.022  0.3229 -1.6406  0.7659
  343MOL    H3328077   4.381   1.202   3.890  0.1721 -0.6074  0.2819
  343MOL    C3428078   4.549   0.943   3.981 -0.2147 -0.0740 -0.4326
  343MOL    O3528079   4.669   1.016   3.996 -0.2298  0.5867 -0.3197
  343MOL    H3628080   4.571   0.841   3.951  1.1021  0.5394 -1.5884
  343MOL    H3728081   4.512   0.943   4.084  0.7488 -0.3479 -0.0797
  343MOL    C3828082   4.752   1.001   3.884  0.4202  0.1143 -0.2115
  343MOL    O3928083   4.801   0.873   3.845  0.2268  0.0609  0.4641
  343MOL    H4028084   4.826   1.081   3.890 -0.2093  0.8269 -1.5495
  343MOL    H4128085   4.688   1.027   3.799 -1.5964  3.0741  2.0805
  343MOL    C4228086   4.895   0.824   3.936  0.4885 -0.0353  0.7316
  343MOL    O4328087   4.836   0.785   4.058  0.3627  0.3084  0.3165
  343MOL    H4428088   4.972   0.899   3.958 -0.6946  1.2568  0.5707
  343MOL    H4528089   4.951   0.742   3.891  3.0080  1.4624  1.0164
  343MOL    C4628090   4.808   0.653   4.064  0.1428  0.2086  1.0587
  343MOL    O4728091   4.714   0.629   4.171 -0.3920 -0.6267 -0.0285
  343MOL    H4828092   4.894   0.588   4.078 -0.9490 -1.5664 -0.3290
  343MOL    H4928093   4.758   0.619   3.974  1.4217  0.1853  0.3374
  343MOL    C5028094   4.761   0.660   4.296 -0.1603 -0.7261 -0.2211
  343MOL    O5128095   4.864   0.583   4.343 -0.1918  0.9347  0.0638
  343MOL    H5228096   4.671   0.653   4.357 -1.0290 -1.1030 -1.5264
  343MOL    H5328097   4.797   0.763   4.308 -0.2549 -0.7871  0.6006
  343MOL    C5428098   4.819   0.463   4.399 -0.3391  0.1986 -0.0310
  343MOL    O5528099   4.918   0.385   4.464 -0.4280  0.2168 -0.1123
  343MOL    H5628100   4.772   0.401   4.322  1.9579  0.3513 -1.6124
  343MOL    H5728101   4.741   0.475   4.474  0.3231  0.7994  0.5650
  343MOL    C5828102   4.984   0.456   4.553  0.8195 -1.0298  0.0430
  343MOL    O5928103   5.070   0.373   4.629 -0.1318 -0.2337 -0.4734
  343MOL    H6028104   4.912   0.496   4.625  0.9777 -0.1158 -0.3029
  343MOL    H6128105   5.047   0.536   4.514  0.5228 -1.0525 -0.4957
  343MOL    C6228106   5.123   0.430   4.743 -0.0620  0.7488  0.0489
  343MOL    O6328107   5.212   0.339   4.813  1.0056  0.1998 -0.2813
  343MOL    H6428108   5.039   0.462   4.804 -0.8267  2.0359 -1.6158
  343MOL    H6528109   5.185   0.511   4.705  0.6958  0.7648  1.2875
  343MOL    C6628110   5.309   0.282   4.725  1.1206  0.3213 -0.3464
  343MOL    O6728111   5.391   0.188   4.793 -0.6289  0.0091 -0.0195
  343MOL    H6828112   5.357   0.367   4.676 -0.0256  0.7564 -0.7400
  343MOL    H6928113   5.260   0.215   4.654 -2.7524  1.8897  0.7230
  343MOL    C7028114   5.501   0.244   4.863  0.1111  0.5117  1.5696
  343MOL    O7128115   5.568   0.335   4.772  0.5784  0.5582  0.4714
  343MOL    H7228116   5.577   0.171   4.890 -0.5578 -0.3147  1.2227
  343MOL    H7328117   5.468   0.295   4.953 -0.3119  1.8616  0.6800
  343MOL    C7428118   5.701   0.349   4.814 -0.1696 -0.4614  0.2088
  343MOL    O7528119   5.775   0.236   4.777  0.7210 -0.0562  0.4125
  343MOL    H7628120   5.706   0.370   4.921 -0.7600 -0.5021  0.2454
  343MOL    H7728121   5.750   0.437   4.772  1.9648 -1.0203  1.4423
  343MOL    C7828122   5.754   0.215   4.645 -0.0376 -0.3153 -0.0923
  343MOL    O7928123   5.851   0.129   4.594 -0.2859 -0.2756  0.5304
  343MOL    H8028124   5.774   0.312   4.599 -0.3297  0.3172  1.1018
  343MOL    H8128125   5.652   0.187   4.620 -0.4045 -0.2683  1.2940
  343MOL    H8228126   5.827   0.041   4.616 -0.8194  0.0014  1.0681
  344MOL     C128127   7.732   3.444   1.608 -0.3979 -0.0246  0.3159
  344MOL     O228128   7.609   3.465   1.662  0.1904  0.1991  0.3798
  344MOL     H328129   7.756   3.507   1.522 -0.4986 -0.8660 -0.3360
  344MOL     H428130   0.023   3.471   1.683  1.0292 -0.2671 -0.9847
  344MOL     H528131   7.742   3.342   1.573 -1.0028  0.2561 -0.7036
  344MOL     C628132   7.509   3.499   1.566 -0.2936 -0.4700 -0.4464
  344MOL     O728133   7.533   3.618   1.506  0.1736  0.2387 -0.0322
  344MOL     H828134   7.422   3.498   1.631  1.3638  1.4593  1.9007
  344MOL     H928135   7.494   3.429   1.484 -0.1497  1.3186 -2.0480
  344MOL    C1028136   7.504   3.723   1.587  0.5444 -0.0311  0.1522
  344MOL    O1128137   7.366   3.746   1.575  0.0344  0.1040 -0.0383
  344MOL    H1228138   7.573   3.805   1.572 -1.6679  1.5200 -2.0527
  344MOL    H1328139   7.526   3.700   1.692 -0.8834 -0.7635  0.3098
  344MOL    C1428140   7.339   3.819   1.462 -0.4832  0.0921 -0.1436
  344MOL    O1528141   7.365   3.949   1.482  0.1742 -0.6041 -1.0543
  344MOL    H1628142   7.233   3.803   1.439 -1.1475  1.4863  1.8081
  344MOL    H1728143   7.393   3.770   1.381  1.9739 -0.4880  1.7927
  344MOL    C1828144   7.268   4.020   1.557 -0.7831 -0.5123  0.3900
  344MOL    O1928145   7.299   4.161   1.564 -0.0872  0.6731 -0.9897
  344MOL    H2028146   7.244   3.965   1.648 -0.9737  0.7974  1.1445
  344MOL    H2128147   7.177   4.025   1.497 -0.2478  3.9620 -0.1538
  344MOL    C2228148   7.411   4.197   1.628 -0.3577 -0.1634  0.0946
  344MOL    O2328149   7.385   4.201   1.762  0.5604  0.7256 -0.1321
  344MOL    H2428150   7.454   4.288   1.586 -4.6047  1.3403 -1.2610
  344MOL    H2528151   7.491   4.129   1.601 -0.3902 -0.4074  0.6071
  344MOL    C2628152   7.318   4.322   1.784 -0.4579  0.0562  0.2898
  344MOL    O2728153   7.391   4.433   1.744  0.1047 -0.5746  0.4589
  344MOL    H2828154   7.284   4.305   1.886  1.3196 -0.4131  0.8172
  344MOL    H2928155   7.228   4.315   1.723 -0.9544 -0.1688  1.0447
  344MOL    C3028156   7.511   4.450   1.807  0.1959 -0.7751 -0.8002
  344MOL    O3128157   7.563   4.581   1.778  0.1421 -0.4844 -0.4382
  344MOL    H3228158   7.593   4.386   1.775 -0.7032 -2.0288 -0.6507
  344MOL    H3328159   7.491   4.452   1.914 -2.0193 -2.4416 -1.1491
  344MOL    C3428160   7.578   4.603   1.636 -0.2328 -0.1421 -0.4229
  344MOL    O3528161   7.661   4.509   1.581  0.0423  0.4744  1.0579
  344MOL    H3628162   7.620   4.702   1.622 -0.3785 -0.0311 -0.0632
  344MOL    H3728163   7.483   4.592   1.583 -1.6606 -0.3741  2.1313
  344MOL    C3828164   0.007   4.536   1.600  0.1204 -0.0491 -0.2502
  344MOL    O3928165   0.045   4.647   1.519  0.1990  0.0746  0.0753
  344MOL    H4028166   0.064   4.448   1.570 -1.1725 -1.5087  1.4664
  344MOL    H4128167   0.029   4.553   1.705 -0.8297  0.6433 -0.1634
  344MOL    C4228168   0.181   4.673   1.532 -0.6865 -0.0717  0.1131
  344MOL    O4328169   0.248   4.575   1.462  0.0376 -0.2803  0.6153
  344MOL    H4428170   0.191   4.674   1.641  1.7299 -0.3597 -0.0939
  344MOL    H4528171   0.206   4.773   1.495 -0.8202  0.4575  1.4185
  344MOL    C4628172   0.380   4.564   1.483  0.5413 -0.1577 -0.9669
  344MOL    O4728173   0.404   4.497   1.607 -0.2552  0.3762 -0.0881
  344MOL    H4828174   0.414   4.667   1.472 -0.5658  0.2926 -0.2834
  344MOL    H4928175   0.422   4.508   1.400 -0.9383 -0.5524 -1.4713
  344MOL    C5028176   0.359   4.360   1.619 -0.8293 -0.1631  0.1351
  344MOL    O5128177   0.460   4.280   1.562 -0.3179 -0.1000 -0.1204
  344MOL    H5228178   0.260   4.349   1.574 -1.3581 -0.1753  1.2863
  344MOL    H5328179   0.349   4.336   1.725 -0.8767 -0.9802 -0.0509
  344MOL    C5428180   0.431   4.148   1.573 -0.8850  0.1279 -0.0848
  344MOL    O5528181   0.351   4.103   1.473  0.2459 -0.3897  0.1164
  344MOL    H5628182   0.393   4.135   1.674  0.6839 -0.3073  0.4699
  344MOL    H5728183   0.526   4.094   1.573 -0.6972  0.4325  2.1505
  344MOL    C5828184   0.410   4.110   1.347 -0.3902 -0.1487 -0.0551
  344MOL    O5928185   0.308   4.085   1.254 -0.1118  0.0991 -0.3618
  344MOL    H6028186   0.487   4.035   1.329 -0.1593 -0.1179  0.7595
  344MOL    H6128187   0.440   4.211   1.318 -1.1914  0.5018  1.3303
  344MOL    C6228188   0.225   4.190   1.229 -0.6821 -0.2604  0.0792
  344MOL    O6328189   0.257   4.235   1.103 -0.2242 -0.0373  0.9892
  344MOL    H6428190   0.245   4.274   1.296 -1.1001 -0.1001  0.0020
  344MOL    H6528191   0.125   4.155   1.253 -2.1054  2.6810 -1.3246
  344MOL    C6628192   0.231   4.141   1.003  0.4566 -0.3161 -0.0038
  344MOL    O6728193   0.249   4.200   0.880  0.5125 -0.2338 -0.1186
  344MOL    H6828194   0.128   4.104   1.004  0.1859  0.4531  1.2145
  344MOL    H6928195   0.289   4.050   1.014  0.5713 -0.2883 -0.3691
  344MOL    C7028196   0.379   4.208   0.842  0.0828  0.3649  0.1362
  344MOL    O7128197   0.423   4.086   0.787 -0.7566  0.0021  0.4656
  344MOL    H7228198   0.436   4.235   0.930  1.6949 -0.3675 -0.6586
  344MOL    H7328199   0.365   4.291   0.773 -0.8157  0.2096  0.1268
  344MOL    C7428200   0.428   4.083   0.648  0.5029  0.1674  0.3100
  344MOL    O7528201   0.301   4.094   0.584  0.7121  0.0020 -0.4339
  344MOL    H7628202   0.487   3.994   0.625  0.0613 -0.5889  2.0174
  344MOL    H7728203   0.482   4.170   0.613 -2.2689  1.2159 -1.5772
  344MOL    C7828204   0.221   3.983   0.592  0.5696 -0.0676  0.1591
  344MOL    O7928205   0.099   4.001   0.527 -0.1365 -0.8215  0.4111
  344MOL    H8028206   0.194   3.959   0.695  1.2907 -0.4078  0.2743
  344MOL    H8128207   0.272   3.890   0.565  1.8872  0.4203  0.9379
  344MOL    H8228208   0.113   4.006   0.433  0.2373 -1.1238  0.4479
  345MOL     C128209   1.049   3.772   1.291  0.2841  0.8162  0.3804
  345MOL     O228210   1.023   3.633   1.295  0.3377  0.2984  0.0583
  345MOL     H328211   0.964   3.832   1.260 -0.8014  0.3878  2.4114
  345MOL     H428212   1.085   3.823   1.381 -0.0378  1.7154 -0.0057
  345MOL     H528213   1.120   3.788   1.211  1.4571  0.7568  1.3889
  345MOL     C628214   1.127   3.551   1.274  0.5204 -0.3669 -0.0896
  345MOL     O728215   1.165   3.548   1.140 -0.1226  0.8318 -0.2023
  345MOL     H828216   1.098   3.450   1.304 -0.3401 -0.0487  0.1511
  345MOL     H928217   1.212   3.584   1.334  1.9041 -0.0349 -2.1860
  345MOL    C1028218   1.096   3.447   1.069  0.0515  1.2163  0.3580
  345MOL    O1128219   1.160   3.329   1.108  0.1912  0.3221  0.3654
  345MOL    H1228220   1.102   3.447   0.960 -0.1107  0.1883  0.3447
  345MOL    H1328221   0.988   3.451   1.086  0.1904 -0.8493  1.9187
  345MOL    C1428222   1.295   3.328   1.066 -0.8145  0.4357 -0.1125
  345MOL    O1528223   1.312   3.371   0.931  0.5737  0.2691  0.0353
  345MOL    H1628224   1.353   3.238   1.086  0.0586  0.3165 -2.9748
  345MOL    H1728225   1.356   3.407   1.111  2.2789 -2.6365  1.3444
  345MOL    C1828226   1.261   3.285   0.845  0.2494 -0.0907 -0.5294
  345MOL    O1928227   1.321   3.159   0.850 -0.0405  0.7285  0.1154
  345MOL    H2028228   1.271   3.327   0.745  0.4990  2.7240  0.6116
  345MOL    H2128229   1.153   3.269   0.852  0.2902 -0.7796 -1.3863
  345MOL    C2228230   1.228   3.056   0.799 -0.0078 -0.7246  0.2189
  345MOL    O2328231   1.153   3.013   0.899 -0.7935  0.0399 -0.2691
  345MOL    H2428232   1.287   2.972   0.761 -0.7109 -0.8268 -0.6737
  345MOL    H2528233   1.179   3.106   0.715 -0.1084  0.8402  1.2041
  345MOL    C2628234   1.224   2.961   1.009  0.0497 -0.6631  0.8598
  345MOL    O2728235   1.284   2.834   0.985  0.6336  0.3035 -0.0691
  345MOL    H2828236   1.165   2.955   1.101  0.1747 -1.9278  0.8610
  345MOL    H2928237   1.310   3.022   1.038  0.8571 -1.7822  0.8340
  345MOL    C3028238   1.192   2.728   0.985  0.3131 -0.6511 -0.1621
  345MOL    O3128239   1.126   2.706   1.103 -0.2168 -0.5281  0.4504
  345MOL    H3228240   1.236   2.635   0.950  0.4098 -0.4064 -0.7012
  345MOL    H3328241   1.122   2.756   0.905 -0.2657  0.1479  0.6167
  345MOL    C3428242   1.195   2.627   1.190 -0.3645  1.0230 -0.6848
  345MOL    O3528243   1.130   2.608   1.315  0.4937  0.2124 -0.5952
  345MOL    H3628244   1.290   2.676   1.211 -0.4302  0.8383  0.0506
  345MOL    H3728245   1.219   2.530   1.146 -0.0149  0.8579 -0.1329
  345MOL    C3828246   1.134   2.717   1.397 -0.2514 -0.0642 -0.6205
  345MOL    O3928247   1.021   2.725   1.483  0.3575 -0.2415 -0.2978
  345MOL    H4028248   1.127   2.808   1.337  0.6306 -0.2265 -0.9796
  345MOL    H4128249   1.231   2.731   1.445 -1.3860  0.3592  1.6348
  345MOL    C4228250   1.029   2.637   1.590 -0.0496  0.1635  0.2281
  345MOL    O4328251   1.140   2.668   1.672 -0.6237  0.3137 -0.0832
  345MOL    H4428252   1.026   2.535   1.552 -1.2113 -0.6783  2.4158
  345MOL    H4528253   0.938   2.645   1.651 -0.6173 -0.8214 -0.4845
  345MOL    C4628254   1.157   2.592   1.786 -0.3715  0.3775 -0.4765
  345MOL    O4728255   1.138   2.449   1.771  0.1776 -0.1867 -0.3654
  345MOL    H4828256   1.075   2.615   1.854 -1.7747 -1.2127 -1.5857
  345MOL    H4928257   1.251   2.610   1.838 -1.1703 -0.1102  1.1638
  345MOL    C5028258   1.253   2.395   1.707  0.2967  0.1079  0.3555
  345MOL    O5128259   1.232   2.263   1.668  0.4549 -0.0491 -0.1270
  345MOL    H5228260   1.337   2.397   1.777  1.3932 -0.3921 -0.9169
  345MOL    H5328261   1.277   2.452   1.618  0.3235 -1.9718 -1.0160
  345MOL    C5428262   1.158   2.243   1.549  0.1691  0.3531  0.3419
  345MOL    O5528263   1.247   2.272   1.442 -0.2433  0.3806 -0.5526
  345MOL    H5628264   1.071   2.308   1.554  0.1932  0.1875  3.6746
  345MOL    H5728265   1.132   2.137   1.549 -3.0411  1.0804  0.2120
  345MOL    C5828266   1.175   2.281   1.324 -0.2899  0.5051 -0.1541
  345MOL    O5928267   1.102   2.165   1.296 -0.5918 -0.1458  0.1117
  345MOL    H6028268   1.246   2.314   1.249 -1.8757  2.3175 -0.8893
  345MOL    H6128269   1.106   2.364   1.334 -2.5556 -1.1472 -1.5343
  345MOL    C6228270   1.193   2.071   1.238  0.0648 -0.1983 -0.3662
  345MOL    O6328271   1.238   2.119   1.117  0.1897  0.2050  0.4222
  345MOL    H6428272   1.151   1.971   1.225  1.4521 -1.0311  1.4664
  345MOL    H6528273   1.279   2.053   1.301 -0.6495  1.5433  1.1820
  345MOL    C6628274   1.138   2.133   1.018  0.9627 -0.2735  0.5410
  345MOL    O6728275   1.199   2.155   0.896 -0.6622 -0.0578 -0.0825
  345MOL    H6828276   1.069   2.214   1.040  1.3758  0.1955  0.1314
  345MOL    H6928277   1.079   2.042   1.012  1.6091 -0.6688  0.1713
  345MOL    C7028278   1.270   2.280   0.881 -0.3755  0.0823  0.2595
  345MOL    O7128279   1.189   2.396   0.898 -0.2515  0.0327  0.3620
  345MOL    H7228280   1.300   2.282   0.776 -1.4189 -0.7478 -0.0613
  345MOL    H7328281   1.365   2.285   0.933 -1.2005  0.4022  1.7726
  345MOL    C7428282   1.081   2.406   0.811  0.1283 -0.1345 -0.3054
  345MOL    O7528283   1.128   2.415   0.679  0.3531  0.2363 -0.8783
  345MOL    H7628284   1.033   2.502   0.835  0.5151  0.3561 -1.4638
  345MOL    H7728285   1.006   2.327   0.813 -2.2414  2.0727  1.9278
  345MOL    C7828286   1.179   2.543   0.652  0.1494  1.0947 -0.7197
  345MOL    O7928287   1.228   2.532   0.524 -0.3827  0.5337  0.1011
  345MOL    H8028288   1.258   2.588   0.713 -1.0236  0.8286  1.0179
  345MOL    H8128289   1.096   2.613   0.650 -2.3014 -1.7540 -2.5107
  345MOL    H8228290   1.321   2.516   0.526 -0.9576 -3.2641 -0.3858
  346MOL     C128291   5.245   5.688   1.895  1.3500  0.8598  0.0608
  346MOL     O228292   5.131   5.759   1.948 -0.4150 -0.7867 -0.3969
  346MOL     H328293   5.227   5.661   1.791 -0.0941 -0.4822  0.6388
  346MOL     H428294   5.342   5.736   1.907  2.6897 -1.7290 -0.3201
  346MOL     H528295   5.264   5.592   1.943 -0.3873 -0.3884 -1.6907
  346MOL     C628296   5.004   5.698   1.937  0.0904  0.2529  0.4103
  346MOL     O728297   4.979   5.660   1.806  0.5509  0.3544 -0.1174
  346MOL     H828298   4.928   5.764   1.980  0.0987  0.6417 -0.1627
  346MOL     H928299   4.998   5.606   1.995  0.9037 -0.2738 -0.3271
  346MOL    C1028300   4.929   5.768   1.731  0.5881  0.6322  0.2547
  346MOL    O1128301   4.804   5.802   1.771 -0.4323  0.0419 -0.3544
  346MOL    H1228302   4.924   5.736   1.626 -0.0748  2.2868 -0.2306
  346MOL    H1328303   4.996   5.854   1.736 -0.0644  1.2768 -1.6147
  346MOL    C1428304   4.707   5.705   1.742 -0.0161  0.0726 -0.1176
  346MOL    O1528305   4.694   5.679   1.605 -0.3218  0.1082 -0.3521
  346MOL    H1628306   4.611   5.734   1.786  0.6952  1.7722  0.3554
  346MOL    H1728307   4.738   5.614   1.793 -0.9724  1.1087  2.4258
  346MOL    C1828308   4.608   5.583   1.576 -0.2257  0.8692 -0.3944
  346MOL    O1928309   4.481   5.596   1.635  0.4216 -0.4087 -0.0637
  346MOL    H2028310   4.640   5.481   1.594 -1.7611 -0.0465 -2.5491
  346MOL    H2128311   4.600   5.577   1.467 -0.5496 -1.7161 -0.2600
  346MOL    C2228312   4.390   5.502   1.582 -0.1153 -0.4807  0.2254
  346MOL    O2328313   4.421   5.370   1.604 -0.0325 -0.8542  0.3616
  346MOL    H2428314   4.375   5.517   1.475 -0.2362  1.0441  0.4534
  346MOL    H2528315   4.292   5.516   1.627  0.2858  0.5998  0.7774
  346MOL    C2628316   4.372   5.316   1.724  0.2227 -0.2350  0.0105
  346MOL    O2728317   4.240   5.324   1.723  0.0350 -0.1843  0.0700
  346MOL    H2828318   4.408   5.381   1.803  0.5622  0.4484 -0.6958
  346MOL    H2928319   4.410   5.214   1.732  1.6981  0.4332  1.7633
  346MOL    C3028320   4.174   5.232   1.641 -0.1283 -0.3623  0.0379
  346MOL    O3128321   4.170   5.110   1.710  1.0225 -0.6238 -0.2095
  346MOL    H3228322   4.234   5.216   1.552  0.0976  1.4794 -0.1634
  346MOL    H3328323   4.073   5.266   1.618 -0.0817  0.0226  0.3938
  346MOL    C3428324   4.091   5.016   1.641  0.1234 -0.1380  0.0834
  346MOL    O3528325   3.957   5.025   1.683  0.5381 -0.2272 -0.8799
  346MOL    H3628326   4.137   4.922   1.672 -0.0895 -0.5753 -0.9272
  346MOL    H3728327   4.102   5.024   1.533  0.1967 -2.9428 -0.1605
  346MOL    C3828328   3.933   4.965   1.804 -0.1624 -0.2061  0.5880
  346MOL    O3928329   4.038   4.969   1.902  0.6068 -0.2581  0.3386
  346MOL    H4028330   3.910   4.859   1.789  2.4255 -0.7648  0.2994
  346MOL    H4128331   3.842   5.011   1.842 -0.2624 -0.6441  0.8881
  346MOL    C4228332   4.024   5.071   1.998 -0.0998 -0.3341  0.0705
  346MOL    O4328333   3.919   5.028   2.080 -0.1301 -0.3143  0.5343
  346MOL    H4428334   3.992   5.159   1.942  2.1487  0.1016 -0.5895
  346MOL    H4528335   4.122   5.100   2.036 -0.0084  0.1423 -0.5133
  346MOL    C4628336   3.954   4.949   2.191 -0.5927  0.1557 -0.3010
  346MOL    O4728337   4.034   5.022   2.281 -0.4216 -0.1450  0.0671
  346MOL    H4828338   4.012   4.868   2.147 -1.1180  0.1337 -0.9580
  346MOL    H4928339   3.863   4.908   2.234  0.9835 -3.1967 -0.0251
  346MOL    C5028340   3.970   5.131   2.333 -0.4063 -0.1404  0.7675
  346MOL    O5128341   4.047   5.184   2.439 -0.0199 -0.3483  0.7187
  346MOL    H5228342   3.875   5.092   2.369 -1.8452  2.4690 -0.0288
  346MOL    H5328343   3.942   5.210   2.263 -3.5821 -0.8250  1.1746
  346MOL    C5428344   4.061   5.095   2.546 -0.2526  0.1067  0.6254
  346MOL    O5528345   3.942   5.092   2.613 -0.0959 -0.1304  0.3828
  346MOL    H5628346   4.135   5.143   2.611 -1.2151  2.4142  0.0739
  346MOL    H5728347   4.101   4.999   2.512  0.1378  0.8156 -0.9841
  346MOL    C5828348   3.950   4.995   2.719  0.2166  0.0765 -0.3321
  346MOL    O5928349   3.968   4.871   2.668 -0.2484  0.2428 -0.4188
  346MOL    H6028350   3.852   4.998   2.767  1.6200  1.9835  2.5788
  346MOL    H6128351   4.029   5.014   2.791 -0.4636  2.8096 -0.2555
  346MOL    C6228352   3.860   4.821   2.596  0.4711 -0.3073  0.2497
  346MOL    O6328353   3.746   4.795   2.671  0.4926  0.2156  0.4132
  346MOL    H6428354   3.896   4.727   2.556  1.4397 -0.1793  0.7981
  346MOL    H6528355   3.835   4.887   2.513  0.6742  1.0576  1.2566
  346MOL    C6628356   3.771   4.705   2.774  0.5180 -0.0121  0.1714
  346MOL    O6728357   3.794   4.782   2.888 -0.7082  0.2837 -0.1897
  346MOL    H6828358   3.863   4.649   2.761  1.3511  0.8273  2.1760
  346MOL    H6928359   3.684   4.644   2.798 -1.0071  1.8221 -0.5273
  346MOL    C7028360   3.684   4.846   2.932  0.0816 -1.3245  0.2122
  346MOL    O7128361   3.610   4.766   3.021 -0.0467 -0.8168  0.0368
  346MOL    H7228362   3.617   4.884   2.855  0.1672  2.2132  1.8145
  346MOL    H7328363   3.731   4.928   2.986 -2.4003 -0.4633  1.1096
  346MOL    C7428364   3.485   4.818   3.052  1.0164 -0.7144  0.2026
  346MOL    O7528365   3.483   4.922   3.143 -0.1058  0.1163 -0.2050
  346MOL    H7628366   3.431   4.729   3.082 -3.0731  1.0731 -1.4897
  346MOL    H7728367   3.421   4.850   2.969  0.3740  0.4629  1.1367
  346MOL    C7828368   3.510   4.882   3.275  0.2034  0.1097  0.4177
  346MOL    O7928369   3.444   4.979   3.357 -0.2740  0.2564  0.4987
  346MOL    H8028370   3.618   4.872   3.282  0.0685 -0.2243  2.2439
  346MOL    H8128371   3.463   4.785   3.286  0.1153  0.3086  1.8088
  346MOL    H8228372   3.499   5.054   3.373 -1.3751  0.7857  1.8645
  347MOL     C128373   2.971   5.575   6.275  0.6251  0.3561  0.2630
  347MOL     O228374   3.076   5.498   6.333 -0.1563 -0.4649  0.5687
  347MOL     H328375   2.892   5.571   6.350  1.7250 -1.7036  1.3600
  347MOL     H428376   2.997   5.681   6.266 -0.5985  0.7575  1.2758
  347MOL     H528377   2.926   5.548   6.179  0.4051  1.2604  0.1029
  347MOL     C628378   3.194   5.490   6.267 -0.7454 -0.9786 -0.7091
  347MOL     O728379   3.274   5.402   6.326  0.0559  0.3925  0.7556
  347MOL     H828380   3.245   5.586   6.260 -1.1535 -0.6709  0.3580
  347MOL     H928381   3.185   5.445   6.168  0.2999  1.1760 -1.8135
  347MOL    C1028382   3.321   5.444   6.449 -0.0540 -0.3583  0.6549
  347MOL    O1128383   3.422   5.538   6.446  0.8898  0.0630 -0.5152
  347MOL    H1228384   3.348   5.354   6.506 -1.6203 -1.5149 -0.3988
  347MOL    H1328385   3.237   5.478   6.509 -0.1306 -0.8886  0.8516
  347MOL    C1428386   3.485   5.539   6.574 -0.3158  0.3668  0.4687
  347MOL    O1528387   3.581   5.438   6.567 -0.4016 -0.0540 -0.2422
  347MOL    H1628388   3.423   5.527   6.663 -0.4311 -2.2220  0.0669
  347MOL    H1728389   3.537   5.634   6.585  0.8391  0.2941 -3.5480
  347MOL    C1828390   3.695   5.464   6.488 -0.3113  0.2761 -0.1131
  347MOL    O1928391   3.793   5.537   6.563 -0.6207  0.0425  0.5144
  347MOL    H2028392   3.657   5.523   6.405 -1.0056  1.0724  0.7604
  347MOL    H2128393   3.741   5.373   6.448  0.9970 -0.7780  3.5176
  347MOL    C2228394   3.854   5.469   6.668  0.3786 -0.6138 -0.1626
  347MOL    O2328395   3.937   5.372   6.620 -0.3468  0.0481 -0.0769
  347MOL    H2428396   3.778   5.417   6.727 -0.2172  0.6789  0.2083
  347MOL    H2528397   3.909   5.547   6.720 -2.7272  2.1425 -0.8618
  347MOL    C2628398   4.026   5.330   6.720  0.0433  0.0417 -0.3910
  347MOL    O2728399   4.116   5.236   6.665 -0.4833  0.1652  0.0637
  347MOL    H2828400   3.973   5.294   6.808 -1.6492  1.1210 -0.9364
  347MOL    H2928401   4.083   5.411   6.766  1.8018 -0.9885 -0.6971
  347MOL    C3028402   4.235   5.306   6.631 -0.1105 -0.3609 -0.2617
  347MOL    O3128403   4.314   5.353   6.729  0.2860  0.1909 -0.9016
  347MOL    H3228404   4.208   5.387   6.563 -2.9234 -1.9287 -1.1105
  347MOL    H3328405   4.302   5.243   6.572 -0.1079  0.5636 -1.2520
  347MOL    C3428406   4.372   5.247   6.810  0.2931 -0.6767 -0.3086
  347MOL    O3528407   4.488   5.188   6.749  0.0072  1.0565 -0.2985
  347MOL    H3628408   4.297   5.175   6.841  0.7590 -0.5014  1.3058
  347MOL    H3728409   4.394   5.293   6.907  0.5895  0.8166 -1.0575
  347MOL    C3828410   4.593   5.281   6.728 -0.1282 -0.8377  0.4577
  347MOL    O3928411   4.698   5.207   6.676 -0.6091  0.0725 -0.5531
  347MOL    H4028412   4.617   5.317   6.828  0.9366 -2.4960  0.8116
  347MOL    H4128413   4.579   5.363   6.658  2.5360  0.6305  1.5797
  347MOL    C4228414   4.681   5.190   6.537 -0.4933 -0.2070 -0.1015
  347MOL    O4328415   4.733   5.296   6.459  0.4371 -0.6118 -0.0186
  347MOL    H4428416   4.576   5.177   6.512 -1.0651  1.1006  1.4972
  347MOL    H4528417   4.744   5.104   6.516  1.2110  1.2542 -1.1962
  347MOL    C4628418   4.872   5.307   6.474  0.7735  1.3065 -0.3766
  347MOL    O4728419   4.945   5.202   6.426  0.2271  0.2317  0.7777
  347MOL    H4828420   4.893   5.324   6.580 -0.4325  0.9253 -0.0688
  347MOL    H4928421   4.912   5.396   6.425  0.8952 -0.1404 -2.9882
  347MOL    C5028422   4.950   5.207   6.285  0.1421  0.3988  0.6157
  347MOL    O5128423   5.014   5.315   6.235  0.5980 -0.9412  0.2192
  347MOL    H5228424   4.850   5.213   6.243  0.5783 -0.0904 -0.4995
  347MOL    H5328425   4.984   5.111   6.247 -1.9596 -0.0989 -0.0745
  347MOL    C5428426   5.141   5.285   6.178 -0.1634 -0.0008 -0.7034
  347MOL    O5528427   5.232   5.253   6.277 -0.4537 -0.7801  0.1165
  347MOL    H5628428   5.169   5.379   6.129 -2.4950  2.0903  1.8111
  347MOL    H5728429   5.137   5.214   6.096  1.3414 -1.9519  0.8567
  347MOL    C5828430   5.284   5.358   6.352  0.9724 -0.0218 -0.5145
  347MOL    O5928431   5.359   5.452   6.281  0.1036 -0.1891  0.5960
  347MOL    H6028432   5.344   5.311   6.429 -0.9461  1.2528  1.8217
  347MOL    H6128433   5.206   5.406   6.411 -0.1565 -0.8660 -1.2839
  347MOL    C6228434   5.460   5.398   6.207 -0.3063 -0.4093  0.0912
  347MOL    O6328435   5.561   5.367   6.292  0.1425  0.0628  0.0599
  347MOL    H6428436   5.496   5.469   6.132 -0.5769 -1.0254 -0.6234
  347MOL    H6528437   5.425   5.309   6.155 -0.4864 -0.6028  0.5403
  347MOL    C6628438   5.671   5.316   6.227 -0.5739  0.5914 -0.6486
  347MOL    O6728439   5.732   5.408   6.144 -0.0986 -0.3596  0.1157
  347MOL    H6828440   5.636   5.224   6.182 -1.6105  1.5854 -1.9047
  347MOL    H6928441   5.741   5.306   6.310  0.2227 -3.7315 -1.7295
  347MOL    C7028442   5.870   5.370   6.115 -0.3960 -0.3149  0.4991
  347MOL    O7128443   5.940   5.399   6.227  0.0374  0.2517  0.2200
  347MOL    H7228444   5.909   5.432   6.035  0.5464 -0.0971  1.1251
  347MOL    H7328445   5.877   5.269   6.073  0.0985 -0.5563  1.1609
  347MOL    C7428446   6.069   5.347   6.224 -0.1629 -0.5270  0.2701
  347MOL    O7528447   6.066   5.202   6.233 -0.4188 -0.3680  0.3366
  347MOL    H7628448   6.118   5.387   6.313 -2.7911  0.3901  1.3524
  347MOL    H7728449   6.120   5.374   6.132 -1.9305 -1.0879 -0.8921
  347MOL    C7828450   6.017   5.156   6.355  1.0514  0.3839 -0.0765
  347MOL    O7928451   6.096   5.053   6.404  0.3842 -0.2372  0.1751
  347MOL    H8028452   5.915   5.119   6.343  2.2142 -2.8177 -0.5318
  347MOL    H8128453   6.014   5.237   6.429  0.4748  1.2202 -1.0086
  347MOL    H8228454   6.183   5.086   6.417  0.0497  1.7607 -2.1808
  348MOL     C128455   4.149   1.682   2.002  0.2817  0.0367 -0.2952
  348MOL     O228456   4.277   1.619   1.988  0.6681  0.5739 -0.3056
  348MOL     H328457   4.070   1.612   2.031  1.0970 -0.3044  1.1283
  348MOL     H428458   4.145   1.757   2.080  0.1398  0.1784 -0.4384
  348MOL     H528459   4.131   1.737   1.909 -0.0513 -1.9814 -1.4731
  348MOL     C628460   4.257   1.487   1.957 -0.3070 -0.3483 -0.2763
  348MOL     O728461   4.208   1.477   1.828 -0.4499 -0.2894  0.5356
  348MOL     H828462   4.186   1.436   2.022  0.8034 -1.1834  0.3075
  348MOL     H928463   4.347   1.426   1.958 -0.6904 -0.9214 -0.3377
  348MOL    C1028464   4.300   1.514   1.727  0.5270  0.0730  0.2755
  348MOL    O1128465   4.402   1.417   1.729  0.0863 -0.0828  0.1782
  348MOL    H1228466   4.328   1.619   1.742 -3.4332  1.0159  1.8173
  348MOL    H1328467   4.246   1.518   1.633  1.1089 -1.6550 -0.1536
  348MOL    C1428468   4.354   1.290   1.698 -0.2758  0.7376 -0.4673
  348MOL    O1528469   4.307   1.271   1.570 -0.1874 -0.0188  0.4838
  348MOL    H1628470   4.274   1.254   1.763  1.0316 -0.1975  0.6607
  348MOL    H1728471   4.434   1.219   1.720 -2.6522 -2.1862 -0.9991
  348MOL    C1828472   4.410   1.292   1.473  0.8418 -0.2613 -0.0695
  348MOL    O1928473   4.347   1.306   1.349 -0.3959 -0.0461  0.0080
  348MOL    H2028474   4.472   1.202   1.474  0.6835 -0.4412 -2.3824
  348MOL    H2128475   4.471   1.379   1.495 -1.3051  1.0422  0.7634
  348MOL    C2228476   4.266   1.416   1.339  0.2154  0.1238  0.0700
  348MOL    O2328477   4.323   1.535   1.386  0.6275  0.3747  0.3365
  348MOL    H2428478   4.184   1.389   1.406  1.5707 -2.2928  0.7964
  348MOL    H2528479   4.230   1.433   1.238 -0.5510 -0.2640  0.2734
  348MOL    C2628480   4.429   1.582   1.307  0.2468 -0.8520 -1.0728
  348MOL    O2728481   4.373   1.650   1.194  0.1719  0.1535 -0.2828
  348MOL    H2828482   4.498   1.506   1.270  0.6523 -0.7210 -0.5953
  348MOL    H2928483   4.495   1.647   1.365  0.1055 -2.6833  1.1941
  348MOL    C3028484   4.457   1.736   1.126  0.1841 -0.2117 -0.5436
  348MOL    O3128485   4.510   1.831   1.221 -0.3192 -0.4608  0.1818
  348MOL    H3228486   4.406   1.782   1.041  1.2163  0.2660 -0.9083
  348MOL    H3328487   4.541   1.679   1.088  0.8642 -0.1308  0.8397
  348MOL    C3428488   4.409   1.919   1.264 -0.1104 -0.1343  0.2311
  348MOL    O3528489   4.374   2.007   1.163  0.3560  0.5232  0.3204
  348MOL    H3628490   4.444   1.965   1.356  1.3292  0.7899 -0.7514
  348MOL    H3728491   4.320   1.861   1.288  0.8705 -0.8051  2.2902
  348MOL    C3828492   4.479   2.102   1.139  0.1611  0.7479 -0.2231
  348MOL    O3928493   4.513   2.172   1.250 -0.0405 -0.1613 -0.3921
  348MOL    H4028494   4.440   2.167   1.061 -1.4280 -0.5544 -0.5446
  348MOL    H4128495   4.564   2.047   1.100 -0.8241 -0.9560 -0.0073
  348MOL    C4228496   4.411   2.253   1.292 -0.0994 -1.0359  0.4421
  348MOL    O4328497   4.371   2.354   1.200  0.1979 -0.4439  0.4183
  348MOL    H4428498   4.441   2.300   1.386 -1.4048 -0.1326  0.4272
  348MOL    H4528499   4.325   2.186   1.299  0.8018 -2.2868 -0.3628
  348MOL    C4628500   4.464   2.456   1.191 -0.4156  0.2649 -0.5396
  348MOL    O4728501   4.465   2.528   1.312 -0.2679  0.2035 -0.6810
  348MOL    H4828502   4.422   2.520   1.114 -0.9939 -0.9562 -1.2554
  348MOL    H4928503   4.558   2.404   1.178 -0.5972 -0.7370  1.8307
  348MOL    C5028504   4.573   2.607   1.319 -0.5001 -0.5308 -0.3332
  348MOL    O5128505   4.696   2.536   1.317  0.4068  0.0671  1.3717
  348MOL    H5228506   4.566   2.686   1.394  0.8661  1.2377 -1.9934
  348MOL    H5328507   4.566   2.666   1.227 -1.4834 -1.3851 -0.8196
  348MOL    C5428508   4.718   2.473   1.438 -0.5995  1.3913 -0.0917
  348MOL    O5528509   4.750   2.562   1.539 -0.2215 -0.0813  0.2451
  348MOL    H5628510   4.788   2.389   1.440  0.0334  1.9224  2.8505
  348MOL    H5728511   4.624   2.426   1.464  0.2330  1.3998  3.1556
  348MOL    C5828512   4.877   2.617   1.524  0.2124 -0.7969  0.1785
  348MOL    O5928513   4.889   2.757   1.540 -0.2517 -0.6470 -0.1198
  348MOL    H6028514   4.925   2.590   1.430 -2.4737 -0.5474 -1.2904
  348MOL    H6128515   4.941   2.571   1.600 -2.5661 -3.5169  0.9756
  348MOL    C6228516   4.868   2.818   1.411 -0.2675  0.3447  0.0527
  348MOL    O6328517   4.884   2.958   1.418  0.1298 -0.4790 -0.0037
  348MOL    H6428518   4.771   2.790   1.369  2.0428 -2.6632 -3.6554
  348MOL    H6528519   4.943   2.789   1.337 -2.0609  0.3978 -1.8514
  348MOL    C6628520   5.014   2.997   1.443 -0.2548 -0.5804  0.4070
  348MOL    O6728521   5.094   2.979   1.328  0.1425 -0.0836  0.2512
  348MOL    H6828522   5.060   2.957   1.534  1.3858  0.3371  0.0146
  348MOL    H6928523   5.001   3.105   1.455  0.3468 -0.5261  0.6066
  348MOL    C7028524   5.196   3.070   1.298  0.6554 -0.3470 -0.0216
  348MOL    O7128525   5.320   3.037   1.340 -0.1213 -0.5123 -0.6268
  348MOL    H7228526   5.183   3.168   1.344 -0.3334 -0.2810 -0.4343
  348MOL    H7328527   5.208   3.084   1.190 -0.6364  0.1941 -0.1022
  348MOL    C7428528   5.374   2.922   1.279 -0.4456  0.2956  0.3678
  348MOL    O7528529   5.386   2.952   1.142 -0.2620  0.0573  0.5047
  348MOL    H7628530   5.297   2.846   1.295 -1.8497  1.6204  0.0125
  348MOL    H7728531   5.472   2.896   1.319  0.0893  1.0498 -0.4263
  348MOL    C7828532   5.496   3.030   1.115 -0.3156 -0.3487 -0.4191
  348MOL    O7928533   5.507   3.057   0.982 -0.0149  0.0270  0.4947
  348MOL    H8028534   5.588   2.991   1.158 -1.0657 -0.2932  1.2882
  348MOL    H8128535   5.491   3.130   1.160  1.1853 -0.2971 -0.3155
  348MOL    H8228536   5.564   2.996   0.938  1.2791  1.4682  0.1283
  349MOL     C128537   5.389   4.460   4.283 -0.0468  0.0853 -0.2672
  349MOL     O228538   5.269   4.498   4.227  0.0825 -0.1540 -0.1203
  349MOL     H328539   5.393   4.356   4.316 -0.1561  0.1897  0.0796
  349MOL     H428540   5.475   4.466   4.216  1.3683  3.8101  1.7542
  349MOL     H528541   5.424   4.521   4.366  1.1254  0.2392 -0.8592
  349MOL     C628542   5.208   4.399   4.145 -0.2496 -0.0442 -0.1827
  349MOL     O728543   5.282   4.365   4.033  0.7941 -0.3434  0.5813
  349MOL     H828544   5.107   4.433   4.122 -0.0175  1.7094  1.3033
  349MOL     H928545   5.209   4.311   4.209 -0.6725  1.5443  2.1002
  349MOL    C1028546   5.294   4.474   3.944  0.4190  1.1358 -0.7347
  349MOL    O1128547   5.358   4.427   3.827  0.2970 -0.2479  0.1519
  349MOL    H1228548   5.356   4.551   3.990 -0.3020  0.6907  1.0441
  349MOL    H1328549   5.193   4.514   3.930 -0.7214 -1.1431  0.7074
  349MOL    C1428550   5.262   4.393   3.721 -1.0843 -0.1034 -0.8048
  349MOL    O1528551   5.216   4.516   3.658  0.0241 -0.3945 -0.1551
  349MOL    H1628552   5.176   4.333   3.748  0.5239 -1.1128  2.3546
  349MOL    H1728553   5.311   4.325   3.653 -0.9366 -1.8428  0.9993
  349MOL    C1828554   5.324   4.582   3.586  0.3997 -0.1162 -0.1600
  349MOL    O1928555   5.341   4.516   3.464 -0.2219 -0.3518  0.3968
  349MOL    H2028556   5.418   4.566   3.640 -0.9008  1.2113  2.6194
  349MOL    H2128557   5.318   4.690   3.579  0.8364 -0.1651 -1.3042
  349MOL    C2228558   5.239   4.554   3.380  0.3115 -0.0860 -0.6709
  349MOL    O2328559   5.247   4.685   3.339 -0.4367  0.1994  0.6898
  349MOL    H2428560   5.144   4.540   3.432 -0.6116  1.6082 -1.8295
  349MOL    H2528561   5.230   4.496   3.288 -0.4547 -2.9860  1.1593
  349MOL    C2628562   5.365   4.721   3.263  0.1728 -0.8693 -0.4269
  349MOL    O2728563   5.367   4.686   3.132  0.1407  0.0195  0.5134
  349MOL    H2828564   5.456   4.680   3.307  0.1836 -0.5295 -0.1301
  349MOL    H2928565   5.377   4.829   3.262  0.6919 -0.8754  1.7828
  349MOL    C3028566   5.275   4.751   3.052 -0.4733  0.3418 -0.6452
  349MOL    O3128567   5.295   4.889   3.050 -0.2554 -0.9559 -0.4785
  349MOL    H3228568   5.175   4.725   3.089  0.8306 -0.6151  2.3563
  349MOL    H3328569   5.278   4.719   2.948 -1.6613  1.6917 -1.1182
  349MOL    C3428570   5.363   4.937   2.941 -0.1945 -0.3309  0.1199
  349MOL    O3528571   5.292   4.921   2.824  0.2958  0.6719  0.0902
  349MOL    H3628572   5.456   4.880   2.938 -0.0386 -0.1337  1.1615
  349MOL    H3728573   5.387   5.042   2.958  1.9962 -0.8041  0.1824
  349MOL    C3828574   5.183   5.009   2.808 -0.1626 -0.2522  0.1576
  349MOL    O3928575   5.126   5.002   2.683 -0.5865  0.2293  0.5004
  349MOL    H4028576   5.225   5.110   2.812 -1.1962  0.2868 -1.6695
  349MOL    H4128577   5.096   5.017   2.874 -0.9778  1.7434 -1.0823
  349MOL    C4228578   5.222   5.025   2.578 -0.2574 -0.3203  0.0359
  349MOL    O4328579   5.263   5.158   2.577 -0.4785 -0.3747 -0.1081
  349MOL    H4428580   5.169   4.986   2.491 -0.4165  0.2417 -0.1205
  349MOL    H4528581   5.310   4.964   2.598  0.1351  0.5584  1.1010
  349MOL    C4628582   5.175   5.238   2.509 -0.2702  0.1668  0.8091
  349MOL    O4728583   5.242   5.356   2.468 -0.1125 -0.5351 -0.3591
  349MOL    H4828584   5.080   5.253   2.559  0.3101  0.5498  1.8103
  349MOL    H4928585   5.153   5.206   2.407  1.1257  0.4366  0.4096
  349MOL    C5028586   5.260   5.450   2.568 -0.1828 -0.7520  0.1118
  349MOL    O5128587   5.180   5.559   2.549  1.1465  0.3258  0.0069
  349MOL    H5228588   5.362   5.488   2.559 -0.1591 -0.8093  0.1328
  349MOL    H5328589   5.256   5.406   2.668  0.7440 -1.2910 -0.0825
  349MOL    C5428590   5.194   5.662   2.647 -0.5563 -0.2932 -0.1034
  349MOL    O5528591   5.176   5.612   2.780 -0.1477 -0.1572  0.7974
  349MOL    H5628592   5.129   5.744   2.615  0.5267  0.9435  0.8288
  349MOL    H5728593   5.299   5.690   2.642 -0.2439 -1.5799 -1.1340
  349MOL    C5828594   5.041   5.594   2.814 -0.0159 -0.2026 -0.2534
  349MOL    O5928595   4.971   5.718   2.814 -0.2158  0.1875 -0.1803
  349MOL    H6028596   5.039   5.547   2.912 -0.6277  1.3287  0.4889
  349MOL    H6128597   4.997   5.529   2.739  1.3958  0.1340 -1.3940
  349MOL    C6228598   4.836   5.694   2.835 -0.8410 -0.2582 -0.0694
  349MOL    O6328599   4.778   5.639   2.716 -0.1623 -0.6925  0.0557
  349MOL    H6428600   4.773   5.777   2.866 -0.2855  0.4448 -0.7881
  349MOL    H6528601   4.825   5.623   2.918  1.0838  1.3449  1.6102
  349MOL    C6628602   4.758   5.732   2.621 -0.2519  0.4124 -0.1747
  349MOL    O6728603   4.641   5.811   2.635  0.4662  0.0121 -0.2793
  349MOL    H6828604   4.751   5.676   2.528 -0.1837  0.9412 -0.5002
  349MOL    H6928605   4.844   5.799   2.625  1.3186 -1.6634  4.3179
  349MOL    C7028606   4.529   5.734   2.602 -0.1577  0.4301 -0.1739
  349MOL    O7128607   4.495   5.756   2.473  0.6000 -0.2413 -0.5296
  349MOL    H7228608   4.451   5.761   2.674 -1.0659  1.2148 -1.4283
  349MOL    H7328609   4.546   5.628   2.621 -1.9535 -0.0671 -1.2340
  349MOL    C7428610   4.426   5.872   2.450  0.1038 -0.1534  0.1849
  349MOL    O7528611   4.290   5.870   2.489 -0.2582 -0.4528 -0.4838
  349MOL    H7628612   4.442   5.900   2.346  0.0683  0.2192  0.2767
  349MOL    H7728613   4.472   5.957   2.500  1.4092  0.1400 -1.4522
  349MOL    C7828614   4.209   5.770   2.444  0.2581  1.1009  0.1371
  349MOL    O7928615   4.068   5.794   2.467 -0.0184 -0.0318  0.4745
  349MOL    H8028616   4.236   5.674   2.489 -1.7274 -0.4958 -1.9017
  349MOL    H8128617   4.226   5.755   2.337  0.2992  0.0334  0.2867
  349MOL    H8228618   4.028   5.721   2.511 -2.4675  1.8846  1.4994
  350MOL     C128619   4.038   0.753   3.938  0.0448 -0.5384 -0.0875
  350MOL     O228620   4.103   0.666   3.848 -0.1159  0.4682  0.5479
  350MOL     H328621   3.937   0.717   3.957 -0.0844  0.5640  1.3974
  350MOL     H428622   4.087   0.763   4.035 -0.8281 -0.7360  0.3797
  350MOL     H528623   4.013   0.854   3.906 -0.0797 -0.0637  1.4700
  350MOL     C628624   4.221   0.709   3.793  0.2539  0.2277 -0.5347
  350MOL     O728625   4.205   0.811   3.699 -0.3504  0.2579  0.3293
  350MOL     H828626   4.290   0.636   3.752 -0.0828 -0.4296  0.0586
  350MOL     H928627   4.280   0.757   3.870  3.1686 -1.4155 -1.6632
  350MOL    C1028628   4.143   0.767   3.585 -0.4752  0.1261 -0.0597
  350MOL    O1128629   4.240   0.690   3.511  0.0196 -0.2241  0.4408
  350MOL    H1228630   4.113   0.853   3.525  1.1206 -0.6311 -1.9752
  350MOL    H1328631   4.049   0.721   3.614 -1.6688  1.1207 -2.2192
  350MOL    C1428632   4.181   0.652   3.390 -0.2928 -0.1634  0.3914
  350MOL    O1528633   4.080   0.564   3.414 -0.6830 -0.3711 -0.1622
  350MOL    H1628634   4.255   0.601   3.328 -0.7025  0.1458 -0.3608
  350MOL    H1728635   4.145   0.744   3.344 -0.6737 -1.0320 -1.1097
  350MOL    C1828636   4.130   0.436   3.451  0.1222 -0.1866  0.3004
  350MOL    O1928637   4.014   0.360   3.471  0.5195 -0.0776 -0.1355
  350MOL    H2028638   4.182   0.451   3.545 -0.2720 -1.0426  0.6640
  350MOL    H2128639   4.193   0.395   3.372  0.3924 -1.1741  1.0242
  350MOL    C2228640   3.969   0.368   3.602 -0.2995  0.4938  0.3477
  350MOL    O2328641   4.038   0.283   3.686 -0.2831 -0.2367  0.2141
  350MOL    H2428642   3.863   0.343   3.600  0.2458 -2.0784  1.0401
  350MOL    H2528643   3.978   0.472   3.634 -1.3204  0.9920 -0.9504
  350MOL    C2628644   4.029   0.145   3.649  0.6741 -0.4624 -0.5609
  350MOL    O2728645   3.899   0.094   3.630  0.2008 -0.2204 -0.5277
  350MOL    H2828646   4.086   0.086   3.721  0.6015  0.1789  0.0289
  350MOL    H2928647   4.077   0.129   3.553 -1.2166 -0.5226 -1.5120
  350MOL    C3028648   3.840   0.083   3.757 -0.3823 -0.0022  0.2698
  350MOL    O3128649   3.912   7.772   3.834 -0.1712 -0.3806 -0.6089
  350MOL    H3228650   3.736   0.056   3.744 -0.1956 -0.9007  0.5908
  350MOL    H3328651   3.851   0.176   3.812  0.8701 -0.6443  1.1280
  350MOL    C3428652   3.861   7.747   3.957  0.2550  0.3454 -0.2436
  350MOL    O3528653   3.726   7.708   3.944 -0.0281  0.0741 -0.8098
  350MOL    H3628654   3.860   0.055   4.016  1.7854  1.0420 -1.2790
  350MOL    H3728655   3.922   7.677   4.014 -1.1618 -1.1354 -0.4924
  350MOL    C3828656   3.658   7.689   4.064  0.1689  0.4145  0.4734
  350MOL    O3928657   3.699   7.570   4.125 -0.0070 -0.6314  0.0804
  350MOL    H4028658   3.549   7.692   4.053  0.1885  0.8174  0.3963
  350MOL    H4128659   3.675   7.773   4.130  1.5680  0.2818  0.2965
  350MOL    C4228660   3.625   7.463   4.074 -0.4686 -0.2174  0.2173
  350MOL    O4328661   3.493   7.463   4.124 -0.0859  0.0276 -0.2636
  350MOL    H4428662   3.676   7.370   4.099 -1.7291 -0.3667  2.3668
  350MOL    H4528663   3.614   7.482   3.968 -0.5720 -2.0076 -0.1020
  350MOL    C4628664   3.489   7.398   4.246 -0.0894  0.3007  0.2758
  350MOL    O4728665   3.383   7.425   4.334 -0.1173 -0.1013  0.0910
  350MOL    H4828666   3.582   7.402   4.302 -0.7241 -1.1529  1.4865
  350MOL    H4928667   3.479   7.294   4.215  0.8837 -0.0522  1.1644
  350MOL    C5028668   3.383   7.552   4.374 -0.2244 -0.3585 -0.1076
  350MOL    O5128669   3.258   7.594   4.426  0.1457 -0.4172  0.7621
  350MOL    H5228670   3.409   7.617   4.291 -1.1967  0.2217  0.0385
  350MOL    H5328671   3.462   7.561   4.449  0.3876  1.9476 -0.9801
  350MOL    C5428672   3.234   7.544   4.551 -0.5091 -0.8155  0.4070
  350MOL    O5528673   3.169   7.640   4.625  0.3034  0.0548 -0.0010
  350MOL    H5628674   3.328   7.534   4.604  0.4370  1.1515 -0.8577
  350MOL    H5728675   3.183   7.447   4.555 -1.5511 -0.3238 -0.6229
  350MOL    C5828676   3.029   7.633   4.613 -0.4211 -0.0086  0.3435
  350MOL    O5928677   2.985   7.525   4.691 -0.4910  0.1300 -0.3421
  350MOL    H6028678   3.009   7.634   4.505 -1.0765 -0.9838  0.4508
  350MOL    H6128679   2.985   7.722   4.657  0.9006  0.7895  0.0928
  350MOL    C6228680   2.852   7.521   4.725  0.3212  0.0699 -0.2878
  350MOL    O6328681   2.767   7.526   4.612  0.9747  0.6589 -0.0257
  350MOL    H6428682   2.823   7.610   4.782  0.5950  0.2491 -0.4309
  350MOL    H6528683   2.843   7.429   4.783 -1.0337  0.9118  0.8948
  350MOL    C6628684   2.746   7.407   4.549  0.1618 -0.2596 -0.0648
  350MOL    O6728685   2.704   7.301   4.634 -0.2888  0.1380  0.2388
  350MOL    H6828686   2.836   7.384   4.491  1.0656 -0.6873  1.4729
  350MOL    H6928687   2.674   7.423   4.469 -0.0682  1.3066  0.4410
  350MOL    C7028688   2.567   7.293   4.669 -0.5300  0.2615 -0.5751
  350MOL    O7128689   2.501   7.239   4.557  0.6781 -0.2830 -0.5199
  350MOL    H7228690   2.527   7.393   4.685 -1.3427 -0.3662  1.4509
  350MOL    H7328691   2.568   7.225   4.755  2.0479  0.9929  0.0302
  350MOL    C7428692   2.364   7.209   4.591 -0.0350  0.0566 -0.4588
  350MOL    O7528693   2.277   7.313   4.592  1.0963 -0.5235  0.3113
  350MOL    H7628694   2.365   7.159   4.688  2.6691 -0.2209 -0.5788
  350MOL    H7728695   2.329   7.129   4.525  3.3163 -0.9304 -1.1517
  350MOL    C7828696   2.257   7.364   4.462 -0.7804 -0.2167 -0.0101
  350MOL    O7928697   2.356   7.462   4.435 -0.3610  0.3452 -0.0248
  350MOL    H8028698   2.172   7.431   4.453 -1.8109 -1.7310 -1.9664
  350MOL    H8128699   2.252   7.288   4.383 -0.1882  0.2950 -0.5378
  350MOL    H8228700   2.438   7.416   4.423 -0.1392  0.2507  1.7033
  351MOL     C128701   0.360   6.972   7.179 -0.3837  0.2020 -0.5811
  351MOL     O228702   0.379   7.030   7.054 -0.5233  0.0243  0.2285
  351MOL     H328703   0.269   6.913   7.179 -0.0424 -0.3285 -0.2820
  351MOL     H428704   0.441   6.904   7.205 -0.7249 -0.5703 -1.5544
  351MOL     H528705   0.352   7.043   7.262 -0.2378 -1.1493  0.6133
  351MOL     C628706   0.289   7.123   7.007 -0.2574  0.0542  0.6226
  351MOL     O728707   0.298   7.242   7.079 -0.1760 -0.1747 -0.4923
  351MOL     H828708   0.192   7.075   7.022  0.0282 -1.2878 -1.5791
  351MOL     H928709   0.307   7.146   6.902 -2.7074  2.3249  0.6452
  351MOL    C1028710   0.415   7.309   7.058 -0.1227  0.3593 -0.3697
  351MOL    O1128711   0.428   7.337   6.927 -0.2937  0.3702 -0.2479
  351MOL    H1228712   0.500   7.251   7.091 -0.4117  1.2308  2.0132
  351MOL    H1328713   0.400   7.401   7.114  0.1385 -0.6167  1.3267
  351MOL    C1428714   0.532   7.423   6.897 -0.3840 -0.7378  0.1919
  351MOL    O1528715   0.508   7.547   6.955 -0.7965 -0.1055 -0.0538
  351MOL    H1628716   0.557   7.427   6.791 -1.5381  2.3957 -0.0014
  351MOL    H1728717   0.624   7.385   6.943 -1.5635  0.8827  4.0630
  351MOL    C1828718   0.448   7.640   6.873 -0.1700  0.4299 -0.4269
  351MOL    O1928719   0.474   7.767   6.926  0.2246  0.1481  0.0411
  351MOL    H2028720   0.341   7.622   6.863 -0.3108  0.9584  0.1117
  351MOL    H2128721   0.498   7.641   6.776 -0.7046  1.6586 -0.6949
  351MOL    C2228722   0.408   0.018   7.044  0.7634 -0.2498 -0.5985
  351MOL    O2328723   0.265   7.776   7.038 -0.1263  0.2960  0.2429
  351MOL    H2428724   0.426   0.123   7.064  1.5478 -0.5700  0.4419
  351MOL    H2528725   0.451   7.742   7.125  0.1104 -1.4385 -1.1213
  351MOL    C2628726   0.197   0.096   6.984  0.8095  0.3099 -0.1208
  351MOL    O2728727   0.140   0.172   7.080 -0.5143  0.6880 -0.3248
  351MOL    H2828728   0.116   0.040   6.937  1.1131  0.5873 -0.9838
  351MOL    H2928729   0.239   0.153   6.901  2.5936 -0.8080 -0.0230
  351MOL    C3028730   0.183   0.307   7.095 -0.1899 -0.5364  0.4440
  351MOL    O3128731   0.148   0.387   6.986  0.0167  0.1358 -0.2545
  351MOL    H3228732   0.290   0.305   7.114 -0.1084 -1.1566 -0.0595
  351MOL    H3328733   0.141   0.355   7.184 -2.2056 -1.0224 -0.2112
  351MOL    C3428734   0.013   0.416   6.983 -0.8339  0.1983 -0.0706
  351MOL    O3528735   7.753   0.477   6.873 -0.0844  0.0602  0.1301
  351MOL    H3628736   7.760   0.482   7.062  0.2370  1.4719 -0.6316
  351MOL    H3728737   7.737   0.324   6.987  0.5722 -0.7164  0.1708
  351MOL    C3828738   7.762   0.618   6.873  0.9800 -0.2047 -0.3446
  351MOL    O3928739   0.104   0.656   6.888  0.2439  0.0644 -0.0681
  351MOL    H4028740   7.692   0.668   6.941  0.1986 -0.2227 -1.1236
  351MOL    H4128741   7.725   0.648   6.775 -0.2150  2.2455  0.8089
  351MOL    C4228742   0.188   0.619   6.784 -0.6328  0.2167 -0.1398
  351MOL    O4328743   0.174   0.705   6.678  0.1679 -0.7016  0.4028
  351MOL    H4428744   0.163   0.518   6.751 -1.7842  0.3784  0.2243
  351MOL    H4528745   0.292   0.623   6.817 -0.9349  2.2158  0.5950
  351MOL    C4628746   0.251   0.821   6.671  0.2211  0.3309  0.5141
  351MOL    O4728747   0.382   0.801   6.629 -0.1835  0.2149  0.1047
  351MOL    H4828748   0.252   0.870   6.768 -1.4085 -1.7201  1.5957
  351MOL    H4928749   0.204   0.879   6.592  1.3736  0.9282  0.2556
  351MOL    C5028750   0.395   0.736   6.508  0.0931 -0.4308  0.3538
  351MOL    O5128751   0.378   0.825   6.402  0.2495 -0.5644  0.0662
  351MOL    H5228752   0.325   0.653   6.496 -0.2759 -0.4493  2.4968
  351MOL    H5328753   0.494   0.691   6.502  0.4715  0.6515 -1.8107
  351MOL    C5428754   0.493   0.894   6.367 -0.4098  0.2681 -0.3299
  351MOL    O5528755   0.573   0.814   6.298  0.1881  0.1615 -0.4074
  351MOL    H5628756   0.555   0.918   6.453  0.5395  2.1650 -1.5106
  351MOL    H5728757   0.467   0.988   6.317 -2.2234 -0.1295 -0.1661
  351MOL    C5828758   0.531   0.787   6.166  0.1328 -0.1197  0.1837
  351MOL    O5928759   0.551   0.898   6.080 -0.1201 -0.1488  0.1726
  351MOL    H6028760   0.427   0.759   6.153  0.2949 -0.1599 -1.0872
  351MOL    H6128761   0.585   0.702   6.127 -1.7394 -1.4700  0.4644
  351MOL    C6228762   0.687   0.918   6.045  1.2511  0.1150 -0.3043
  351MOL    O6328763   0.757   0.972   6.146 -0.4234  0.3442  0.6285
  351MOL    H6428764   0.683   0.989   5.962 -1.1004  1.2753  0.7329
  351MOL    H6528765   0.733   0.825   6.012  0.5745 -1.5571  3.2322
  351MOL    C6628766   0.721   1.104   6.168  0.1762 -0.3927  0.4745
  351MOL    O6728767   0.759   1.155   6.292  0.7115  0.0550 -0.1206
  351MOL    H6828768   0.613   1.099   6.185 -0.2652  2.8189 -0.9763
  351MOL    H6928769   0.729   1.167   6.079  1.2161 -0.4045  0.5524
  351MOL    C7028770   0.893   1.184   6.306 -0.2045  0.8301  0.1927
  351MOL    O7128771   0.912   1.315   6.354 -0.1226  0.8070  0.6053
  351MOL    H7228772   0.949   1.169   6.214 -0.8576  1.0473 -0.2387
  351MOL    H7328773   0.941   1.116   6.377 -0.5157  0.1981 -0.2011
  351MOL    C7428774   0.894   1.320   6.492  0.0105  0.2717  0.4774
  351MOL    O7528775   0.993   1.256   6.561 -0.3918 -0.0257 -0.1619
  351MOL    H7628776   0.796   1.278   6.514  0.6107 -1.7562 -0.6615
  351MOL    H7728777   0.906   1.425   6.520 -0.9146  0.9409 -1.5295
  351MOL    C7828778   1.122   1.307   6.540  0.6647  0.1761  0.7333
  351MOL    O7928779   1.220   1.216   6.581  0.1728 -0.0281 -0.0621
  351MOL    H8028780   1.136   1.405   6.585 -0.9687 -0.0199  1.6811
  351MOL    H8128781   1.141   1.311   6.432  0.4319  0.1890  0.6926
  351MOL    H8228782   1.200   1.132   6.542 -1.3319  0.2890 -0.0023
  352MOL     C128783   2.094   3.065   1.264 -0.0488  0.1688 -0.1694
  352MOL     O228784   2.200   3.087   1.356  0.0886 -0.0917 -0.4273
  352MOL     H328785   2.144   3.014   1.182  1.0860  0.5127  0.2917
  352MOL     H428786   2.020   2.998   1.309 -1.8514  1.0869 -1.6705
  352MOL     H528787   2.041   3.153   1.228 -0.3345  0.5702  1.2199
  352MOL     C628788   2.233   2.979   1.436  0.3496  0.0238  0.0714
  352MOL     O728789   2.322   2.891   1.370 -0.1126 -0.2681 -0.3488
  352MOL     H828790   2.142   2.932   1.473  0.5661  0.9303  1.7998
  352MOL     H928791   2.279   3.017   1.527  0.8118  0.5148 -0.3668
  352MOL    C1028792   2.452   2.945   1.361 -0.0723  0.2428  0.1858
  352MOL    O1128793   2.522   2.945   1.481  0.4278 -0.0831  0.0318
  352MOL    H1228794   2.442   3.047   1.325 -0.5660  0.4669  0.9417
  352MOL    H1328795   2.518   2.891   1.293  1.1842 -0.1195  1.6686
  352MOL    C1428796   2.576   2.821   1.515 -0.0466  0.0070  0.2873
  352MOL    O1528797   2.693   2.783   1.446  0.4634  0.0173  0.1692
  352MOL    H1628798   2.505   2.739   1.503 -1.3790  1.1390  0.2665
  352MOL    H1728799   2.590   2.813   1.623 -1.9247 -0.3280  0.5296
  352MOL    C1828800   2.808   2.837   1.506  0.0663  0.1497  0.8499
  352MOL    O1928801   2.810   2.979   1.502  0.0306 -0.2207  0.0785
  352MOL    H2028802   2.892   2.790   1.455 -0.2968  1.7308 -1.2388
  352MOL    H2128803   2.822   2.793   1.605 -3.3482  1.2116  1.8882
  352MOL    C2228804   2.811   3.021   1.371  1.1958 -0.3761 -0.5363
  352MOL    O2328805   2.936   3.009   1.322  0.5616  0.2483  0.4209
  352MOL    H2428806   2.797   3.129   1.378  3.0377 -0.2324  1.4490
  352MOL    H2528807   2.741   2.967   1.308  1.1085 -0.6925 -0.1648
  352MOL    C2628808   3.027   3.088   1.384 -0.1377  0.1939 -0.1222
  352MOL    O2728809   3.003   3.223   1.374  0.3532 -0.6053  0.5665
  352MOL    H2828810   3.132   3.079   1.359 -0.2335  1.2176 -0.9174
  352MOL    H2928811   3.028   3.066   1.491  2.2808 -0.8179 -0.3190
  352MOL    C3028812   3.103   3.307   1.425  0.3277  0.2858 -0.0278
  352MOL    O3128813   3.137   3.281   1.553 -0.4498  0.5081  0.6590
  352MOL    H3228814   3.050   3.400   1.404 -1.0877 -0.4385  0.2830
  352MOL    H3328815   3.195   3.300   1.367  0.0443 -2.6997 -0.1871
  352MOL    C3428816   3.030   3.294   1.644  0.8541 -0.1918 -0.2698
  352MOL    O3528817   2.994   3.425   1.671 -0.4610 -0.1417  0.1287
  352MOL    H3628818   3.066   3.244   1.733  2.1728  0.7167 -0.2736
  352MOL    H3728819   2.941   3.238   1.617 -1.0444  1.8936  1.4755
  352MOL    C3828820   3.092   3.498   1.727 -0.6127 -0.6304 -1.2833
  352MOL    O3928821   3.139   3.455   1.851  0.0856  0.1592  0.1374
  352MOL    H4028822   3.064   3.603   1.734  1.5385  0.0578 -2.4588
  352MOL    H4128823   3.178   3.507   1.659  0.1387  1.0122 -0.1490
  352MOL    C4228824   3.046   3.475   1.954 -0.8148  0.0096 -0.5329
  352MOL    O4328825   3.073   3.395   2.068  0.5270 -0.8259 -0.3695
  352MOL    H4428826   2.945   3.455   1.918 -0.7070 -0.6997 -0.4353
  352MOL    H4528827   3.045   3.577   1.995 -0.0395 -0.5500  0.9147
  352MOL    C4628828   3.194   3.420   2.134  0.5568  0.1880  0.4258
  352MOL    O4728829   3.192   3.542   2.203 -0.5279 -0.6906  0.1951
  352MOL    H4828830   3.276   3.411   2.063  0.8111  0.7440  0.6470
  352MOL    H4928831   3.219   3.339   2.202  1.6367  0.4213  0.3157
  352MOL    C5028832   3.144   3.532   2.330  0.2121 -1.0806  0.0435
  352MOL    O5128833   3.217   3.459   2.416 -0.1007 -0.1530  0.4241
  352MOL    H5228834   3.054   3.470   2.328 -0.1836 -0.5218  0.2727
  352MOL    H5328835   3.110   3.630   2.365 -0.2072 -1.0281 -0.5091
  352MOL    C5428836   3.301   3.537   2.497  0.4639  0.0912 -0.2142
  352MOL    O5528837   3.232   3.627   2.576 -0.6537 -0.0497  0.1587
  352MOL    H5628838   3.376   3.590   2.439 -0.1233 -0.2952 -1.3515
  352MOL    H5728839   3.367   3.480   2.562 -1.5083 -1.4814  0.5022
  352MOL    C5828840   3.161   3.563   2.680  0.4706  0.4893 -0.4901
  352MOL    O5928841   3.146   3.653   2.791 -0.3968  0.0147  0.3644
  352MOL    H6028842   3.207   3.467   2.705  1.8008  1.0809 -0.5672
  352MOL    H6128843   3.063   3.540   2.639 -0.8983 -0.3392  3.0515
  352MOL    C6228844   3.270   3.680   2.850  0.1931  0.2587  0.6717
  352MOL    O6328845   3.345   3.568   2.906 -0.1860 -0.1718  0.0390
  352MOL    H6428846   3.245   3.740   2.938  1.3150  0.6420  0.7483
  352MOL    H6528847   3.328   3.745   2.785 -0.3798  2.0440  1.9209
  352MOL    C6628848   3.288   3.502   3.008  0.3619  0.3325 -0.2752
  352MOL    O6728849   3.328   3.554   3.128 -0.4557  0.8445 -0.4085
  352MOL    H6828850   3.321   3.398   3.003 -0.5185 -0.0998  2.1355
  352MOL    H6928851   3.180   3.511   2.997  0.4043 -0.0304 -1.0363
  352MOL    C7028852   3.468   3.530   3.158  0.1602 -0.0523 -0.1554
  352MOL    O7128853   3.489   3.395   3.201  0.4503  0.1748 -0.3538
  352MOL    H7228854   3.510   3.590   3.239 -0.0744 -0.8531  0.5696
  352MOL    H7328855   3.532   3.527   3.070 -1.1427  0.5547 -1.1407
  352MOL    C7428856   3.454   3.370   3.330 -0.2736  0.4134  0.5502
  352MOL    O7528857   3.540   3.420   3.424  0.0270  0.4188 -0.3425
  352MOL    H7628858   3.457   3.261   3.336 -0.3530  0.4013  0.3724
  352MOL    H7728859   3.353   3.401   3.356  0.0880  1.8300  0.2903
  352MOL    C7828860   3.661   3.358   3.424  0.3162  0.3251  0.2852
  352MOL    O7928861   3.658   3.226   3.468 -0.4877 -0.2079 -0.7955
  352MOL    H8028862   3.728   3.410   3.492  1.3065  1.1886 -1.3214
  352MOL    H8128863   3.714   3.362   3.329 -0.4298  2.8357 -0.0618
  352MOL    H8228864   3.614   3.164   3.412  0.8888 -0.7736 -1.2738
  353MOL     C128865   1.056   1.972   3.682  0.1659 -0.1246  0.5778
  353MOL     O228866   0.976   1.852   3.681 -0.1015  0.0033  0.0192
  353MOL     H328867   1.148   1.962   3.624 -0.0047 -0.8142  0.4304
  353MOL     H428868   1.006   2.062   3.647  0.1312 -0.0683  0.7670
  353MOL     H528869   1.086   2.005   3.782  0.8525  1.3545 -0.1044
  353MOL     C628870   0.894   1.838   3.789 -0.1411  0.2271  0.8715
  353MOL     O728871   0.794   1.934   3.794  0.8270 -0.0543 -0.0809
  353MOL     H828872   0.949   1.836   3.883  1.6477  0.3688 -0.1596
  353MOL     H928873   0.860   1.734   3.780 -2.4925  1.1230 -1.3443
  353MOL    C1028874   0.681   1.888   3.728  0.3189  0.4937  0.6114
  353MOL    O1128875   0.629   1.767   3.777 -0.0771 -0.4034  0.1374
  353MOL    H1228876   0.695   1.875   3.620  0.3198  1.6009  0.4745
  353MOL    H1328877   0.611   1.971   3.738 -0.6779 -0.2166 -0.2605
  353MOL    C1428878   0.591   1.779   3.909 -0.3892 -0.5975 -0.4483
  353MOL    O1528879   0.692   1.753   3.990 -0.1370 -0.7788 -0.4762
  353MOL    H1628880   0.521   1.699   3.932 -0.3003 -0.5792 -0.1128
  353MOL    H1728881   0.554   1.880   3.926 -1.2831 -0.6797 -1.8568
  353MOL    C1828882   0.641   1.771   4.119  0.2702 -0.2625  0.0550
  353MOL    O1928883   0.602   1.902   4.148 -1.1214 -0.1716 -0.1080
  353MOL    H2028884   0.731   1.747   4.175  0.3923 -1.2639 -0.5632
  353MOL    H2128885   0.561   1.705   4.155  0.5573 -1.7823 -2.0286
  353MOL    C2228886   0.711   1.997   4.154 -0.1944  0.2707 -0.0147
  353MOL    O2328887   0.785   1.984   4.273 -0.7544 -0.1750 -0.5953
  353MOL    H2428888   0.661   2.093   4.153 -1.1245 -0.2023  0.3414
  353MOL    H2528889   0.771   1.983   4.064  1.9493 -0.9461  1.5433
  353MOL    C2628890   0.900   2.073   4.280 -0.0373  0.1912 -0.2342
  353MOL    O2728891   0.992   2.038   4.180 -0.1578  0.1991  0.1126
  353MOL    H2828892   0.947   2.060   4.377 -3.3810  0.5002  1.5089
  353MOL    H2928893   0.877   2.179   4.263 -1.0441 -0.2045 -1.3701
  353MOL    C3028894   1.058   1.913   4.200 -0.7054  0.5617 -0.5620
  353MOL    O3128895   1.194   1.927   4.164  0.4859  0.1982  0.0549
  353MOL    H3228896   1.010   1.830   4.148 -0.7669  1.8788 -2.6645
  353MOL    H3328897   1.062   1.887   4.306 -0.7963  0.2358 -0.6360
  353MOL    C3428898   1.211   1.937   4.030 -0.3415 -0.1083 -0.2989
  353MOL    O3528899   1.186   1.818   3.966  0.1390 -0.3497 -0.2385
  353MOL    H3628900   1.311   1.980   4.026 -0.4480  0.5894  3.0757
  353MOL    H3728901   1.149   2.015   3.986 -0.2190  0.2043  0.0849
  353MOL    C3828902   1.294   1.725   3.983  0.0075 -0.3170  0.6771
  353MOL    O3928903   1.413   1.767   3.927 -0.2823  0.3428  0.5657
  353MOL    H4028904   1.262   1.627   3.948  2.0865 -0.1351 -1.8614
  353MOL    H4128905   1.309   1.703   4.089 -0.1427  2.2675  1.2768
  353MOL    C4228906   1.405   1.780   3.786  0.3995  0.0049  0.5159
  353MOL    O4328907   1.397   1.665   3.718  0.1051 -0.2082  0.1732
  353MOL    H4428908   1.493   1.839   3.757 -1.8186  2.6162 -1.2294
  353MOL    H4528909   1.317   1.838   3.760 -0.4500 -1.5137 -0.0522
  353MOL    C4628910   1.398   1.682   3.577 -0.3331  0.8285  0.0952
  353MOL    O4728911   1.273   1.717   3.529  0.0220 -0.0040  0.3507
  353MOL    H4828912   1.441   1.597   3.524 -0.2793  0.9117  0.0050
  353MOL    H4928913   1.457   1.768   3.546 -0.0582  0.4635 -0.4189
  353MOL    C5028914   1.178   1.612   3.546 -0.0644  0.0653 -0.3819
  353MOL    O5128915   1.200   1.506   3.458 -0.3979  0.4645  0.2214
  353MOL    H5228916   1.077   1.650   3.534  0.1662  1.0102  0.6756
  353MOL    H5328917   1.186   1.578   3.649  0.3743 -1.2366 -0.8272
  353MOL    C5428918   1.129   1.395   3.503  0.0110  0.0080 -0.5555
  353MOL    O5528919   1.177   1.341   3.624 -0.0048  0.9012  0.5336
  353MOL    H5628920   1.138   1.319   3.425  0.9975 -2.3234  1.7566
  353MOL    H5728921   1.023   1.418   3.511 -0.1494 -1.0758  0.6073
  353MOL    C5828922   1.301   1.274   3.600  0.0267 -0.1124  0.3550
  353MOL    O5928923   1.352   1.233   3.717  0.1233 -0.5857 -0.2994
  353MOL    H6028924   1.366   1.337   3.539  1.6022 -0.6345  1.4676
  353MOL    H6128925   1.275   1.185   3.542 -1.6128  0.1815  0.6204
  353MOL    C6228926   1.430   1.332   3.785  0.8109 -0.4109  0.7138
  353MOL    O6328927   1.559   1.336   3.738 -0.1418  0.0661  0.2943
  353MOL    H6428928   1.433   1.301   3.889 -3.0448 -1.9757  0.4376
  353MOL    H6528929   1.390   1.432   3.775  1.8530  0.1573  2.0725
  353MOL    C6628930   1.631   1.217   3.783  0.3220  0.1375  0.1216
  353MOL    O6728931   1.652   1.212   3.922 -0.0586 -0.5188  0.1160
  353MOL    H6828932   1.726   1.210   3.732 -0.0844 -3.7152 -0.2405
  353MOL    H6928933   1.569   1.128   3.767 -0.3211  0.1865  2.1979
  353MOL    C7028934   1.747   1.295   3.974 -0.1101 -0.5512 -0.9817
  353MOL    O7128935   1.696   1.426   3.976  0.3690  0.0967 -0.0892
  353MOL    H7228936   1.839   1.291   3.917  0.4312 -2.5742 -0.0223
  353MOL    H7328937   1.762   1.263   4.078 -1.8748 -0.5171 -0.6964
  353MOL    C7428938   1.601   1.440   4.084  0.0550 -0.1904  0.1481
  353MOL    O7528939   1.668   1.454   4.204 -0.3285 -0.2140  0.0552
  353MOL    H7628940   1.533   1.355   4.086 -1.7302  1.1360 -2.2101
  353MOL    H7728941   1.540   1.524   4.052  0.9864  0.1180 -0.8252
  353MOL    C7828942   1.751   1.570   4.211  0.4191  0.2224  0.3134
  353MOL    O7928943   1.852   1.553   4.308  0.1325 -0.0292  0.3236
  353MOL    H8028944   1.709   1.665   4.243  0.0831  0.6087 -1.2502
  353MOL    H8128945   1.810   1.576   4.120 -1.6143  0.4317 -1.0013
  353MOL    H8228946   1.808   1.534   4.389  0.3051  0.9584  0.6561
  354MOL     C128947   5.396   5.900   1.594 -0.9366  0.1850  0.0664
  354MOL     O228948   5.404   5.775   1.540 -0.0263  0.6632 -0.2263
  354MOL     H328949   5.442   5.921   1.691 -2.2628  0.6144  0.6066
  354MOL     H428950   5.451   5.968   1.528  0.4419 -1.0536 -0.0833
  354MOL     H528951   5.292   5.932   1.606 -0.9801 -0.3246  1.0737
  354MOL     C628952   5.538   5.741   1.509 -0.0299  0.5973  0.7056
  354MOL     O728953   5.578   5.805   1.391  0.1970 -0.2444  0.3904
  354MOL     H828954   5.551   5.633   1.501 -1.0529  0.5829 -1.1479
  354MOL     H928955   5.611   5.773   1.582 -0.4333  1.2883  0.8159
  354MOL    C1028956   5.522   5.738   1.283 -0.0910  0.6128 -0.2053
  354MOL    O1128957   5.574   5.608   1.271 -0.1048 -0.2398  0.0020
  354MOL    H1228958   5.537   5.796   1.192  0.1580 -0.0678 -0.6023
  354MOL    H1328959   5.413   5.736   1.291 -0.0790 -2.8133 -0.3065
  354MOL    C1428960   5.713   5.602   1.246 -0.6335  0.2146 -0.1773
  354MOL    O1528961   5.727   5.615   1.110  0.3858  0.1682  0.3898
  354MOL    H1628962   5.761   5.511   1.283 -0.9571 -0.0067 -0.3026
  354MOL    H1728963   5.769   5.685   1.290 -1.1324 -0.0191  0.9090
  354MOL    C1828964   5.726   5.492   1.047  0.4644  0.1018 -0.4700
  354MOL    O1928965   5.825   5.402   1.089  0.1688  0.4014 -0.3619
  354MOL    H2028966   5.731   5.522   0.943  1.3716 -0.5066 -0.6105
  354MOL    H2128967   5.631   5.444   1.071  1.5405 -2.2601 -0.7506
  354MOL    C2228968   5.948   5.423   1.024 -0.3863 -0.5550 -0.2529
  354MOL    O2328969   5.954   5.363   0.898  0.2474 -0.0471 -0.2039
  354MOL    H2428970   6.035   5.389   1.080  0.0005  3.7648  1.9991
  354MOL    H2528971   5.951   5.532   1.020 -0.6188 -0.5458 -0.1839
  354MOL    C2628972   5.978   5.221   0.906 -0.0771 -0.2609 -0.0032
  354MOL    O2728973   6.104   5.181   0.852 -0.9990  0.3703 -0.1373
  354MOL    H2828974   5.902   5.170   0.847 -1.2152  0.9841  0.3695
  354MOL    H2928975   5.967   5.185   1.008  0.7577 -0.5245 -0.0000
  354MOL    C3028976   6.120   5.198   0.715 -0.8328 -0.7144  0.4728
  354MOL    O3128977   6.255   5.218   0.672  0.0457 -0.2692  0.1476
  354MOL    H3228978   6.075   5.293   0.686  0.8293 -0.4889 -1.4630
  354MOL    H3328979   6.065   5.122   0.660 -1.6291  0.8314 -0.9036
  354MOL    C3428980   6.337   5.104   0.694 -0.5169 -0.7922 -0.2287
  354MOL    O3528981   6.334   5.022   0.579  0.4553 -0.2603  0.2242
  354MOL    H3628982   6.307   5.056   0.787 -0.0112 -1.4026 -0.3731
  354MOL    H3728983   6.441   5.133   0.710 -0.4521 -0.3433 -1.3928
  354MOL    C3828984   6.388   5.090   0.470  1.1564 -0.0864  0.5347
  354MOL    O3928985   6.526   5.096   0.486 -0.4031 -0.3037  0.2406
  354MOL    H4028986   6.342   5.188   0.467  0.2335 -0.5463 -0.5392
  354MOL    H4128987   6.348   5.031   0.388 -0.5643  1.1559  0.4596
  354MOL    C4228988   6.586   4.976   0.454  0.6394  0.2170 -0.3226
  354MOL    O4328989   6.576   4.954   0.317 -0.0275 -0.3702 -0.1090
  354MOL    H4428990   6.558   4.886   0.509 -0.6718 -1.4546 -3.6152
  354MOL    H4528991   6.691   4.990   0.478  0.7158 -1.9039  0.7246
  354MOL    C4628992   6.625   4.837   0.270  0.5978 -0.1425 -0.4609
  354MOL    O4728993   6.758   4.817   0.302  0.2772 -0.3570  0.6515
  354MOL    H4828994   6.598   4.828   0.165  0.4353 -1.1398 -0.3447
  354MOL    H4928995   6.577   4.749   0.314 -0.0616  0.5688  0.2602
  354MOL    C5028996   6.839   4.808   0.186 -0.0679 -0.1443  0.4144
  354MOL    O5128997   6.846   4.927   0.116 -0.2757 -0.0550  0.3774
  354MOL    H5228998   6.788   4.742   0.117  1.0070  1.2712 -1.8092
  354MOL    H5328999   6.943   4.781   0.204  0.8556  1.1431 -2.7050
  354MOL    C5429000   6.899   5.033   0.189 -0.6902  0.4965  0.1215
  354MOL    O5529001   7.038   5.037   0.190 -0.8125  1.0308  0.0495
  354MOL    H5629002   6.868   5.030   0.294 -0.3524  1.8592  0.2707
  354MOL    H5729003   6.860   5.126   0.149  0.8636  2.0429  2.1419
  354MOL    C5829004   7.094   5.052   0.067 -0.6474 -0.2874 -0.2613
  354MOL    O5929005   7.077   5.184   0.011 -0.3349 -0.2449 -0.7994
  354MOL    H6029006   7.068   4.976   7.777 -1.4703  0.6752 -0.9834
  354MOL    H6129007   7.201   5.043   0.085 -1.0869 -2.4849  1.3597
  354MOL    C6229008   7.157   5.211   7.685 -0.6280 -0.0416  0.7109
  354MOL    O6329009   7.153   5.121   7.585  0.0056 -0.4993 -0.5534
  354MOL    H6429010   7.262   5.211   7.716 -0.2137 -0.4784 -0.6390
  354MOL    H6529011   7.120   5.306   7.647 -1.1716 -0.5108  0.0644
  354MOL    C6629012   7.044   5.132   7.494 -0.2701 -0.0541  0.4077
  354MOL    O6729013   7.070   5.056   7.378 -0.1852 -0.0995 -0.4392
  354MOL    H6829014   7.014   5.233   7.467 -1.1896 -0.5298 -0.3749
  354MOL    H6929015   6.952   5.097   7.542 -0.7050  2.0875  1.2014
  354MOL    C7029016   6.964   5.016   7.306  0.1692  0.3615 -0.6293
  354MOL    O7129017   6.886   4.924   7.377  0.2038  0.1981  0.2853
  354MOL    H7229018   6.997   4.976   7.211 -3.1987 -0.0723 -1.6989
  354MOL    H7329019   6.893   5.097   7.286  0.2079  0.2645 -1.1476
  354MOL    C7429020   6.786   4.865   7.307  0.5484 -0.7520 -0.1212
  354MOL    O7529021   6.749   4.750   7.367 -0.4582  0.1270 -0.3810
  354MOL    H7629022   6.815   4.849   7.203  0.0137 -0.2870 -0.3432
  354MOL    H7729023   6.702   4.930   7.285  0.9763  0.0794  0.6759
  354MOL    C7829024   6.695   4.773   7.494  0.6130  0.5526  0.6834
  354MOL    O7929025   6.702   4.660   7.576  0.0970  0.5176 -0.0903
  354MOL    H8029026   6.590   4.785   7.468  0.3256  0.0766  1.6139
  354MOL    H8129027   6.729   4.864   7.543 -0.0682  0.7061  0.8757
  354MOL    H8229028   6.794   4.651   7.596 -0.7160  0.2744  3.8160
  355MOL     C129029   6.290   0.088   5.501  0.0271 -0.2081  1.2437
  355MOL     O229030   6.175   0.151   5.433  0.3812  0.4456 -0.1929
  355MOL     H329031   6.298   7.770   5.463 -1.9333  0.1472 -0.2330
  355MOL     H429032   6.378   0.150   5.485  0.3280 -0.9272  0.0578
  355MOL     H529033   6.267   0.074   5.606  4.1338 -1.6657  2.0255
  355MOL     C629034   6.176   0.144   5.303  0.1212 -0.3971  0.1772
  355MOL     O729035   6.280   0.214   5.245  0.7549  0.6527  0.2036
  355MOL     H829036   6.084   0.193   5.271  0.3017  0.2291  0.5926
  355MOL     H929037   6.185   0.041   5.272  3.0401 -0.2574  0.4576
  355MOL    C1029038   6.283   0.207   5.107  0.5433  0.2198  0.8210
  355MOL    O1129039   6.390   0.263   5.041  0.6286 -0.2255 -0.8211
  355MOL    H1229040   6.187   0.243   5.071  0.4229 -0.8347  0.0371
  355MOL    H1329041   6.278   0.101   5.083 -3.0134  0.4802  0.2113
  355MOL    C1429042   6.396   0.404   5.057 -0.1066 -0.3161 -0.3685
  355MOL    O1529043   6.484   0.428   5.159  0.0695  0.1685 -0.4581
  355MOL    H1629044   6.297   0.447   5.074 -0.6530 -2.3743  1.8280
  355MOL    H1729045   6.439   0.441   4.964 -0.1883 -0.9302 -0.6490
  355MOL    C1829046   6.619   0.417   5.127  0.3085  0.1402 -0.4041
  355MOL    O1929047   6.665   0.531   5.064 -0.0710  0.0920  0.4345
  355MOL    H2029048   6.621   0.327   5.065 -0.9040  1.9192 -3.1183
  355MOL    H2129049   6.679   0.401   5.217  0.4897  3.1664  0.0467
  355MOL    C2229050   6.783   0.507   4.996 -0.3484  0.1661  0.0265
  355MOL    O2329051   6.740   0.438   4.880 -0.0733  0.4264  0.4673
  355MOL    H2429052   6.853   0.439   5.046 -1.8173 -2.1327 -0.9967
  355MOL    H2529053   6.832   0.600   4.970 -2.1954  0.7426 -1.4516
  355MOL    C2629054   6.696   0.515   4.774  0.3071  0.2415  0.2328
  355MOL    O2729055   6.797   0.550   4.694 -0.2868 -0.1848  0.0057
  355MOL    H2829056   6.638   0.603   4.804 -0.3499 -0.3504  0.6944
  355MOL    H2929057   6.625   0.453   4.720  0.7266  0.5995 -0.7349
  355MOL    C3029058   6.748   0.594   4.576  0.4961 -0.8200  0.0820
  355MOL    O3129059   6.684   0.718   4.597  0.5513  1.0081 -0.5172
  355MOL    H3229060   6.678   0.522   4.532 -2.0867  2.4287 -1.3719
  355MOL    H3329061   6.832   0.584   4.508  0.5541  0.6763 -0.0855
  355MOL    C3429062   6.767   0.826   4.641  0.2155  0.9186  0.4092
  355MOL    O3529063   6.846   0.875   4.531  0.2130  0.2785  0.2278
  355MOL    H3629064   6.832   0.788   4.720 -0.9965 -3.6197 -0.6333
  355MOL    H3729065   6.712   0.901   4.699 -2.9066 -0.2743 -0.8720
  355MOL    C3829066   6.957   0.945   4.572 -0.1355 -0.0096 -0.0583
  355MOL    O3929067   6.926   1.079   4.593 -0.2597 -0.0874 -0.1813
  355MOL    H4029068   7.045   0.938   4.507  2.8970  1.8732  3.6162
  355MOL    H4129069   7.010   0.901   4.658 -0.2624 -1.0402 -0.5011
  355MOL    C4229070   6.921   1.158   4.484  0.6747  0.0531 -0.3491
  355MOL    O4329071   7.041   1.170   4.421  0.3959 -0.2423 -0.0504
  355MOL    H4429072   6.887   1.256   4.516  0.2953 -0.5851  1.2861
  355MOL    H4529073   6.848   1.112   4.418  0.0997 -2.0807  1.6970
  355MOL    C4629074   7.128   1.262   4.482 -0.3822 -0.1791 -0.4636
  355MOL    O4729075   7.246   1.251   4.420  0.2774 -0.0139  0.2203
  355MOL    H4829076   7.133   1.260   4.591  1.0816  1.9853 -0.4604
  355MOL    H4929077   7.090   1.362   4.459  2.8855  1.6817  1.8162
  355MOL    C5029078   7.325   1.150   4.480  0.3304 -0.5279 -0.5557
  355MOL    O5129079   7.355   1.188   4.616  0.1268 -0.1738 -0.1164
  355MOL    H5229080   7.420   1.148   4.427  0.8595 -4.0334  0.3767
  355MOL    H5329081   7.278   1.052   4.481  0.4480 -0.5804  1.1733
  355MOL    C5429082   7.397   1.073   4.688  0.4589  0.0866 -0.7604
  355MOL    O5529083   7.297   0.977   4.717 -0.4851  0.4614 -0.0742
  355MOL    H5629084   7.453   1.107   4.775  1.8947 -2.5665 -0.5916
  355MOL    H5729085   7.466   1.024   4.619  1.7755 -1.5125  1.6478
  355MOL    C5829086   7.212   1.026   4.815 -0.2265 -0.4193 -0.0738
  355MOL    O5929087   7.129   0.920   4.862 -0.1503 -0.0617  0.6470
  355MOL    H6029088   7.144   1.103   4.776 -0.4964 -0.2599  0.6833
  355MOL    H6129089   7.266   1.080   4.893 -0.6676  0.2095 -0.1920
  355MOL    C6229090   7.201   0.843   4.957 -0.8255  0.3825  0.4212
  355MOL    O6329091   7.139   0.726   5.002  0.1036 -0.4671  0.4795
  355MOL    H6429092   7.217   0.902   5.046 -0.5407  2.4722 -0.9785
  355MOL    H6529093   7.298   0.822   4.912 -0.7473  0.9433  0.3249
  355MOL    C6629094   7.136   0.619   4.908 -0.7069  0.5287 -0.5287
  355MOL    O6729095   7.260   0.568   4.871  0.3684 -0.6265  0.4139
  355MOL    H6829096   7.077   0.657   4.825 -2.5339 -1.0500  0.0185
  355MOL    H6929097   7.078   0.535   4.946  0.7747  0.0076  0.6304
  355MOL    C7029098   7.310   0.483   4.967 -0.6128 -0.2982 -0.3018
  355MOL    O7129099   7.243   0.361   4.969 -0.0862 -0.1754  0.6520
  355MOL    H7229100   7.305   0.534   5.064  1.2892 -1.1916  0.2972
  355MOL    H7329101   7.417   0.478   4.946  0.1363  0.6559  2.8661
  355MOL    C7429102   7.282   0.286   4.864  0.4382 -1.0298  0.4072
  355MOL    O7529103   7.407   0.218   4.885  0.1624 -0.0275 -0.5155
  355MOL    H7629104   7.309   0.349   4.779 -0.4394 -0.7237  0.3525
  355MOL    H7729105   7.216   0.206   4.831  0.0188 -0.3691 -0.3845
  355MOL    C7829106   7.382   0.109   4.974  0.5601 -0.1896 -0.5155
  355MOL    O7929107   7.494   0.021   4.992  0.1379 -0.7615  0.2775
  355MOL    H8029108   7.298   0.051   4.936 -0.3001  0.9012 -0.3215
  355MOL    H8129109   7.351   0.138   5.075 -2.8197  2.7954 -2.2851
  355MOL    H8229110   7.506   7.757   4.911  1.9901  0.5590 -0.2854
  356MOL     C129111   4.496   0.454   3.863 -0.0942 -0.5675 -0.3658
  356MOL     O229112   4.409   0.534   3.946  0.0355  0.0776  0.7115
  356MOL     H329113   4.446   0.423   3.771 -2.0007 -1.3109  0.8982
  356MOL     H429114   4.579   0.520   3.838 -0.6082  0.2922  0.1910
  356MOL     H529115   4.530   0.369   3.923  1.6569  0.8134  0.6418
  356MOL     C629116   4.301   0.462   3.995 -0.8647  0.0973 -0.1476
  356MOL     O729117   4.349   0.393   4.110 -0.3206  0.1656  0.3075
  356MOL     H829118   4.246   0.387   3.938 -0.9101 -0.1547  0.2237
  356MOL     H929119   4.226   0.529   4.037 -1.1505  0.8412 -1.8323
  356MOL    C1029120   4.384   0.477   4.214 -0.1554  0.0089 -0.1537
  356MOL    O1129121   4.296   0.478   4.324  0.2207  0.3504  0.2051
  356MOL    H1229122   4.400   0.581   4.185 -3.6376  1.0611  1.4322
  356MOL    H1329123   4.475   0.430   4.253  0.1984 -0.7587 -1.8826
  356MOL    C1429124   4.309   0.367   4.405  0.8371  0.7507 -0.0271
  356MOL    O1529125   4.404   0.389   4.505 -0.1355 -0.5568 -0.6511
  356MOL    H1629126   4.324   0.279   4.343 -1.5454 -1.9488  3.0167
  356MOL    H1729127   4.214   0.335   4.449 -0.2912  1.3087 -2.0240
  356MOL    C1829128   4.368   0.492   4.601 -0.5657  0.5706 -0.0069
  356MOL    O1929129   4.271   0.443   4.690  0.4522 -0.2713 -0.2310
  356MOL    H2029130   4.323   0.583   4.561 -0.8426  0.5943  0.3644
  356MOL    H2129131   4.453   0.528   4.659  0.2862 -0.3618 -0.6514
  356MOL    C2229132   4.304   0.328   4.757  0.7405  0.5325 -0.2347
  356MOL    O2329133   4.406   0.355   4.845  0.1516 -0.3021 -0.0320
  356MOL    H2429134   4.320   0.237   4.698  1.5094  0.4459  0.1021
  356MOL    H2529135   4.222   0.297   4.822  1.4922 -0.7545  0.1337
  356MOL    C2629136   4.474   0.243   4.879 -0.2990  0.8953  1.3245
  356MOL    O2729137   4.544   0.181   4.769  0.2141 -0.3187  0.1066
  356MOL    H2829138   4.399   0.171   4.912 -0.5280  0.3685 -0.3063
  356MOL    H2929139   4.544   0.268   4.959 -2.7893  0.9572  3.5426
  356MOL    C3029140   4.640   0.274   4.712  0.1440  1.1283 -0.1858
  356MOL    O3129141   4.744   0.325   4.799  0.3244  0.8817 -0.0546
  356MOL    H3229142   4.582   0.359   4.676 -0.0671  1.2156  0.3521
  356MOL    H3329143   4.695   0.232   4.628 -2.5374 -0.6488 -1.1416
  356MOL    C3429144   4.842   0.229   4.827  0.6341 -0.2944  0.1955
  356MOL    O3529145   4.783   0.130   4.917 -0.4020 -0.2761  0.4337
  356MOL    H3629146   4.925   0.273   4.881  0.9820 -0.1565 -0.4450
  356MOL    H3729147   4.886   0.180   4.740  0.4707 -0.9224  0.4672
  356MOL    C3829148   4.867   0.021   4.952  0.7408 -0.0003 -0.1505
  356MOL    O3929149   4.861   7.708   4.860  0.1021 -0.1282  0.0455
  356MOL    H4029150   4.836   7.765   5.049  1.5431 -0.0162  0.1035
  356MOL    H4129151   4.969   0.051   4.977  0.3107  2.8991 -1.6676
  356MOL    C4229152   4.737   7.651   4.849 -0.9762  0.1356 -0.2140
  356MOL    O4329153   4.704   7.587   4.972  0.3068 -0.1971 -0.1645
  356MOL    H4429154   4.741   7.578   4.768 -0.0540  0.7801 -0.7711
  356MOL    H4529155   4.653   7.711   4.817  0.1299  1.5353 -0.5555
  356MOL    C4629156   4.581   7.523   4.973  0.4279  0.0553  0.1619
  356MOL    O4729157   4.474   7.611   4.976  0.1398 -0.3225  0.4223
  356MOL    H4829158   4.583   7.467   5.066  1.1345 -3.1632 -1.7262
  356MOL    H4929159   4.578   7.451   4.891 -2.3047 -0.4422  0.6477
  356MOL    C5029160   4.486   7.703   5.076  0.0499  0.1754  0.5600
  356MOL    O5129161   4.469   7.647   5.199 -0.1497  0.2120 -0.0712
  356MOL    H5229162   4.411   7.779   5.056  1.4105  2.2213  2.8482
  356MOL    H5329163   4.576   7.764   5.063 -0.4134  0.4368 -1.6579
  356MOL    C5429164   4.441   7.744   5.295  0.1540  0.3222 -0.5273
  356MOL    O5529165   4.535   0.061   5.299 -0.3482  0.6171 -0.0883
  356MOL    H5629166   4.441   7.689   5.389 -3.1099  1.6790  0.3479
  356MOL    H5729167   4.337   7.779   5.292 -0.7489 -1.9148  2.1638
  356MOL    C5829168   4.669   0.021   5.322 -0.1127 -0.0347 -0.2002
  356MOL    O5929169   4.713   0.044   5.446 -0.0978 -0.2437 -0.7691
  356MOL    H6029170   4.740   0.074   5.259 -0.9403  0.2669 -0.8957
  356MOL    H6129171   4.693   7.699   5.312 -0.3933 -0.0970 -0.2246
  356MOL    C6229172   4.722   0.180   5.479 -0.0542 -0.2981 -0.2151
  356MOL    O6329173   4.821   0.247   5.412 -0.0485  0.0091 -0.7515
  356MOL    H6429174   4.732   0.183   5.588  2.9162 -0.1068 -0.4674
  356MOL    H6529175   4.629   0.232   5.457  1.0678  1.2047 -1.4654
  356MOL    C6629176   4.815   0.388   5.425 -0.9305 -0.0380 -0.0670
  356MOL    O6729177   4.722   0.440   5.339  0.1718 -0.0540 -0.8514
  356MOL    H6829178   4.914   0.429   5.405 -0.2823 -2.4688 -2.1820
  356MOL    H6929179   4.783   0.413   5.526 -2.2074  0.1268 -0.5124
  356MOL    C7029180   4.769   0.438   5.208 -0.3627  0.4036 -0.1478
  356MOL    O7129181   4.861   0.535   5.193 -0.0810 -0.1672  0.3849
  356MOL    H7229182   4.684   0.456   5.142 -0.2799  1.7905  0.1143
  356MOL    H7329183   4.807   0.338   5.186 -0.7727  0.3283 -0.5186
  356MOL    C7429184   4.905   0.543   5.060 -0.0079  0.1876 -0.3995
  356MOL    O7529185   5.009   0.451   5.053 -0.9023  0.4202 -0.2145
  356MOL    H7629186   4.947   0.644   5.057 -3.5965  1.8354  1.3918
  356MOL    H7729187   4.824   0.531   4.988 -0.3503  0.9129 -0.1389
  356MOL    C7829188   5.130   0.483   5.109 -0.6267  1.1225  0.0927
  356MOL    O7929189   5.223   0.386   5.072  0.6229 -0.0519  0.1687
  356MOL    H8029190   5.132   0.485   5.218  0.8190 -0.4298  0.1181
  356MOL    H8129191   5.172   0.577   5.075 -1.5619  1.7626  0.6944
  356MOL    H8229192   5.229   0.383   4.978 -0.1787 -1.2471  0.1432
  357MOL     C129193   7.161   5.972   6.132  0.1242 -0.7745  0.4951
  357MOL     O229194   7.277   5.915   6.069 -0.2714 -0.2023  0.2423
  357MOL     H329195   7.151   6.075   6.098 -0.6137 -0.5385  1.4038
  357MOL     H429196   7.070   5.931   6.087  0.5433 -0.0721 -1.0347
  357MOL     H529197   7.165   5.967   6.241  2.2294  0.5596  0.4951
  357MOL     C629198   7.324   5.787   6.105  0.2524 -0.2138 -0.1183
  357MOL     O729199   7.419   5.795   6.209 -0.0417  0.7508  0.0758
  357MOL     H829200   7.364   5.740   6.015  2.4625  0.4571  0.4721
  357MOL     H929201   7.236   5.734   6.141  0.0471  2.2266  3.2159
  357MOL    C1029202   7.550   5.809   6.169  0.1499 -0.9468  0.0997
  357MOL    O1129203   7.589   5.701   6.090 -0.3665  0.6964  0.0203
  357MOL    H1229204   7.622   5.814   6.251  1.1856  0.6209 -0.8813
  357MOL    H1329205   7.553   5.901   6.111  1.1881  0.7787  2.7669
  357MOL    C1429206   7.620   5.586   6.175  0.0479  0.7605 -0.5160
  357MOL    O1529207   7.740   5.608   6.251  0.1797  0.3191  0.0901
  357MOL    H1629208   7.610   5.490   6.124  1.5192 -0.2641  1.0733
  357MOL    H1729209   7.531   5.590   6.238  0.4428  2.9648 -0.0429
  357MOL    C1829210   0.070   5.574   6.174  0.1244  0.0492  0.4168
  357MOL    O1929211   0.190   5.608   6.236  0.3509 -0.0360 -0.2424
  357MOL    H2029212   0.058   5.613   6.073 -1.9767  1.3111  1.1006
  357MOL    H2129213   0.078   5.467   6.160 -2.7602 -0.3661  1.4280
  357MOL    C2229214   0.203   5.745   6.264  0.7665 -0.1369 -0.9604
  357MOL    O2329215   0.204   5.817   6.147 -0.4747  0.4159  0.3651
  357MOL    H2429216   0.298   5.769   6.313  1.2733 -2.5899 -0.6388
  357MOL    H2529217   0.129   5.794   6.327  2.2096  1.0013 -0.1120
  357MOL    C2629218   0.316   5.790   6.070 -0.3725  0.3551 -0.1270
  357MOL    O2729219   0.439   5.819   6.131  0.1360  0.0461  0.2901
  357MOL    H2829220   0.293   5.859   5.989  0.3429 -0.1093 -0.7218
  357MOL    H2929221   0.331   5.688   6.036 -1.6248  0.2869 -0.5286
  357MOL    C3029222   0.478   5.955   6.136  0.2345  0.3595 -0.2449
  357MOL    O3129223   0.494   6.009   6.011  0.0363 -0.3523  0.2965
  357MOL    H3229224   0.566   5.961   6.200 -0.2717  1.2814  0.3617
  357MOL    H3329225   0.397   6.009   6.184  0.3978 -0.2826  0.7617
  357MOL    C3429226   0.597   5.948   5.944 -0.7775 -0.1247 -0.0669
  357MOL    O3529227   0.557   5.829   5.874 -0.0586  0.5452  0.1197
  357MOL    H3629228   0.675   5.923   6.017  1.7420  1.4013 -2.1444
  357MOL    H3729229   0.653   6.012   5.875 -1.9303 -0.2263 -1.1129
  357MOL    C3829230   0.471   5.854   5.770  0.3099 -0.0203  0.6462
  357MOL    O3929231   0.530   5.894   5.652 -0.4241  0.4343  0.1671
  357MOL    H4029232   0.400   5.933   5.795  0.1357 -0.3907  1.3206
  357MOL    H4129233   0.410   5.769   5.740  2.8922 -1.6172 -0.2332
  357MOL    C4229234   0.609   5.805   5.587  0.0869  0.1326 -0.4873
  357MOL    O4329235   0.535   5.710   5.514 -0.0363 -0.1604 -0.5886
  357MOL    H4429236   0.684   5.756   5.649 -0.1788  0.6462  0.2368
  357MOL    H4529237   0.665   5.872   5.522 -0.2814  0.7621 -0.1473
  357MOL    C4629238   0.593   5.669   5.391  0.1958  0.0945 -0.7047
  357MOL    O4729239   0.719   5.616   5.421 -0.7863 -0.6265 -0.1421
  357MOL    H4829240   0.614   5.754   5.326  1.7520 -0.0571 -0.4270
  357MOL    H4929241   0.531   5.604   5.330  0.5456  2.3392 -3.5841
  357MOL    C5029242   0.724   5.503   5.507 -0.5341 -0.0462  0.2861
  357MOL    O5129243   0.699   5.384   5.438  0.6791 -0.6054 -0.2574
  357MOL    H5229244   0.656   5.509   5.593  1.3710 -0.9351  1.8941
  357MOL    H5329245   0.818   5.497   5.561 -0.7650 -0.3731  0.6581
  357MOL    C5429246   0.788   5.370   5.336  0.0673  0.8510 -0.3168
  357MOL    O5529247   0.832   5.237   5.331 -0.5811  0.7136 -0.2370
  357MOL    H5629248   0.877   5.427   5.359  1.6964 -1.1848 -1.4177
  357MOL    H5729249   0.750   5.415   5.244 -1.4794  0.5247  0.1346
  357MOL    C5829250   0.772   5.164   5.238  0.7847  0.3173 -1.0658
  357MOL    O5929251   0.812   5.191   5.105  0.1307  0.3949  0.3773
  357MOL    H6029252   0.665   5.171   5.261  1.1935 -0.4413  1.2065
  357MOL    H6129253   0.805   5.064   5.266  0.4110 -0.0986 -2.0850
  357MOL    C6229254   0.716   5.144   5.010  0.3134  0.4865  0.0239
  357MOL    O6329255   0.695   5.007   5.015  0.0102 -0.8732  0.1766
  357MOL    H6429256   0.755   5.171   4.912  1.7972 -1.7985 -0.0518
  357MOL    H6529257   0.618   5.191   5.013  0.1423  0.1442 -0.1042
  357MOL    C6629258   0.809   4.933   4.980  0.0875 -0.7269 -0.2348
  357MOL    O6729259   0.843   4.955   4.844 -0.4505 -0.3399 -0.0870
  357MOL    H6829260   0.783   4.829   5.003 -1.7879 -0.1605  0.3375
  357MOL    H6929261   0.894   4.966   5.039  1.1119 -1.7599 -1.1206
  357MOL    C7029262   0.756   4.888   4.757  0.7076  0.6876 -0.4068
  357MOL    O7129263   0.788   4.897   4.623 -0.4591  0.2091 -0.6077
  357MOL    H7229264   0.653   4.915   4.781  1.3605  2.6309  0.2788
  357MOL    H7329265   0.766   4.782   4.782  1.0150  0.2113 -2.4449
  357MOL    C7429266   0.686   4.958   4.554 -0.1774  0.8525  0.3412
  357MOL    O7529267   0.659   5.085   4.611  1.0007  0.3342 -0.1496
  357MOL    H7629268   0.592   4.905   4.564 -1.3326  2.9272  0.7520
  357MOL    H7729269   0.714   4.967   4.449  0.2927 -0.9631  0.3054
  357MOL    C7829270   0.762   5.173   4.575  0.2077  0.5212  0.4190
  357MOL    O7929271   0.744   5.302   4.620 -0.4607  0.4583 -0.2409
  357MOL    H8029272   0.783   5.176   4.468 -1.6495  1.1564  0.0728
  357MOL    H8129273   0.851   5.133   4.625  1.0209  1.4455 -0.2592
  357MOL    H8229274   0.669   5.337   4.573  0.1169 -2.2274 -3.3390
  358MOL     C129275   3.852   6.613   4.616 -0.7196  0.6969 -0.3394
  358MOL     O229276   3.946   6.509   4.593  0.0392  0.1917 -0.1853
  358MOL     H329277   3.837   6.644   4.720  1.4755  0.5635  0.0356
  358MOL     H429278   3.883   6.698   4.554  1.7228 -1.4046 -2.0983
  358MOL     H529279   3.755   6.581   4.579 -1.2896  0.4746  1.2980
  358MOL     C629280   3.902   6.378   4.637  0.0047 -0.0938 -0.3471
  358MOL     O729281   3.861   6.380   4.773  0.8835  0.0373 -0.0986
  358MOL     H829282   3.985   6.313   4.613 -0.7937 -1.9805  1.8357
  358MOL     H929283   3.819   6.354   4.572 -0.3339 -0.7179  0.3057
  358MOL    C1029284   3.965   6.403   4.861  0.0856 -0.6357  0.0228
  358MOL    O1129285   3.913   6.393   4.990  0.3008  0.2825  0.2361
  358MOL    H1229286   4.015   6.499   4.848  0.3442 -0.5998  1.2217
  358MOL    H1329287   4.037   6.321   4.850 -0.2493 -1.1218  1.3227
  358MOL    C1429288   3.821   6.501   5.021  0.3911  0.0398  0.5987
  358MOL    O1529289   3.888   6.621   5.033  0.2331 -0.2729 -0.0921
  358MOL    H1629290   3.771   6.471   5.113 -0.6101  0.2867  0.1328
  358MOL    H1729291   3.747   6.505   4.942  0.9324  2.0919  0.1807
  358MOL    C1829292   3.828   6.717   5.118  0.6081 -0.5893 -0.2053
  358MOL    O1929293   3.699   6.757   5.077 -0.4065 -0.1926  0.3124
  358MOL    H2029294   3.906   6.793   5.119  2.2012 -2.2014  0.2416
  358MOL    H2129295   3.815   6.665   5.213  0.8394 -1.7857 -0.8271
  358MOL    C2229296   3.702   6.845   4.965  0.1611 -0.6311  0.2366
  358MOL    O2329297   3.773   6.952   4.998  0.3193 -0.4428  0.0734
  358MOL    H2429298   3.599   6.875   4.944 -0.2911 -0.8123  2.1154
  358MOL    H2529299   3.742   6.794   4.878  2.8794  1.8811 -0.0481
  358MOL    C2629300   3.790   7.043   4.892 -0.5402  0.4328 -0.2706
  358MOL    O2729301   3.865   6.977   4.798 -0.5313  0.7133 -0.0660
  358MOL    H2829302   3.832   7.132   4.940 -1.6840  1.0865 -0.4590
  358MOL    H2929303   3.688   7.058   4.856 -0.3571 -1.1568 -1.4780
  358MOL    C3029304   3.999   6.961   4.827  0.2533 -0.3023 -0.5860
  358MOL    O3129305   4.071   7.084   4.837  0.1046 -0.2857 -0.3068
  358MOL    H3229306   4.052   6.898   4.756  0.3683  0.3147 -1.0509
  358MOL    H3329307   4.011   6.908   4.921 -3.2338  0.1514  0.2204
  358MOL    C3429308   4.102   7.132   4.718  0.0250 -0.6445 -0.0462
  358MOL    O3529309   4.211   7.074   4.661  0.1796 -0.4312 -0.1631
  358MOL    H3629310   4.119   7.239   4.731 -1.9951 -0.3214  0.1872
  358MOL    H3729311   4.018   7.128   4.649  0.4298  1.1637 -0.6672
  358MOL    C3829312   4.332   7.076   4.738  0.8237  0.0932 -0.0251
  358MOL    O3929313   4.403   7.201   4.717  0.3490 -1.2717  1.0596
  358MOL    H4029314   4.394   6.994   4.699  2.2933  2.3204 -2.5423
  358MOL    H4129315   4.311   7.060   4.843  1.2316 -1.1065 -0.1156
  358MOL    C4229316   4.500   7.204   4.613  0.1032 -0.0341  0.4239
  358MOL    O4329317   4.606   7.112   4.645 -0.9221 -0.1633  0.3861
  358MOL    H4429318   4.548   7.300   4.595  0.2310 -0.0825  0.5066
  358MOL    H4529319   4.453   7.166   4.522  3.0499  0.7143 -1.4758
  358MOL    C4629320   4.665   7.151   4.766  0.0774  0.4076  0.8226
  358MOL    O4729321   4.759   7.253   4.744  0.0022  0.1773  0.6619
  358MOL    H4829322   4.724   7.065   4.797 -0.3407  0.0277  0.5704
  358MOL    H4929323   4.600   7.181   4.848  1.0221  0.7619  1.4493
  358MOL    C5029324   4.880   7.206   4.690  0.0033  0.4236  0.5404
  358MOL    O5129325   4.932   7.107   4.776  0.3846  0.6340  0.4642
  358MOL    H5229326   4.939   7.298   4.687  0.7777 -0.0957 -0.3423
  358MOL    H5329327   4.863   7.165   4.590 -1.2637  0.8652  0.5708
  358MOL    C5429328   5.009   7.161   4.882 -0.7019  0.2230  0.2832
  358MOL    O5529329   5.140   7.179   4.835  0.1270  0.4679 -0.1953
  358MOL    H5629330   5.012   7.091   4.966 -1.5152  0.1104  0.2173
  358MOL    H5729331   4.975   7.251   4.933 -0.9928 -0.2339  0.9077
  358MOL    C5829332   5.210   7.062   4.794  0.1272 -0.5146  0.1018
  358MOL    O5929333   5.303   7.103   4.695  0.1631 -0.1033  0.0308
  358MOL    H6029334   5.142   6.987   4.753 -2.0314  0.3953  1.8930
  358MOL    H6129335   5.260   7.003   4.871  0.7586 -3.7913 -2.6963
  358MOL    C6229336   5.254   7.101   4.566 -0.2227 -0.6211  0.1677
  358MOL    O6329337   5.270   6.973   4.511  0.0879 -0.1627  0.6596
  358MOL    H6429338   5.307   7.178   4.510  0.7425 -0.3322  1.4496
  358MOL    H6529339   5.146   7.108   4.557 -0.5157 -0.7206  3.1750
  358MOL    C6629340   5.392   6.955   4.459  0.0499 -0.0279 -0.0012
  358MOL    O6729341   5.427   6.820   4.446  0.2880  0.3696  0.3026
  358MOL    H6829342   5.467   6.983   4.533  1.1591  0.7014 -1.3692
  358MOL    H6929343   5.403   6.999   4.360 -3.0636  1.4301  0.2426
  358MOL    C7029344   5.351   6.765   4.340 -0.3045 -0.1578  0.0666
  358MOL    O7129345   5.393   6.806   4.215  0.6337  0.0074 -0.3164
  358MOL    H7229346   5.245   6.788   4.352 -0.9387 -1.9933 -1.6243
  358MOL    H7329347   5.371   6.658   4.344 -0.1858 -0.2455 -2.2924
  358MOL    C7429348   5.320   6.747   4.108  0.3673  0.4080 -0.1683
  358MOL    O7529349   5.190   6.789   4.124 -0.1899 -0.6092 -0.3967
  358MOL    H7629350   5.325   6.639   4.118 -0.8599  0.3140 -0.4909
  358MOL    H7729351   5.356   6.778   4.010  1.5639  1.4280  0.5688
  358MOL    C7829352   5.167   6.915   4.085  0.0611 -0.8566 -0.3475
  358MOL    O7929353   5.028   6.948   4.093 -0.6055 -0.2427  0.2829
  358MOL    H8029354   5.192   6.933   3.981 -0.5264 -0.4998 -0.4278
  358MOL    H8129355   5.223   6.986   4.146 -0.2719  1.0014 -2.1741
  358MOL    H8229356   5.002   6.934   4.182 -1.5445 -1.3999 -0.1562
  359MOL     C129357   2.306   6.995   7.334 -0.3486  0.3650 -0.2631
  359MOL     O229358   2.231   6.878   7.347  0.3289 -0.0744  0.0035
  359MOL     H329359   2.412   6.994   7.357  0.1472  2.6063 -2.3003
  359MOL     H429360   2.309   7.021   7.228  0.5991 -0.0329 -0.3411
  359MOL     H529361   2.243   7.072   7.380  0.1099  1.5042 -1.4922
  359MOL     C629362   2.307   6.760   7.340  0.1963  0.2918  0.0094
  359MOL     O729363   2.410   6.756   7.433  0.4626 -0.2077  0.0320
  359MOL     H829364   2.333   6.753   7.234 -1.1073 -0.4086 -0.2890
  359MOL     H929365   2.232   6.682   7.351  0.8704 -0.4243 -0.4735
  359MOL    C1029366   2.360   6.767   7.564 -0.3878 -1.0321  0.3686
  359MOL    O1129367   2.456   6.827   7.650  0.2913  0.2120  0.4910
  359MOL    H1229368   2.328   6.673   7.609 -0.2050 -0.2715  2.1323
  359MOL    H1329369   2.276   6.835   7.568  1.6209  1.4480  2.2242
  359MOL    C1429370   2.547   6.739   7.695  0.0933 -0.3251  0.6214
  359MOL    O1529371   2.502   6.659   0.019  0.5706  0.5997  0.2150
  359MOL    H1629372   2.623   6.803   7.740  1.4442 -1.8176  0.4779
  359MOL    H1729373   2.581   6.678   7.611  1.4001  0.7853  0.3327
  359MOL    C1829374   2.458   6.734   0.127  0.2090 -0.3706  0.7312
  359MOL    O1929375   2.569   6.783   0.193  0.2877  0.2940 -0.2186
  359MOL    H2029376   2.396   6.667   0.186  1.1949 -0.8787  1.1945
  359MOL    H2129377   2.388   6.815   0.107  0.4599  0.2517  2.3285
  359MOL    C2229378   2.542   6.866   0.301  0.2629 -0.1246  0.1546
  359MOL    O2329379   2.456   6.969   0.263 -0.5439 -0.7279  0.3034
  359MOL    H2429380   2.637   6.894   0.346  0.1388  2.7994 -1.2773
  359MOL    H2529381   2.490   6.796   0.366 -1.3721  0.5090 -0.4306
  359MOL    C2629382   2.513   7.064   0.175 -0.4825  0.4821  0.1778
  359MOL    O2729383   2.613   7.143   0.243 -0.0523  0.3178 -0.2921
  359MOL    H2829384   2.434   7.124   0.130 -0.1336  1.1809  0.4949
  359MOL    H2929385   2.558   7.003   0.097 -1.2331  2.8672 -2.1828
  359MOL    C3029386   2.559   7.240   0.333  0.1050 -0.0551  0.0282
  359MOL    O3129387   2.668   7.316   0.376 -0.0559 -0.6231 -0.0765
  359MOL    H3229388   2.514   7.187   0.417 -0.8235 -1.2891 -1.2298
  359MOL    H3329389   2.482   7.302   0.285  0.6306  0.4389 -0.1850
  359MOL    C3429390   2.767   7.238   0.440  0.1340  0.2201 -0.8532
  359MOL    O3529391   2.715   7.168   0.552 -0.3190  0.1210  0.0861
  359MOL    H3629392   2.853   7.301   0.464  0.7986 -0.8266 -0.4236
  359MOL    H3729393   2.813   7.164   0.375 -1.1557  0.1485 -1.7027
  359MOL    C3829394   2.700   7.239   0.661  0.9571 -0.1022  0.0403
  359MOL    O3929395   2.831   7.255   0.711  0.0933 -0.3503 -0.1910
  359MOL    H4029396   2.630   7.185   0.725  2.0548 -0.3166  1.0837
  359MOL    H4129397   2.653   7.337   0.654 -0.8712 -0.8958  0.8977
  359MOL    C4229398   2.835   7.351   0.810 -0.0438  0.7538 -0.2895
  359MOL    O4329399   2.784   7.482   0.779  0.1913  0.5212  0.0799
  359MOL    H4429400   2.929   7.364   0.863 -0.6892 -2.3492  1.8023
  359MOL    H4529401   2.758   7.329   0.885  3.1318  0.2387  2.9676
  359MOL    C4629402   2.847   7.539   0.674  0.6550 -0.1502  0.6786
  359MOL    O4729403   2.888   7.673   0.700 -0.3062 -0.1400 -0.5566
  359MOL    H4829404   2.790   7.541   0.581 -0.7078 -2.9644  1.3850
  359MOL    H4929405   2.935   7.478   0.655 -0.2213 -0.7657 -1.6447
  359MOL    C5029406   2.787   7.763   0.714  0.7766 -0.1349 -0.0882
  359MOL    O5129407   2.695   7.756   0.599  0.0577 -0.2884  0.0029
  359MOL    H5229408   2.828   0.079   0.724 -0.5379  0.5899 -1.6872
  359MOL    H5329409   2.738   7.743   0.810 -0.1794  0.6740 -0.4018
  359MOL    C5429410   2.648   0.088   0.541  1.5184  0.3857 -0.4683
  359MOL    O5529411   2.755   0.176   0.528 -0.4767  0.4133  0.1978
  359MOL    H5629412   2.569   0.116   0.611 -0.8083 -2.3217 -1.9535
  359MOL    H5729413   2.606   0.073   0.442 -1.0927  1.0110  0.5038
  359MOL    C5829414   2.741   0.271   0.430  1.2092  0.3311  0.1795
  359MOL    O5929415   2.716   0.222   0.304 -0.0904  0.6097 -0.1599
  359MOL    H6029416   2.818   0.347   0.439  1.2267  0.3498 -0.1298
  359MOL    H6129417   2.652   0.332   0.447 -0.5068 -1.6850 -1.2724
  359MOL    C6229418   2.831   0.154   0.247  0.3246  0.2220 -0.3150
  359MOL    O6329419   2.919   0.241   0.199  0.0054  0.2509  0.2627
  359MOL    H6429420   2.796   0.085   0.170 -1.1953 -0.6812  1.1521
  359MOL    H6529421   2.872   0.094   0.329 -0.2030 -0.2798 -0.4120
  359MOL    C6629422   2.890   0.300   0.080 -0.2906  0.5322  0.4267
  359MOL    O6729423   2.874   0.200   7.768  0.1461 -0.3406  0.2423
  359MOL    H6829424   2.971   0.368   0.053  0.2739 -1.4427 -3.1792
  359MOL    H6929425   2.795   0.353   0.092 -0.7849  0.3381 -2.3112
  359MOL    C7029426   2.831   0.253   7.649  0.8395  0.2374 -0.6507
  359MOL    O7129427   2.927   0.337   7.599  0.0463  0.5838 -0.1879
  359MOL    H7229428   2.739   0.311   7.658  1.1789  0.4233  2.2032
  359MOL    H7329429   2.808   0.179   7.572  0.8662 -1.0970  0.6087
  359MOL    C7429430   3.025   0.270   7.530  0.0758  0.3510 -0.2838
  359MOL    O7529431   3.094   0.339   7.434 -0.2328 -0.6430 -0.4723
  359MOL    H7629432   2.986   0.177   7.488 -0.7378  0.4353  0.2648
  359MOL    H7729433   3.095   0.225   7.601 -1.7210 -0.9417  0.7054
  359MOL    C7829434   3.008   0.347   7.320  0.1634 -0.0562  0.1319
  359MOL    O7929435   3.028   0.230   7.244  0.0246  0.4710 -0.9921
  359MOL    H8029436   3.046   0.425   7.255 -0.9770 -0.1091 -0.6051
  359MOL    H8129437   2.903   0.372   7.337 -0.4314 -2.8120  0.8480
  359MOL    H8229438   3.054   0.261   7.159  1.5422  1.8934 -0.0188
  360MOL     C129439   6.686   3.876   3.494  0.6180 -0.6084  0.6161
  360MOL     O229440   6.716   4.007   3.549 -0.8246  0.0071 -0.3236
  360MOL     H329441   6.675   3.810   3.580 -0.6849 -0.1799  0.7912
  360MOL     H429442   6.602   3.887   3.425  0.9273  0.6815  0.4350
  360MOL     H529443   6.768   3.863   3.424  0.7284 -1.7883  0.9522
  360MOL     C629444   6.615   4.063   3.626  0.0024  0.2738 -0.6172
  360MOL     O729445   6.495   4.075   3.557  0.1823  0.0608  0.1129
  360MOL     H829446   6.649   4.151   3.680  3.5342  0.2102 -2.5326
  360MOL     H929447   6.586   3.994   3.706  1.1264 -0.8445 -1.1452
  360MOL    C1029448   6.502   4.176   3.462 -0.4460 -0.1293  0.0939
  360MOL    O1129449   6.391   4.178   3.379  0.4811 -0.2202  0.0218
  360MOL    H1229450   6.592   4.160   3.402 -0.6685 -0.7475 -0.0741
  360MOL    H1329451   6.520   4.275   3.505 -2.3129 -0.3393  1.3733
  360MOL    C1429452   6.404   4.093   3.264 -0.2672 -0.1053 -0.3751
  360MOL    O1529453   6.498   4.147   3.175 -0.1139  0.3393 -0.2576
  360MOL    H1629454   6.309   4.091   3.210 -1.1800 -0.5292  1.2282
  360MOL    H1729455   6.431   3.989   3.283  1.6788  0.2493 -1.1145
  360MOL    C1829456   6.446   4.253   3.104 -0.6435 -0.5729  0.5481
  360MOL    O1929457   6.363   4.208   3.005 -0.2959 -0.3495  0.8144
  360MOL    H2029458   6.529   4.309   3.061 -0.3302 -1.2029  0.3221
  360MOL    H2129459   6.380   4.312   3.168 -1.6980  0.0543 -1.0955
  360MOL    C2229460   6.434   4.157   2.896 -0.2246 -0.3843 -0.4995
  360MOL    O2329461   6.494   4.260   2.820  0.3293  0.0271  0.0579
  360MOL    H2429462   6.365   4.110   2.826 -1.2354  1.5996 -0.8623
  360MOL    H2529463   6.512   4.083   2.913 -0.8813 -0.9166  0.2467
  360MOL    C2629464   6.397   4.348   2.772  0.6806 -0.6982 -0.0388
  360MOL    O2729465   6.365   4.315   2.641 -0.5629  0.1502 -0.0136
  360MOL    H2829466   6.440   4.447   2.786 -0.8037 -0.1348  0.6939
  360MOL    H2929467   6.300   4.353   2.823  0.2885 -0.6965 -0.7814
  360MOL    C3029468   6.346   4.425   2.560 -0.5933 -0.8095  0.2613
  360MOL    O3129469   6.256   4.404   2.456 -0.0949 -0.3618  0.3874
  360MOL    H3229470   6.442   4.435   2.509 -0.6777 -1.5788 -0.0518
  360MOL    H3329471   6.316   4.517   2.610 -0.8753 -0.1917 -1.0220
  360MOL    C3429472   6.134   4.362   2.508  0.7020 -0.1843  0.1604
  360MOL    O3529473   6.058   4.471   2.550  0.2094  0.0845  0.6653
  360MOL    H3629474   6.146   4.291   2.590  0.5068 -0.5476 -0.1174
  360MOL    H3729475   6.077   4.308   2.432  0.3461  0.5307 -0.0811
  360MOL    C3829476   6.005   4.545   2.446  0.0588  0.3300 -0.3861
  360MOL    O3929477   5.907   4.482   2.378  0.0730  0.3654  0.0358
  360MOL    H4029478   6.093   4.571   2.388  0.9489 -1.4650  0.1301
  360MOL    H4129479   5.970   4.639   2.490 -1.9554 -0.2540 -0.7023
  360MOL    C4229480   5.844   4.582   2.298  0.1931 -0.3448  0.3137
  360MOL    O4329481   5.931   4.643   2.212  0.4525  0.5585 -0.3241
  360MOL    H4429482   5.793   4.647   2.369 -0.2914  1.4252 -1.6056
  360MOL    H4529483   5.758   4.547   2.240  0.0794  1.6088 -0.7340
  360MOL    C4629484   5.974   4.553   2.113  0.0433  0.5998 -0.5167
  360MOL    O4729485   5.866   4.509   2.036  0.7202  0.1319 -0.1848
  360MOL    H4829486   6.011   4.461   2.159 -2.1602 -0.6268 -1.1256
  360MOL    H4929487   6.063   4.587   2.061  0.9183  0.2502  0.7105
  360MOL    C5029488   5.825   4.605   1.942  0.6388  0.2207 -0.5250
  360MOL    O5129489   5.892   4.590   1.814  0.5530 -0.4106 -0.2378
  360MOL    H5229490   5.838   4.705   1.985 -1.3470 -0.1258  0.9799
  360MOL    H5329491   5.717   4.601   1.928  0.4144  1.7164  0.6474
  360MOL    C5429492   5.848   4.478   1.748 -0.1034  0.0796 -0.0439
  360MOL    O5529493   5.710   4.474   1.720  0.4544 -0.9782  0.3750
  360MOL    H5629494   5.876   4.385   1.797 -0.2965  0.1154  0.1356
  360MOL    H5729495   5.900   4.474   1.652 -2.1037 -2.5480 -1.0650
  360MOL    C5829496   5.669   4.364   1.644 -0.2637  0.1948  0.2919
  360MOL    O5929497   5.707   4.243   1.707  0.3719  0.3857  0.6678
  360MOL    H6029498   5.713   4.367   1.545 -1.4142 -2.0321 -0.3306
  360MOL    H6129499   5.561   4.368   1.630 -0.3797  0.6845  1.2394
  360MOL    C6229500   5.636   4.206   1.818 -0.0920  0.1330 -0.3501
  360MOL    O6329501   5.686   4.079   1.860  0.2239  0.0763 -0.9056
  360MOL    H6429502   5.532   4.184   1.795  0.2465  0.5543 -2.3594
  360MOL    H6529503   5.651   4.286   1.891  0.9099  2.0112 -2.5580
  360MOL    C6629504   5.809   4.093   1.931 -0.3472 -0.3688  0.1650
  360MOL    O6729505   5.789   4.075   2.071 -0.6325  0.3454 -0.1145
  360MOL    H6829506   5.865   4.184   1.910 -0.6056 -0.3384 -0.3880
  360MOL    H6929507   5.871   4.013   1.892 -0.6037 -0.1227 -0.7552
  360MOL    C7029508   5.749   4.197   2.128  0.0624  0.4377  0.1087
  360MOL    O7129509   5.617   4.215   2.108  0.5508 -0.4163  0.1725
  360MOL    H7229510   5.810   4.282   2.096  0.9545 -0.5980 -1.0108
  360MOL    H7329511   5.776   4.186   2.233 -0.6119 -0.6645  0.1776
  360MOL    C7429512   5.574   4.335   2.163  0.5089 -0.1698 -0.3672
  360MOL    O7529513   5.605   4.333   2.303  0.6518 -0.1477  0.4583
  360MOL    H7629514   5.466   4.352   2.156  0.5936  1.0980  1.0996
  360MOL    H7729515   5.627   4.417   2.114  1.3783 -0.9563 -0.7375
  360MOL    C7829516   5.523   4.240   2.367 -0.2497  0.7249 -0.0523
  360MOL    O7929517   5.515   4.257   2.510  0.8230  0.7463  0.2447
  360MOL    H8029518   5.555   4.137   2.354  0.5691  0.9812 -0.0840
  360MOL    H8129519   5.422   4.241   2.325  0.7103 -2.2790 -2.6111
  360MOL    H8229520   5.600   4.243   2.547 -0.1744  0.6853  2.6150
  361MOL     C129521   0.147   4.015   7.183 -0.0942  0.5587  0.2456
  361MOL     O229522   0.134   4.031   7.325 -0.2514 -0.8430  0.4050
  361MOL     H329523   0.232   4.068   7.139  0.2091 -0.6317 -0.6384
  361MOL     H429524   0.165   3.911   7.154  3.9505  1.6339 -1.4284
  361MOL     H529525   0.052   4.045   7.139 -0.3959 -1.3628 -0.4758
  361MOL     C629526   0.026   3.977   7.389  0.3726 -0.2777 -0.2978
  361MOL     O729527   0.012   3.842   7.371 -0.1737 -0.0799  0.5322
  361MOL     H829528   7.717   4.021   7.352  0.1306 -1.0718 -0.6559
  361MOL     H929529   0.034   4.004   7.494  2.1381  1.7776 -0.9469
  361MOL    C1029530   0.118   3.767   7.429 -0.2475  0.2941 -0.0170
  361MOL    O1129531   0.118   3.759   7.565  0.1418 -0.1204 -0.3307
  361MOL    H1229532   0.217   3.806   7.405  0.4482 -1.8714 -0.7183
  361MOL    H1329533   0.118   3.673   7.373  1.4911 -1.4197  2.7602
  361MOL    C1429534   0.003   3.698   7.612  0.6543  0.1820  0.0683
  361MOL    O1529535   7.768   3.573   7.553 -0.5157  0.6863 -0.6057
  361MOL    H1629536   7.708   3.771   7.596  0.4750 -0.1601 -0.6502
  361MOL    H1729537   0.017   3.686   7.720 -1.1172  0.6470  0.3594
  361MOL    C1829538   7.670   3.499   7.617  0.3013  0.2861 -0.0140
  361MOL    O1929539   7.542   3.562   7.607 -0.3928  0.6103  0.2594
  361MOL    H2029540   7.702   3.465   7.715  0.9896  0.4109 -0.1975
  361MOL    H2129541   7.660   3.408   7.558 -0.8773  1.3517 -1.4998
  361MOL    C2229542   7.442   3.467   7.634 -0.1166  0.1695 -0.1015
  361MOL    O2329543   7.429   3.369   7.537 -0.0930 -0.6442  0.4186
  361MOL    H2429544   7.353   3.529   7.640 -0.7170 -0.5949 -0.8022
  361MOL    H2529545   7.469   3.422   7.729  1.0922  2.3366  0.6135
  361MOL    C2629546   7.409   3.431   7.408  0.7055 -0.4917  1.0857
  361MOL    O2729547   7.285   3.504   7.396  0.0286 -0.2640  0.4615
  361MOL    H2829548   7.397   3.349   7.337  0.9605  0.2789  0.1485
  361MOL    H2929549   7.497   3.486   7.376  0.2829 -0.5932 -0.2790
  361MOL    C3029550   7.269   3.568   7.273 -0.7982  0.8415 -0.0594
  361MOL    O3129551   7.253   3.490   7.162  0.4990  0.2610 -0.1191
  361MOL    H3229552   7.360   3.622   7.250 -0.4806  0.1226 -0.4988
  361MOL    H3329553   7.188   3.641   7.280 -0.8677  0.7888 -0.3219
  361MOL    C3429554   7.122   3.431   7.160 -0.0382  0.2346 -0.3495
  361MOL    O3529555   7.027   3.518   7.111 -0.0106 -0.4058 -0.0390
  361MOL    H3629556   7.096   3.388   7.257 -0.4289  1.5255  0.1265
  361MOL    H3729557   7.136   3.344   7.096  1.5117 -0.1103  0.4328
  361MOL    C3829558   7.047   3.552   6.977 -0.2640 -0.6357 -0.0153
  361MOL    O3929559   7.056   3.446   6.888  0.7044  0.7671  0.9020
  361MOL    H4029560   7.136   3.614   6.967  0.2144 -1.2169  0.5360
  361MOL    H4129561   6.968   3.613   6.935  0.8398  1.8518  1.4406
  361MOL    C4229562   6.939   3.370   6.880 -0.1295 -0.0465  0.4413
  361MOL    O4329563   6.844   3.441   6.803 -0.1313  0.3926  0.4281
  361MOL    H4429564   6.901   3.324   6.971 -0.0533  0.5131  0.7606
  361MOL    H4529565   6.965   3.279   6.827 -1.0041 -0.3112  0.4515
  361MOL    C4629566   6.838   3.410   6.673 -0.2700  0.8421 -0.6549
  361MOL    O4729567   6.788   3.280   6.654  0.1157  0.0660 -0.3189
  361MOL    H4829568   6.939   3.426   6.633 -0.4254  2.3635 -0.4713
  361MOL    H4929569   6.783   3.491   6.626 -2.1068  0.3367  0.5575
  361MOL    C5029570   6.834   3.217   6.538 -0.1461  0.2466  0.2153
  361MOL    O5129571   6.960   3.162   6.539 -0.0350 -0.2057 -0.2124
  361MOL    H5229572   6.838   3.294   6.461 -0.4108  0.5383  0.4907
  361MOL    H5329573   6.758   3.142   6.516  1.9905 -2.0072  0.3159
  361MOL    C5429574   6.958   3.021   6.537 -0.1425 -0.3169 -0.1588
  361MOL    O5529575   6.918   2.963   6.661 -0.2052  0.1983 -0.3634
  361MOL    H5629576   7.058   2.993   6.502  0.2286 -1.3860  1.6762
  361MOL    H5729577   6.889   2.986   6.461  1.1641  1.3597 -2.1808
  361MOL    C5829578   7.020   2.976   6.755 -1.2775 -0.0000 -0.1288
  361MOL    O5929579   6.986   2.922   6.880  0.0780 -0.3919 -0.4404
  361MOL    H6029580   7.062   3.076   6.767  1.5065 -0.5875 -3.7788
  361MOL    H6129581   7.100   2.908   6.724  0.2008  1.8927 -0.5996
  361MOL    C6229582   6.942   3.016   6.973 -0.3255  0.7276 -0.0284
  361MOL    O6329583   7.042   3.104   7.020 -0.3486 -0.3332 -0.1767
  361MOL    H6429584   6.913   2.962   7.064 -0.7462  0.6065 -0.2298
  361MOL    H6529585   6.856   3.071   6.934 -1.7172 -1.0594  0.4196
  361MOL    C6629586   7.152   3.036   7.074 -0.1120 -0.2388 -0.2898
  361MOL    O6729587   7.249   3.124   7.122  0.0423 -0.0055  0.5810
  361MOL    H6829588   7.200   2.976   6.997  1.0087  1.6881 -1.1497
  361MOL    H6929589   7.118   2.962   7.146  1.7884 -0.0281  0.8718
  361MOL    C7029590   7.336   3.158   7.023 -0.2848 -0.2629  0.2199
  361MOL    O7129591   7.411   3.052   6.980 -0.1775 -0.1306  0.1764
  361MOL    H7229592   7.397   3.236   7.069 -0.6737 -0.1736  0.5874
  361MOL    H7329593   7.282   3.194   6.936 -1.2121  0.4943  1.0936
  361MOL    C7429594   7.500   3.083   6.876 -0.6134 -0.0725  0.0533
  361MOL    O7529595   7.427   3.088   6.751  0.4291  0.4436 -0.0467
  361MOL    H7629596   7.568   2.998   6.870 -0.7680 -0.0943 -1.5837
  361MOL    H7729597   7.565   3.170   6.880 -0.1955 -0.2869 -1.5680
  361MOL    C7829598   7.398   2.964   6.693 -0.2399  0.1369 -0.1476
  361MOL    O7929599   7.325   2.983   6.579  0.1120 -0.1730 -0.4956
  361MOL    H8029600   7.332   2.900   6.752  0.0567 -1.3338 -1.3867
  361MOL    H8129601   7.488   2.906   6.673 -1.0361 -1.6936  1.4120
  361MOL    H8229602   7.330   2.908   6.522  1.8940 -1.3353  1.1727
  362MOL     C129603   3.579   3.826   1.576  0.0387  0.3726 -0.5094
  362MOL     O229604   3.638   3.943   1.627 -0.7179  0.4072 -0.0591
  362MOL     H329605   3.652   3.754   1.540  0.2955  0.2877  0.1800
  362MOL     H429606   3.509   3.787   1.650 -0.6802  3.6323  0.6554
  362MOL     H529607   3.513   3.841   1.491  0.7903  2.4105 -0.7676
  362MOL     C629608   3.555   4.061   1.634 -0.3178  0.1085  0.0416
  362MOL     O729609   3.515   4.097   1.506  0.0839  0.3981 -0.6384
  362MOL     H829610   3.601   4.144   1.688  0.8087 -0.1276 -0.5452
  362MOL     H929611   3.466   4.037   1.693 -0.4534 -0.2010 -0.2837
  362MOL    C1029612   3.588   4.193   1.450  0.5992 -0.2721  0.5028
  362MOL    O1129613   3.723   4.155   1.437  0.4031 -0.5119  0.2702
  362MOL    H1229614   3.594   4.287   1.505  1.3297 -0.6445  1.0696
  362MOL    H1329615   3.543   4.211   1.352 -4.4762 -1.3379  2.4708
  362MOL    C1429616   3.741   4.055   1.340  0.3667 -0.0134  0.0489
  362MOL    O1529617   3.817   4.097   1.231  0.2841 -0.1507 -0.6255
  362MOL    H1629618   3.644   4.015   1.311  1.9292 -1.5874 -3.3592
  362MOL    H1729619   3.793   3.976   1.393  1.3991 -0.4729 -1.6064
  362MOL    C1829620   3.944   4.128   1.272  0.0211 -0.3182  0.2786
  362MOL    O1929621   4.026   4.011   1.290  0.6627 -0.6795  0.2600
  362MOL    H2029622   3.934   4.192   1.359 -0.1963 -1.8890  1.4180
  362MOL    H2129623   3.991   4.196   1.201 -1.7171 -0.2998 -0.8822
  362MOL    C2229624   4.156   4.038   1.333  0.1102 -0.3374  0.2485
  362MOL    O2329625   4.226   4.122   1.251 -0.6840 -0.0577 -0.8109
  362MOL    H2429626   4.215   3.948   1.355 -0.0339 -0.0621  1.7389
  362MOL    H2529627   4.146   4.083   1.431  1.7378  0.4087  0.0942
  362MOL    C2629628   4.264   4.056   1.135 -0.2444 -0.3688  0.6534
  362MOL    O2729629   4.386   4.011   1.160  0.0442  0.0604 -0.3093
  362MOL    H2829630   4.246   4.129   1.056  1.0369 -0.0380  0.6597
  362MOL    H2929631   4.202   3.969   1.116 -0.4982  0.4917 -2.8354
  362MOL    C3029632   4.483   4.113   1.164 -0.7156  0.0155  0.1308
  362MOL    O3129633   4.574   4.095   1.059 -0.3632  0.3329  0.4590
  362MOL    H3229634   4.536   4.103   1.259  0.6515  1.1834 -0.4919
  362MOL    H3329635   4.461   4.220   1.169  0.5410  0.2230  1.5139
  362MOL    C3429636   4.522   4.136   0.931  0.3272 -0.1434  0.3359
  362MOL    O3529637   4.487   4.274   0.922  0.1497 -0.1178 -0.1406
  362MOL    H3629638   4.434   4.074   0.913 -0.1362  0.6793 -0.2607
  362MOL    H3729639   4.588   4.109   0.848  0.0309 -1.6420  0.5792
  362MOL    C3829640   4.607   4.349   0.888 -0.0604  0.3127 -0.0829
  362MOL    O3929641   4.638   4.334   0.753  0.5653 -0.0597 -0.1989
  362MOL    H4029642   4.693   4.312   0.945  0.5724  0.7040 -0.7825
  362MOL    H4129643   4.612   4.456   0.908  0.2019  0.3070 -0.1197
  362MOL    C4229644   4.556   4.397   0.659  0.3292  0.1959 -0.8364
  362MOL    O4329645   4.569   4.537   0.662  0.1662 -0.0646 -0.2734
  362MOL    H4429646   4.454   4.365   0.680  0.0187  2.3173  0.9724
  362MOL    H4529647   4.597   4.363   0.564  1.5909 -1.0456  0.1247
  362MOL    C4629648   4.460   4.602   0.600  0.1242 -0.4060 -0.7722
  362MOL    O4729649   4.340   4.588   0.674  0.0299  0.1150  0.3857
  362MOL    H4829650   4.436   4.564   0.501 -1.9243  1.3423 -0.9894
  362MOL    H4929651   4.487   4.708   0.598 -0.3042 -0.2526  0.8804
  362MOL    C5029652   4.318   4.681   0.779 -0.1401  0.8421  0.3136
  362MOL    O5129653   4.214   4.636   0.853 -0.4940  0.9683 -0.1328
  362MOL    H5229654   4.292   4.778   0.736 -4.2180 -0.6980 -0.9337
  362MOL    H5329655   4.408   4.684   0.841 -1.8012  0.3427  2.8310
  362MOL    C5429656   4.252   4.538   0.947 -0.4950 -0.5163 -0.0034
  362MOL    O5529657   4.307   4.597   1.069  0.1001 -0.5440 -0.3165
  362MOL    H5629658   4.333   4.484   0.900  1.1132  2.4471 -0.7582
  362MOL    H5729659   4.180   4.463   0.980  0.5483 -0.4883  2.5003
  362MOL    C5829660   4.368   4.505   1.156 -0.8008  1.0612 -0.1196
  362MOL    O5929661   4.295   4.400   1.201  0.3865  0.5593 -0.1103
  362MOL    H6029662   4.422   4.563   1.232 -0.0473  2.2491 -1.5256
  362MOL    H6129663   4.441   4.454   1.093 -2.4255 -1.3903 -0.0709
  362MOL    C6229664   4.203   4.434   1.304  0.5498  0.1592 -0.4007
  362MOL    O6329665   4.263   4.461   1.432 -0.1269 -0.5858  0.2636
  362MOL    H6429666   4.134   4.353   1.324  0.6605  0.6213  1.9806
  362MOL    H6529667   4.160   4.527   1.266 -0.9790  0.5454  2.1809
  362MOL    C6629668   4.341   4.359   1.488 -0.0861  0.4113 -0.4020
  362MOL    O6729669   4.432   4.404   1.585 -0.1562  0.0887  0.2048
  362MOL    H6829670   4.396   4.304   1.412  0.2777 -0.3971  0.4308
  362MOL    H6929671   4.275   4.285   1.534 -1.4024  0.8212 -1.5872
  362MOL    C7029672   4.531   4.481   1.523 -0.0817  0.1497  0.6715
  362MOL    O7129673   4.610   4.415   1.427  0.5842 -0.0032 -0.3276
  362MOL    H7229674   4.599   4.519   1.600 -0.5980 -1.7000  2.0855
  362MOL    H7329675   4.491   4.566   1.468 -1.8298 -1.0295  0.0701
  362MOL    C7429676   4.707   4.337   1.483 -0.1866  0.6647 -0.8183
  362MOL    O7529677   4.721   4.206   1.430 -0.1670  0.2069 -0.3392
  362MOL    H7629678   4.693   4.327   1.590 -0.7215  1.8973 -0.7597
  362MOL    H7729679   4.801   4.392   1.489  0.9229 -1.2771  0.2296
  362MOL    C7829680   4.787   4.207   1.313  0.0093  0.1525  0.6470
  362MOL    O7929681   4.799   4.078   1.271 -0.0537  0.0227  0.1253
  362MOL    H8029682   4.887   4.236   1.344  1.8648 -1.4555 -3.5058
  362MOL    H8129683   4.747   4.280   1.242 -1.3063 -1.1879 -0.0041
  362MOL    H8229684   4.719   4.027   1.269 -0.7785  1.1463  0.3684
  363MOL     C129685   3.446   3.248   4.895 -0.4071 -0.1505 -0.1457
  363MOL     O229686   3.559   3.189   4.844  0.0054  0.1895 -0.0455
  363MOL     H329687   3.443   3.354   4.871 -0.7708 -0.4669 -1.5273
  363MOL     H429688   3.360   3.206   4.844  0.8554 -0.7781 -1.7955
  363MOL     H529689   3.433   3.244   5.003 -2.0291 -0.3398 -0.3329
  363MOL     C629690   3.679   3.224   4.911  0.4272  0.7249  0.5693
  363MOL     O729691   3.689   3.163   5.033  0.2857 -0.1258 -0.2876
  363MOL     H829692   3.676   3.328   4.941 -0.9399  0.4270  1.4920
  363MOL     H929693   3.767   3.215   4.847  0.3328  0.3907  0.4837
  363MOL    C1029694   3.707   3.025   5.033  0.1351  0.9449 -0.0752
  363MOL    O1129695   3.838   2.993   4.996 -0.6930  0.0164  0.2421
  363MOL    H1229696   3.628   2.978   4.974  1.1259  0.2561 -0.8659
  363MOL    H1329697   3.688   2.981   5.131  1.4931  1.0157  0.2357
  363MOL    C1429698   3.864   2.857   5.012 -1.0694  0.0680 -0.0025
  363MOL    O1529699   3.831   2.812   5.137  0.2487 -0.0473 -0.2685
  363MOL    H1629700   3.968   2.840   4.985 -1.1184 -2.2715  1.1734
  363MOL    H1729701   3.820   2.796   4.933  1.0358  2.0177 -2.7643
  363MOL    C1829702   3.905   2.868   5.245 -0.6663 -0.2199 -0.3171
  363MOL    O1929703   3.853   2.830   5.371 -0.3031  1.0149 -0.5299
  363MOL    H2029704   3.905   2.977   5.236  1.4242 -0.2922 -1.4848
  363MOL    H2129705   4.009   2.836   5.241 -0.5497 -0.0764  1.4485
  363MOL    C2229706   3.763   2.922   5.426 -0.1405 -0.6103  0.3941
  363MOL    O2329707   3.829   3.034   5.466 -0.2625 -0.5934 -0.2450
  363MOL    H2429708   3.713   2.876   5.511  0.6504 -1.0554  0.6215
  363MOL    H2529709   3.678   2.946   5.363  0.0170 -4.3849 -1.4139
  363MOL    C2629710   3.919   3.014   5.576 -0.1461  0.4790  0.0288
  363MOL    O2729711   3.844   3.012   5.694 -0.3523  0.0215 -0.1697
  363MOL    H2829712   3.994   3.092   5.577  0.0435  0.2955  2.5181
  363MOL    H2929713   3.967   2.917   5.563 -1.1923 -0.1650  0.8321
  363MOL    C3029714   3.919   3.011   5.807 -0.3504  0.2330 -0.1836
  363MOL    O3129715   3.984   3.131   5.834  0.4691  0.6866 -0.1819
  363MOL    H3229716   3.992   2.931   5.805 -1.5130 -0.8774  0.8464
  363MOL    H3329717   3.856   2.977   5.890  0.7057 -1.1240  0.0788
  363MOL    C3429718   3.887   3.228   5.856  0.7184 -0.2862  0.0987
  363MOL    O3529719   3.906   3.288   5.984 -0.2024  0.5275 -0.3343
  363MOL    H3629720   3.789   3.180   5.853 -0.1419  1.4910 -2.2583
  363MOL    H3729721   3.877   3.301   5.775 -1.9453  0.9385  1.4630
  363MOL    C3829722   3.867   3.207   6.094 -0.2404 -0.2597  0.2634
  363MOL    O3929723   3.723   3.196   6.100 -0.1406  0.2916 -0.5333
  363MOL    H4029724   3.911   3.252   6.183 -0.1608  0.5874 -0.1970
  363MOL    H4129725   3.899   3.105   6.073 -0.7796 -0.0158 -1.8556
  363MOL    C4229726   3.663   3.316   6.130 -0.2006  0.1884 -0.0434
  363MOL    O4329727   3.653   3.322   6.265  0.1273  0.4624  0.2808
  363MOL    H4429728   3.564   3.301   6.086 -1.0223 -0.2888  1.9247
  363MOL    H4529729   3.711   3.400   6.080  3.5434 -0.1032  2.8751
  363MOL    C4629730   3.535   3.263   6.317  0.5630 -0.0273  0.3471
  363MOL    O4729731   3.548   3.261   6.457  0.6058 -0.1505  0.1724
  363MOL    H4829732   3.502   3.166   6.279 -2.3177  1.3095 -0.6901
  363MOL    H4929733   3.451   3.326   6.290  0.3609  0.6692  2.5310
  363MOL    C5029734   3.643   3.181   6.513 -0.2586 -0.0713 -0.6803
  363MOL    O5129735   3.612   3.051   6.517 -0.7892 -0.0617  0.0044
  363MOL    H5229736   3.675   3.226   6.607  2.9515 -0.6538 -1.4595
  363MOL    H5329737   3.728   3.180   6.445  0.1889  1.6597 -0.1932
  363MOL    C5429738   3.505   3.024   6.604  0.0267 -0.5907  0.2595
  363MOL    O5529739   3.521   3.071   6.734 -0.4939 -0.5056 -0.5203
  363MOL    H5629740   3.479   2.919   6.610  0.6165 -0.6359  3.1374
  363MOL    H5729741   3.415   3.072   6.566 -1.5608 -2.8705  1.0367
  363MOL    C5829742   3.630   3.004   6.794 -0.0056 -0.7971 -0.2913
  363MOL    O5929743   3.648   3.062   6.918 -0.1009 -0.2192  0.2317
  363MOL    H6029744   3.728   3.021   6.750  0.0801 -0.7861 -0.0971
  363MOL    H6129745   3.612   2.897   6.787  0.5426 -0.8838 -0.3891
  363MOL    C6229746   3.553   3.031   7.010 -0.2135  0.8039  0.2847
  363MOL    O6329747   3.578   2.916   7.080  0.1376  0.8847 -0.3507
  363MOL    H6429748   3.450   3.018   6.974  0.5464  0.5863 -1.8979
  363MOL    H6529749   3.538   3.116   7.078 -1.0040  2.4319 -1.8584
  363MOL    C6629750   3.681   2.931   7.176  0.5145  1.0623  0.4127
  363MOL    O6729751   3.636   2.958   7.305  0.2081 -0.4958 -0.4139
  363MOL    H6829752   3.745   3.014   7.148  0.1445  1.3475  0.4177
  363MOL    H6929753   3.750   2.846   7.176  0.7346  1.1798  3.7922
  363MOL    C7029754   3.584   2.841   7.354  0.7358 -0.3476  0.0964
  363MOL    O7129755   3.687   2.741   7.367  0.1211 -0.1980  0.5612
  363MOL    H7229756   3.506   2.809   7.286 -0.0074  0.6207  0.4822
  363MOL    H7329757   3.533   2.875   7.444  1.3261 -0.4182  0.4612
  363MOL    C7429758   3.773   2.768   7.472 -0.2706 -0.3731 -0.5169
  363MOL    O7529759   3.718   2.793   7.600 -0.0481 -0.0027 -0.6129
  363MOL    H7629760   3.828   2.861   7.453  2.0182 -1.5843 -0.0046
  363MOL    H7729761   3.853   2.696   7.484 -0.9478 -1.0835 -0.2789
  363MOL    C7829762   3.625   2.690   7.636  1.0601 -0.2491 -0.2027
  363MOL    O7929763   3.616   2.671   7.773 -0.3981  0.1009 -0.0573
  363MOL    H8029764   3.648   2.596   7.587  0.1629 -0.4056 -0.3304
  363MOL    H8129765   3.527   2.721   7.600  0.6345 -1.1258  0.1970
  363MOL    H8229766   3.548   2.607   0.007 -2.4559  2.5092  1.0117
  364MOL     C129767   2.068   4.034   5.940  0.2373  0.1158  0.0057
  364MOL     O229768   2.153   3.988   5.832 -0.2567 -0.5242  0.4486
  364MOL     H329769   1.968   3.995   5.922  0.2185 -1.1553  2.6206
  364MOL     H429770   2.119   3.998   6.029  1.0286  0.0688 -0.4616
  364MOL     H529771   2.054   4.142   5.946 -1.8086 -0.0730 -1.0404
  364MOL     C629772   2.161   3.845   5.834 -0.6224 -0.1051  0.1585
  364MOL     O729773   2.046   3.779   5.800  0.0380  0.1661 -0.6235
  364MOL     H829774   2.194   3.806   5.930  2.4991 -2.6568 -1.8345
  364MOL     H929775   2.230   3.816   5.755 -0.6543 -0.2797  0.1954
  364MOL    C1029776   2.013   3.775   5.663 -0.1524 -0.0684  0.3481
  364MOL    O1129777   1.877   3.731   5.645  0.5157  0.7460  0.4341
  364MOL    H1229778   2.076   3.699   5.616 -0.1832  1.0151 -1.4923
  364MOL    H1329779   2.022   3.872   5.615  0.1610 -1.7683 -3.1468
  364MOL    C1429780   1.788   3.829   5.689  0.3808 -0.1201  0.3073
  364MOL    O1529781   1.788   3.934   5.594 -0.0637  0.2370 -0.3449
  364MOL    H1629782   1.808   3.865   5.789  1.0724  1.0301 -0.2319
  364MOL    H1729783   1.700   3.766   5.704  1.0346 -1.1380 -0.1091
  364MOL    C1829784   1.743   3.898   5.469 -0.4179  0.1459  0.0374
  364MOL    O1929785   1.614   3.856   5.478  0.1395  0.2725  0.2819
  364MOL    H2029786   1.804   3.820   5.423  2.2479  1.9857  0.3744
  364MOL    H2129787   1.750   3.989   5.410  2.7003  0.8889  1.4624
  364MOL    C2229788   1.565   3.793   5.360 -0.1467  0.4887  0.1932
  364MOL    O2329789   1.551   3.878   5.253  0.2465  0.2374 -0.1164
  364MOL    H2429790   1.473   3.747   5.396  1.3308 -2.5329  0.3129
  364MOL    H2529791   1.631   3.708   5.343 -0.4510  0.3577 -0.3562
  364MOL    C2629792   1.416   3.903   5.230  0.9263  0.2064 -0.4011
  364MOL    O2729793   1.354   3.780   5.190 -0.3118 -1.1497  0.8476
  364MOL    H2829794   1.395   3.978   5.153 -1.1406 -0.1562 -0.2121
  364MOL    H2929795   1.372   3.938   5.323  2.4185 -0.5752  0.6130
  364MOL    C3029796   1.219   3.796   5.173  0.5912  0.6649  0.5261
  364MOL    O3129797   1.152   3.828   5.293  0.3248 -0.0870  0.1704
  364MOL    H3229798   1.194   3.701   5.125  1.9867 -0.3103  1.6811
  364MOL    H3329799   1.191   3.867   5.095 -2.2181  1.8456  2.5146
  364MOL    C3429800   1.021   3.785   5.280  0.1700 -0.2828 -0.0902
  364MOL    O3529801   1.016   3.645   5.306 -0.7924 -0.3469 -0.8645
  364MOL    H3629802   0.988   3.805   5.178 -0.4546 -1.9915 -0.2434
  364MOL    H3729803   0.962   3.848   5.346 -2.4078 -1.6423 -1.0212
  364MOL    C3829804   0.999   3.619   5.435  0.1269 -0.1593  0.6701
  364MOL    O3929805   0.878   3.670   5.468 -0.1490 -0.7560 -0.7192
  364MOL    H4029806   1.078   3.664   5.495  0.5649  0.6817 -0.5362
  364MOL    H4129807   1.019   3.513   5.450  1.7127 -0.4285 -2.9317
  364MOL    C4229808   0.775   3.577   5.431 -0.0711 -0.3890  0.5130
  364MOL    O4329809   0.797   3.445   5.491 -0.1328  0.0864  0.4399
  364MOL    H4429810   0.783   3.563   5.323  1.5768 -2.9016  0.9068
  364MOL    H4529811   0.672   3.609   5.446 -0.6463 -1.4257 -1.1795
  364MOL    C4629812   0.717   3.417   5.596  0.1429 -0.3328 -0.4324
  364MOL    O4729813   0.580   3.414   5.563  0.1049  0.5240 -0.5842
  364MOL    H4829814   0.743   3.494   5.668  0.5855 -1.2994  0.4495
  364MOL    H4929815   0.744   3.320   5.638  0.7920  0.3689  0.7859
  364MOL    C5029816   0.536   3.315   5.474 -0.1319 -1.0005 -0.1538
  364MOL    O5129817   0.421   3.361   5.414 -0.3131 -0.6997 -0.2209
  364MOL    H5229818   0.515   3.230   5.539  0.3727  1.3521  3.1954
  364MOL    H5329819   0.619   3.288   5.409  1.9703  2.6823  0.8351
  364MOL    C5429820   0.313   3.346   5.493 -0.3846 -0.2108 -0.0119
  364MOL    O5529821   0.273   3.222   5.498  0.0118  0.2006  0.5925
  364MOL    H5629822   0.241   3.406   5.437  1.1546 -0.9054 -2.8693
  364MOL    H5729823   0.336   3.395   5.587 -0.5414  1.1709 -0.6714
  364MOL    C5829824   0.149   3.201   5.568 -0.3356  0.2207 -0.1697
  364MOL    O5929825   0.045   3.237   5.483  0.0153  0.1750 -0.0607
  364MOL    H6029826   0.131   3.263   5.656 -0.0779 -0.2196  0.1901
  364MOL    H6129827   0.160   3.096   5.591  0.7634  0.3241 -0.2033
  364MOL    C6229828   0.022   3.142   5.382  0.1711 -0.8106 -0.4169
  364MOL    O6329829   7.758   3.024   5.435 -0.0678 -0.0374 -0.2339
  364MOL    H6429830   0.118   3.129   5.332 -0.1880  1.0335 -1.6439
  364MOL    H6529831   7.746   3.179   5.299 -0.8426  1.4676  1.2688
  364MOL    C6629832   7.697   2.945   5.341  0.0202  0.2383  0.2036
  364MOL    O6729833   0.006   2.874   5.264  0.1509 -0.1742 -0.1764
  364MOL    H6829834   7.637   3.000   5.269 -1.9627 -0.7012  1.1002
  364MOL    H6929835   7.629   2.874   5.388  0.5974 -0.5327 -0.1245
  364MOL    C7029836   0.083   2.781   5.339 -0.6472 -0.9435  0.3174
  364MOL    O7129837   0.007   2.677   5.389 -0.1293  0.0165 -0.5101
  364MOL    H7229838   0.140   2.829   5.418 -1.7859  0.3978  0.3317
  364MOL    H7329839   0.165   2.746   5.276  1.5733 -0.5751  2.9168
  364MOL    C7429840   7.774   2.581   5.286 -0.3150 -0.3132 -0.7045
  364MOL    O7529841   0.103   2.500   5.269  0.5158 -0.4436  0.4268
  364MOL    H7629842   7.753   2.635   5.194 -0.8344  1.7551  0.6030
  364MOL    H7729843   7.685   2.520   5.299  2.1488 -3.6527  1.1069
  364MOL    C7829844   0.115   2.410   5.377 -0.5512 -0.4055  0.0276
  364MOL    O7929845   0.194   2.300   5.331  0.8840  0.3402 -0.0196
  364MOL    H8029846   0.018   2.370   5.407 -0.4988 -0.1314  0.5680
  364MOL    H8129847   0.160   2.466   5.459  0.6689 -1.3009 -0.0047
  364MOL    H8229848   0.286   2.318   5.317  0.2850  2.4522 -1.5118
  365MOL     C129849   7.368   3.862   2.418  0.2139  0.8402  0.0965
  365MOL     O229850   7.350   3.926   2.541 -0.3247 -0.1243 -0.1226
  365MOL     H329851   7.333   3.923   2.335 -0.5224  0.5267  0.1788
  365MOL     H429852   7.475   3.846   2.399  0.4298  0.5189  1.5014
  365MOL     H529853   7.314   3.768   2.423  1.0344  0.2709 -1.4342
  365MOL     C629854   7.398   4.062   2.556 -0.1255  0.0427 -0.4751
  365MOL     O729855   7.350   4.143   2.454 -0.1260  0.7936 -0.1186
  365MOL     H829856   7.507   4.068   2.544 -0.2028  0.0659 -1.1986
  365MOL     H929857   7.363   4.096   2.653 -0.8219 -2.7095  0.2917
  365MOL    C1029858   7.217   4.172   2.464 -0.5091  0.4508  0.3762
  365MOL    O1129859   7.189   4.275   2.548  0.0559 -0.0173 -0.2643
  365MOL    H1229860   7.157   4.082   2.482  1.6243 -1.3258 -1.2027
  365MOL    H1329861   7.198   4.208   2.363  3.0973  0.7523 -0.2553
  365MOL    C1429862   7.247   4.397   2.521 -0.1561  0.0230  0.1825
  365MOL    O1529863   7.194   4.454   2.402 -0.3605  0.1079  0.2754
  365MOL    H1629864   7.352   4.393   2.493 -0.2788 -0.8305 -0.1779
  365MOL    H1729865   7.232   4.455   2.612  1.1607  1.9788 -0.8011
  365MOL    C1829866   7.062   4.502   2.410  0.0251  0.5872 -0.1774
  365MOL    O1929867   7.054   4.613   2.500  0.4038  0.0740 -0.2017
  365MOL    H2029868   6.993   4.436   2.463  1.7042 -0.6385  0.5381
  365MOL    H2129869   7.028   4.537   2.313  0.0310 -0.0717 -0.4141
  365MOL    C2229870   7.108   4.731   2.451  0.5460 -0.7721  0.8071
  365MOL    O2329871   7.020   4.775   2.350  0.1027  0.4251  0.0703
  365MOL    H2429872   7.211   4.725   2.416  0.4133 -0.3803  0.3408
  365MOL    H2529873   7.119   4.802   2.533  1.1864  0.1343 -0.0488
  365MOL    C2629874   6.941   4.883   2.393 -0.5041 -0.1906 -0.2321
  365MOL    O2729875   7.015   4.991   2.412  0.1326 -0.1131 -0.3734
  365MOL    H2829876   6.887   4.861   2.485  0.1000  2.5536  0.8243
  365MOL    H2929877   6.861   4.906   2.323 -0.7252 -1.6003 -0.4475
  365MOL    C3029878   7.040   5.059   2.293 -0.4353 -0.0474 -0.4720
  365MOL    O3129879   6.939   5.162   2.277 -0.1571  0.5262  0.2876
  365MOL    H3229880   7.040   4.988   2.210 -0.7895 -2.1710  1.2962
  365MOL    H3329881   7.130   5.120   2.295 -0.3456 -0.2262  0.8648
  365MOL    C3429882   6.960   5.280   2.348 -0.5087  0.0671  1.2019
  365MOL    O3529883   7.051   5.362   2.280  0.2122 -0.1948  0.1227
  365MOL    H3629884   7.006   5.255   2.443  2.3998 -1.9055 -0.6261
  365MOL    H3729885   6.862   5.325   2.361 -0.3227  0.3987  1.4557
  365MOL    C3829886   6.988   5.441   2.184 -0.1175 -0.3966  0.1255
  365MOL    O3929887   6.898   5.538   2.232 -0.3214 -0.5096  0.2224
  365MOL    H4029888   6.935   5.387   2.106  1.1516  1.0030 -1.7640
  365MOL    H4129889   7.068   5.489   2.127 -1.5041  3.3794  1.1642
  365MOL    C4229890   6.961   5.656   2.275  0.3476 -0.6170  0.0787
  365MOL    O4329891   7.015   5.738   2.174 -0.0752 -0.2176 -0.1123
  365MOL    H4429892   7.034   5.629   2.351  0.6984 -0.3381 -0.1573
  365MOL    H4529893   6.899   5.725   2.333  0.5601  1.8982 -2.5509
  365MOL    C4629894   6.917   5.816   2.107  0.7612 -0.0283 -0.1409
  365MOL    O4729895   6.973   5.887   2.005 -0.1169 -0.6416  0.1611
  365MOL    H4829896   6.869   5.888   2.174 -1.9822 -1.2834 -0.6864
  365MOL    H4929897   6.839   5.747   2.073  0.1732  0.2375  0.6376
  365MOL    C5029898   7.033   5.808   1.907  0.3087  0.8235  0.2215
  365MOL    O5129899   6.946   5.752   1.819  0.1033 -0.7359 -0.0940
  365MOL    H5229900   7.089   5.723   1.947  0.9431  0.0203 -2.2715
  365MOL    H5329901   7.103   5.872   1.853  1.5874 -1.9123 -1.4997
  365MOL    C5429902   6.872   5.844   1.743 -0.6231  0.0097  0.0990
  365MOL    O5529903   6.778   5.778   1.666 -0.0626  0.3086 -0.2281
  365MOL    H5629904   6.939   5.911   1.691  0.0048  0.7884  1.8547
  365MOL    H5729905   6.828   5.913   1.816 -0.2057 -2.1635  2.5087
  365MOL    C5829906   6.719   5.871   1.586 -0.2946 -0.2681  0.2370
  365MOL    O5929907   6.796   5.943   1.492 -0.6448  0.4807  0.3257
  365MOL    H6029908   6.662   5.944   1.644  1.1774 -0.5745  2.1351
  365MOL    H6129909   6.647   5.813   1.528  0.3755 -1.2545  0.3815
  365MOL    C6229910   6.861   5.864   1.397 -0.2070  0.1208 -0.5356
  365MOL    O6329911   6.777   5.783   1.320  0.1733  0.1444 -0.3795
  365MOL    H6429912   6.913   5.790   1.457 -0.7520  0.6222  0.5789
  365MOL    H6529913   6.936   5.917   1.338 -0.5532 -0.8775 -1.8830
  365MOL    C6629914   6.695   5.842   1.235  0.5090  0.0217  0.4785
  365MOL    O6729915   6.688   5.763   1.120 -0.3101  0.0077  0.0886
  365MOL    H6829916   6.734   5.939   1.200  1.6107 -0.5987 -0.0575
  365MOL    H6929917   6.593   5.853   1.271  1.2386 -0.2413  2.6650
  365MOL    C7029918   6.793   5.773   1.029 -0.2242  0.4672  0.0991
  365MOL    O7129919   6.773   5.890   0.951 -0.6232  0.0097 -0.3214
  365MOL    H7229920   6.791   5.685   0.964 -1.8196 -0.0066  0.7457
  365MOL    H7329921   6.887   5.784   1.083  1.0512  1.5526 -2.2889
  365MOL    C7429922   6.664   5.881   0.864  0.5125  0.0922  0.3285
  365MOL    O7529923   6.622   6.007   0.818 -0.1268  0.3760  0.4489
  365MOL    H7629924   6.587   5.827   0.919  0.4598 -0.1667  0.0014
  365MOL    H7729925   6.675   5.824   0.772  1.4547  0.8074 -0.0154
  365MOL    C7829926   6.531   6.074   0.903 -0.1736  0.3981 -0.2142
  365MOL    O7929927   6.508   6.208   0.860  0.3187 -0.1818  0.4229
  365MOL    H8029928   6.577   6.082   1.001  0.0617  0.7223 -0.3537
  365MOL    H8129929   6.435   6.023   0.904 -0.6653  1.2283 -2.1536
  365MOL    H8229930   6.448   6.188   0.790 -0.4435 -1.2541  1.3632
  366MOL     C129931   6.474   0.294   0.682  0.6637  0.1840  0.8507
  366MOL     O229932   6.527   0.184   0.600 -0.2494 -0.3669 -0.4986
  366MOL     H329933   6.483   0.253   0.782  0.4012 -1.8176  0.0738
  366MOL     H429934   6.536   0.382   0.664  0.6107 -0.0648 -0.5747
  366MOL     H529935   6.369   0.321   0.665  0.2463 -0.4998  2.2833
  366MOL     C629936   6.460   0.068   0.614  0.2623 -0.2709  0.7249
  366MOL     O729937   6.335   0.087   0.565  0.5648 -0.6231 -0.1983
  366MOL     H829938   6.446   0.033   0.716  0.2003 -2.3043  0.0521
  366MOL     H929939   6.517   7.772   0.565  2.2731  2.8846 -2.2562
  366MOL    C1029940   6.327   0.063   0.430 -0.1990 -0.4551 -0.7672
  366MOL    O1129941   6.301   7.715   0.390  0.0431 -0.0685 -0.8166
  366MOL    H1229942   6.411   0.102   0.374  1.1553 -1.1735  0.7234
  366MOL    H1329943   6.232   0.105   0.396 -1.0027 -0.6455  1.1543
  366MOL    C1429944   6.191   7.664   0.457  0.1324  0.2035 -0.0878
  366MOL    O1529945   6.184   7.526   0.427 -0.2711  0.2648  0.6863
  366MOL    H1629946   6.091   7.705   0.447  0.0324  0.4166  1.5829
  366MOL    H1729947   6.217   7.660   0.563  0.6707  2.3366 -0.1066
  366MOL    C1829948   6.119   7.502   0.306  0.0613  0.8095 -0.4502
  366MOL    O1929949   5.981   7.502   0.308  0.1223  0.0484  0.1142
  366MOL    H2029950   6.159   7.416   0.252 -0.5162  0.6135 -0.5715
  366MOL    H2129951   6.152   7.576   0.233 -0.8607  0.7680 -0.9148
  366MOL    C2229952   5.924   7.397   0.379  0.6307 -0.1126 -0.5997
  366MOL    O2329953   5.790   7.403   0.358 -0.2370  0.3277  0.7636
  366MOL    H2429954   5.938   7.403   0.487 -1.8436  0.7707 -0.3100
  366MOL    H2529955   5.952   7.301   0.336 -0.9101 -0.5958 -0.5525
  366MOL    C2629956   5.721   7.502   0.433 -0.5559  0.1491  0.0062
  366MOL    O2729957   5.725   7.466   0.571  0.4366  0.4859 -0.2316
  366MOL    H2829958   5.619   7.508   0.393 -0.7994 -0.2738  0.5604
  366MOL    H2929959   5.756   7.604   0.415 -0.2647 -0.0024 -0.2916
  366MOL    C3029960   5.673   7.560   0.660  0.1817 -0.7545 -0.0862
  366MOL    O3129961   5.532   7.563   0.660 -0.3512 -0.6586  0.3259
  366MOL    H3229962   5.715   7.660   0.651 -0.9887 -0.3831 -1.6673
  366MOL    H3329963   5.698   7.518   0.757  1.3260  0.9881  0.3919
  366MOL    C3429964   5.465   7.450   0.706 -0.0947 -0.1624 -1.0260
  366MOL    O3529965   5.475   7.432   0.843  0.1534  0.0742  0.1004
  366MOL    H3629966   5.510   7.368   0.651  3.1017  0.1346  1.0271
  366MOL    H3729967   5.361   7.458   0.673  0.1173 -1.2858 -1.9806
  366MOL    C3829968   5.415   7.313   0.884 -0.1961 -0.0366  0.2997
  366MOL    O3929969   5.507   7.212   0.863 -0.5747  0.0183 -0.7012
  366MOL    H4029970   5.315   7.297   0.844 -0.0715  1.3126 -0.5498
  366MOL    H4129971   5.402   7.329   0.991  0.8960  2.1012  0.1308
  366MOL    C4229972   5.453   7.085   0.890 -0.5172 -0.3343 -0.3390
  366MOL    O4329973   5.351   7.045   0.806  0.2806  0.4785 -0.0453
  366MOL    H4429974   5.412   7.077   0.991 -0.9506  0.4662 -0.4516
  366MOL    H4529975   5.535   7.012   0.888 -1.1856 -1.1207  0.6372
  366MOL    C4629976   5.238   6.989   0.875 -0.0058 -0.1703 -0.5489
  366MOL    O4729977   5.277   6.887   0.963 -0.4464  0.0886  0.1056
  366MOL    H4829978   5.163   6.959   0.802 -0.8868  1.9507 -0.5444
  366MOL    H4929979   5.188   7.057   0.944 -2.1712 -2.5579  0.2849
  366MOL    C5029980   5.320   6.780   0.891 -0.1016  0.0115  0.3926
  366MOL    O5129981   5.215   6.707   0.839  0.7610 -0.1325  0.1564
  366MOL    H5229982   5.363   6.710   0.962  1.1434  0.6706  0.2917
  366MOL    H5329983   5.398   6.812   0.821  2.8076 -3.4491  1.9098
  366MOL    C5429984   5.130   6.649   0.935 -0.6131 -0.3098 -0.3933
  366MOL    O5529985   5.189   6.554   1.021 -0.1596 -0.3473 -0.2036
  366MOL    H5629986   5.050   6.598   0.881 -0.2089 -2.3879  0.9053
  366MOL    H5729987   5.084   6.730   0.992  0.3790 -1.1823  1.7061
  366MOL    C5829988   5.244   6.444   0.953  0.5203  0.0331  0.0426
  366MOL    O5929989   5.149   6.355   0.900  0.1286  0.3585  0.3331
  366MOL    H6029990   5.303   6.394   1.030  0.6699  0.9437  0.5326
  366MOL    H6129991   5.307   6.488   0.876  3.1532 -2.1239  0.8909
  366MOL    C6229992   5.123   6.244   0.984  0.3091  0.1047  0.1416
  366MOL    O6329993   5.048   6.281   1.098  0.5899  0.1562 -0.3044
  366MOL    H6429994   5.213   6.204   1.031  1.2057  0.3799 -1.3194
  366MOL    H6529995   5.082   6.154   0.938  0.0413  0.0500  0.4841
  366MOL    C6629996   4.921   6.333   1.072  0.5276  0.1811 -0.1018
  366MOL    O6729997   4.837   6.244   1.019 -0.2455  0.0671  0.2924
  366MOL    H6829998   4.936   6.403   0.989 -0.2412 -0.3031 -0.6535
  366MOL    H6929999   4.891   6.389   1.160  0.9561  0.5570 -0.1922
  366MOL    C7030000   4.771   6.168   1.114 -0.0067  0.6245 -0.2846
  366MOL    O7130001   4.655   6.234   1.160 -0.2087  0.3544 -0.1640
  366MOL    H7230002   4.836   6.138   1.195 -2.1875 -0.6294  1.0618
  366MOL    H7330003   4.741   6.073   1.069 -0.8702  0.6779  0.1566
  366MOL    C7430004   4.552   6.247   1.062 -0.6561  0.4178 -0.4600
  366MOL    O7530005   4.483   6.127   1.041 -0.0073 -0.1895 -0.2969
  366MOL    H7630006   4.590   6.283   0.966  0.8646 -1.4691 -0.5909
  366MOL    H7730007   4.482   6.319   1.105 -0.2892 -0.0560  0.9517
  366MOL    C7830008   4.400   6.092   1.146  0.4147  0.0714  0.3557
  366MOL    O7930009   4.355   5.960   1.127  0.3711 -0.1724 -0.1952
  366MOL    H8030010   4.320   6.166   1.154  1.5362  1.1517  1.8572
  366MOL    H8130011   4.457   6.086   1.239  0.9200 -0.3026  0.0230
  366MOL    H8230012   4.347   5.943   1.034 -0.8206 -0.0191 -0.1405
  367MOL     C130013   3.745   3.334   4.510 -0.7206  0.5948  0.1866
  367MOL     O230014   3.730   3.226   4.602 -0.3698 -0.0766  0.9537
  367MOL     H330015   3.690   3.308   4.420 -0.7088  1.7311 -0.1564
  367MOL     H430016   3.689   3.423   4.539 -1.9179  0.6798 -2.2566
  367MOL     H530017   3.847   3.361   4.483  0.1130 -2.2839  0.2615
  367MOL     C630018   3.790   3.107   4.555  0.2422 -0.4955  0.1234
  367MOL     O730019   3.929   3.122   4.519  0.6424  0.6548  0.1212
  367MOL     H830020   3.752   3.066   4.461  0.5719  0.3223 -0.3729
  367MOL     H930021   3.787   3.032   4.634 -1.2437  0.4843  1.0459
  367MOL    C1030022   4.010   3.160   4.624 -0.3984  0.3922  0.5291
  367MOL    O1130023   4.010   3.071   4.727 -0.4073 -0.1165  0.3287
  367MOL    H1230024   3.982   3.254   4.672 -0.3251  0.9910 -0.5834
  367MOL    H1330025   4.112   3.162   4.586  0.3006 -0.8007  2.2908
  367MOL    C1430026   4.099   3.109   4.829 -0.1353  0.8272 -0.4094
  367MOL    O1530027   4.234   3.089   4.803 -0.0992 -0.2023  0.1791
  367MOL    H1630028   4.058   3.051   4.912 -1.5987  1.3045 -0.7832
  367MOL    H1730029   4.078   3.213   4.853  0.4819  1.1725 -1.3472
  367MOL    C1830030   4.306   3.139   4.913  0.4004 -0.0126 -0.0901
  367MOL    O1930031   4.273   3.269   4.958 -0.1687 -0.0238  0.7570
  367MOL    H2030032   4.409   3.136   4.876  0.0420  2.2814 -1.3609
  367MOL    H2130033   4.291   3.081   5.003 -1.3462  1.3037  0.4877
  367MOL    C2230034   4.322   3.300   5.087 -0.5566 -0.0168 -0.5558
  367MOL    O2330035   4.468   3.313   5.088 -0.2735 -0.4791  0.1790
  367MOL    H2430036   4.294   3.229   5.165 -1.6605 -0.6451 -1.5151
  367MOL    H2530037   4.274   3.390   5.125  0.3347 -0.1322  0.8797
  367MOL    C2630038   4.519   3.312   5.215  0.0449  0.5520 -0.4145
  367MOL    O2730039   4.508   3.193   5.286 -0.4990  0.3134  0.2750
  367MOL    H2830040   4.473   3.382   5.285  1.8772  3.4300 -1.9927
  367MOL    H2930041   4.626   3.333   5.213 -0.1753  1.6112 -1.6490
  367MOL    C3030042   4.590   3.093   5.232 -0.2271 -0.0295 -0.7434
  367MOL    O3130043   4.730   3.132   5.245  0.6940 -0.3773  0.1834
  367MOL    H3230044   4.565   3.093   5.126  1.8082  0.7302 -1.2509
  367MOL    H3330045   4.576   2.992   5.271 -0.0389  0.7140  1.3056
  367MOL    C3430046   4.779   3.115   5.373 -0.1014 -0.5401  0.0190
  367MOL    O3530047   4.883   3.019   5.355  0.0334  0.3053  0.4184
  367MOL    H3630048   4.705   3.075   5.441 -0.3952 -0.9136 -0.5236
  367MOL    H3730049   4.800   3.213   5.415 -0.3549 -1.2523  1.8163
  367MOL    C3830050   5.004   3.075   5.314 -0.1677 -0.5384 -0.3317
  367MOL    O3930051   5.074   3.134   5.419  0.2612 -0.1980  0.3057
  367MOL    H4030052   4.990   3.150   5.236 -1.5464  1.4843  1.7558
  367MOL    H4130053   5.056   2.986   5.281  0.7013  0.2909 -1.2511
  367MOL    C4230054   5.205   3.175   5.393 -0.1140 -0.0186  0.4442
  367MOL    O4330055   5.292   3.067   5.369  0.0277 -0.1782  0.7277
  367MOL    H4430056   5.248   3.237   5.472 -0.2023  0.1631  0.3474
  367MOL    H4530057   5.203   3.236   5.302 -2.4916 -1.4982 -0.5258
  367MOL    C4630058   5.309   2.984   5.473  0.0584  0.0846  0.0228
  367MOL    O4730059   5.404   2.894   5.450 -0.1094 -0.4821  0.3699
  367MOL    H4830060   5.214   2.945   5.508 -0.1870  0.5882 -0.0780
  367MOL    H4930061   5.341   3.044   5.558  1.6392 -1.2182  0.3921
  367MOL    C5030062   5.365   2.799   5.359 -0.2042 -0.2275 -0.4062
  367MOL    O5130063   5.262   2.714   5.397 -0.1380 -0.4595  0.1616
  367MOL    H5230064   5.450   2.740   5.326 -0.2967 -0.8078  0.3909
  367MOL    H5330065   5.315   2.848   5.275  0.3848  0.3547 -0.4174
  367MOL    C5430066   5.304   2.593   5.466 -0.5660 -0.3434  0.8101
  367MOL    O5530067   5.349   2.615   5.596  0.3885  0.2538 -0.3514
  367MOL    H5630068   5.372   2.527   5.411  0.8883  1.4208  0.4603
  367MOL    H5730069   5.216   2.527   5.462 -0.3954 -0.5555  0.5340
  367MOL    C5830070   5.247   2.637   5.686  0.6273 -0.1788 -1.1212
  367MOL    O5930071   5.301   2.657   5.811 -0.0630  0.2081  0.0161
  367MOL    H6030072   5.184   2.549   5.690  0.9545 -0.3666  0.1577
  367MOL    H6130073   5.177   2.715   5.658  1.6113  0.5560 -1.5814
  367MOL    C6230074   5.362   2.783   5.824  1.0648 -0.1936  0.0490
  367MOL    O6330075   5.271   2.884   5.873  0.3803  0.3324  0.3195
  367MOL    H6430076   5.414   2.819   5.735 -1.2798 -1.3051 -1.8433
  367MOL    H6530077   5.439   2.754   5.894  1.1524 -2.5451 -0.9784
  367MOL    C6630078   5.248   2.866   6.015  0.5611 -0.2168 -0.1548
  367MOL    O6730079   5.157   2.766   6.039  0.3776  0.3722  0.3805
  367MOL    H6830080   5.209   2.959   6.057  1.1135 -0.1697  0.2770
  367MOL    H6930081   5.342   2.846   6.068  0.5682  1.3658  0.4690
  367MOL    C7030082   5.023   2.787   6.005 -0.1362  0.2128  0.9025
  367MOL    O7130083   4.963   2.882   6.083  0.3596  0.4106  0.4503
  367MOL    H7230084   4.973   2.690   5.995  0.9118 -0.2817  0.4440
  367MOL    H7330085   5.032   2.823   5.902 -1.7266 -2.6904 -0.3411
  367MOL    C7430086   4.887   2.819   6.182 -0.2388 -0.3529  0.4569
  367MOL    O7530087   4.826   2.907   6.267 -0.8113  0.1286  0.1178
  367MOL    H7630088   4.949   2.744   6.229 -0.0079 -1.0161 -0.8921
  367MOL    H7730089   4.801   2.769   6.137  0.7614 -1.6551 -0.0294
  367MOL    C7830090   4.906   2.964   6.366 -0.2663 -0.1201 -0.2042
  367MOL    O7930091   4.831   3.067   6.427  0.0291 -0.4813 -0.3929
  367MOL    H8030092   4.998   3.012   6.333 -0.9515  1.2819 -0.0894
  367MOL    H8130093   4.939   2.883   6.432  1.9125 -1.5766 -2.9540
  367MOL    H8230094   4.801   3.128   6.362 -0.1893 -0.3135 -0.1389
  368MOL     C130095   6.119   0.540   5.836 -0.3616  0.1005 -0.0420
  368MOL     O230096   6.257   0.516   5.830 -0.0715  0.4410 -0.4329
  368MOL     H330097   6.078   0.555   5.736 -0.9208  0.9254  0.3075
  368MOL     H430098   6.074   0.446   5.867 -0.8761 -0.4053 -2.2247
  368MOL     H530099   6.083   0.618   5.902 -2.2549 -0.4336 -0.4034
  368MOL     C630100   6.283   0.397   5.772 -0.4234  0.8895  0.0120
  368MOL     O730101   6.248   0.290   5.850  0.1414  1.2174 -0.4490
  368MOL     H830102   6.390   0.395   5.751 -0.4981  0.3195 -0.3167
  368MOL     H930103   6.243   0.391   5.671 -0.0770  1.7481 -0.1836
  368MOL    C1030104   6.340   0.263   5.948 -0.4073 -0.9204  0.0339
  368MOL    O1130105   6.314   0.145   6.004  0.2523 -0.4858  0.4088
  368MOL    H1230106   6.327   0.337   6.027  1.9558  1.5115 -1.7703
  368MOL    H1330107   6.445   0.265   5.921 -0.8713  0.0017 -1.8014
  368MOL    C1430108   6.326   0.033   5.917  0.8834  0.3388 -0.8527
  368MOL    O1530109   6.368   7.703   5.983  0.0114 -0.9161 -0.1259
  368MOL    H1630110   6.411   0.046   5.850  0.8339 -0.1041 -1.0076
  368MOL    H1730111   6.236   0.024   5.855 -1.1390  3.0781  1.5744
  368MOL    C1830112   6.277   7.659   6.073  0.0263 -0.6206 -0.4587
  368MOL    O1930113   6.305   7.531   6.119 -0.4173  0.0220 -0.1242
  368MOL    H2030114   6.175   7.653   6.035 -0.4760 -0.4099  0.8485
  368MOL    H2130115   6.256   7.728   6.155  1.2171 -1.0982  0.2637
  368MOL    C2230116   6.417   7.525   6.205 -0.0811  0.4059 -0.1565
  368MOL    O2330117   6.387   7.598   6.318 -0.3395 -0.0753 -0.4404
  368MOL    H2430118   6.503   7.572   6.157  0.9529 -0.4563  0.8189
  368MOL    H2530119   6.451   7.429   6.242 -0.6183  0.4375  0.4338
  368MOL    C2630120   6.483   7.589   6.415 -0.4952 -0.5951  0.3374
  368MOL    O2730121   6.616   7.620   6.373  0.3275 -0.0822  0.0983
  368MOL    H2830122   6.475   7.501   6.480 -0.5783 -1.1971 -0.4882
  368MOL    H2930123   6.459   7.667   6.487  1.4758 -1.2106  1.7035
  368MOL    C3030124   6.717   7.638   6.477  0.1286 -0.6238  0.2254
  368MOL    O3130125   6.726   7.521   6.560  0.5209  0.4718 -0.1992
  368MOL    H3230126   6.695   7.728   6.534 -1.7204 -1.2851  0.5963
  368MOL    H3330127   6.812   7.653   6.427 -1.0091 -0.0649 -1.8531
  368MOL    C3430128   6.782   7.409   6.501 -0.0579  0.3140  0.3995
  368MOL    O3530129   6.913   7.434   6.477 -0.1455  0.4427 -0.2622
  368MOL    H3630130   6.729   7.393   6.407 -2.6961  3.6279  1.2169
  368MOL    H3730131   6.757   7.325   6.566 -0.7007 -2.3539 -3.1170
  368MOL    C3830132   6.980   7.328   6.410  0.3805  0.2746  0.2522
  368MOL    O3930133   6.962   7.330   6.274  0.2759 -0.4762 -0.1587
  368MOL    H4030134   6.949   7.232   6.451  2.5014 -1.1068 -1.2961
  368MOL    H4130135   7.083   7.347   6.442  0.4090  0.1414  0.2413
  368MOL    C4230136   7.006   7.449   6.205  0.9715 -0.0967  0.0269
  368MOL    O4330137   6.967   7.448   6.079 -0.2740 -0.9350 -0.3328
  368MOL    H4430138   7.114   7.448   6.201  0.9337  0.1545 -1.2940
  368MOL    H4530139   6.976   7.532   6.269 -1.4511  1.3491 -2.8443
  368MOL    C4630140   6.970   7.567   6.018 -0.1684 -0.2475 -0.6352
  368MOL    O4730141   6.879   7.664   6.073 -0.5478 -0.0028  0.1232
  368MOL    H4830142   6.960   7.561   5.910 -1.8345  1.1133 -0.5676
  368MOL    H4930143   7.070   7.609   6.026 -0.3617 -0.1308  1.4096
  368MOL    C5030144   6.752   7.661   6.019  0.1155  0.6551 -0.9108
  368MOL    O5130145   6.744   7.702   5.886 -0.0459 -0.4097  0.0859
  368MOL    H5230146   6.689   7.721   6.084  1.9688  0.9174  0.6959
  368MOL    H5330147   6.716   7.559   6.016 -1.8472  1.1831  2.7668
  368MOL    C5430148   6.778   0.059   5.868  0.2322 -1.4122 -0.3583
  368MOL    O5530149   6.775   0.088   5.739  1.3780 -0.5457 -0.1671
  368MOL    H5630150   6.865   0.098   5.920 -0.6222  0.2714 -0.1554
  368MOL    H5730151   6.708   0.121   5.924  1.6299  0.3659 -0.5332
  368MOL    C5830152   6.643   0.086   5.692  0.1369  0.2214 -0.1638
  368MOL    O5930153   6.573   0.207   5.706 -0.0666 -0.9204 -0.2767
  368MOL    H6030154   6.592   7.775   5.707 -0.5857 -0.0382 -3.7536
  368MOL    H6130155   6.645   0.066   5.585  0.3179  1.7309 -0.4497
  368MOL    C6230156   6.633   0.313   5.640 -0.4066  0.0141  0.5813
  368MOL    O6330157   6.618   0.437   5.704  0.2891  0.1787 -0.1875
  368MOL    H6430158   6.594   0.331   5.540  2.6360  2.8419 -0.1836
  368MOL    H6530159   6.738   0.285   5.628  0.0470  1.8736  0.1259
  368MOL    C6630160   6.703   0.443   5.817  0.0683 -0.2256  0.1613
  368MOL    O6730161   6.838   0.442   5.777  0.2473  0.6600 -0.1624
  368MOL    H6830162   6.696   0.344   5.863  0.6433  0.1568  1.0752
  368MOL    H6930163   6.673   0.525   5.882  3.2904  1.2727 -0.1767
  368MOL    C7030164   6.887   0.567   5.727 -0.4344  0.1351 -0.1245
  368MOL    O7130165   6.872   0.659   5.830 -0.4380  0.4678  0.6161
  368MOL    H7230166   6.821   0.585   5.643 -1.5940  0.1108  0.7555
  368MOL    H7330167   6.991   0.548   5.703 -0.2639 -2.2437  2.1953
  368MOL    C7430168   6.983   0.684   5.906  0.6132  0.2485 -0.2350
  368MOL    O7530169   7.079   0.756   5.844  0.1804  0.6656 -0.0198
  368MOL    H7630170   7.029   0.590   5.937  2.5386  0.7721 -1.4004
  368MOL    H7730171   6.940   0.728   5.995  1.8350 -1.5799  1.3018
  368MOL    C7830172   7.034   0.886   5.824 -0.8731  0.7356  0.2340
  368MOL    O7930173   7.143   0.979   5.813  0.0317  0.2958 -0.0611
  368MOL    H8030174   6.975   0.930   5.905 -0.5671  1.7159 -0.0664
  368MOL    H8130175   6.967   0.877   5.738  1.0078  0.9848 -1.3050
  368MOL    H8230176   7.182   0.990   5.899  1.7521  0.0861 -0.7948
  369MOL     C130177   3.182   7.763   1.352 -0.4428 -0.6027 -0.2397
  369MOL     O230178   3.321   7.735   1.384  0.2197  0.2363  0.0370
  369MOL     H330179   3.103   7.705   1.399  0.0956  0.3899  1.9246
  369MOL     H430180   3.147   0.079   1.378 -0.4409 -1.0557  1.5772
  369MOL     H530181   3.162   7.745   1.246 -1.3009 -0.7921 -0.0539
  369MOL     C630182   3.366   0.017   1.501  0.5177 -0.1086 -0.7123
  369MOL     O730183   3.325   0.146   1.492 -0.3669 -0.1868  0.0784
  369MOL     H830184   3.473   0.004   1.516  0.1451 -1.0404  1.3247
  369MOL     H930185   3.316   7.756   1.587 -2.8206  0.0989 -2.4440
  369MOL    C1030186   3.302   0.206   1.613 -0.5053 -0.5628 -0.5362
  369MOL    O1130187   3.420   0.240   1.679 -0.2465 -0.0016  0.6830
  369MOL    H1230188   3.241   0.144   1.679  2.0956 -2.6843 -0.0517
  369MOL    H1330189   3.237   0.291   1.593 -0.3089 -0.1768  0.3901
  369MOL    C1430190   3.476   0.360   1.638  0.2668  0.3021  0.4205
  369MOL    O1530191   3.419   0.466   1.713 -0.2162 -0.0566  0.4679
  369MOL    H1630192   3.468   0.382   1.532 -3.2723 -0.3000  0.4996
  369MOL    H1730193   3.584   0.360   1.649  0.5838 -0.1856 -2.3300
  369MOL    C1830194   3.456   0.455   1.847 -0.1124  0.2348 -0.8132
  369MOL    O1930195   3.443   0.578   1.913  0.2895 -0.5414 -0.6704
  369MOL    H2030196   3.562   0.428   1.850 -0.2236 -0.1659 -0.3578
  369MOL    H2130197   3.400   0.379   1.902 -1.9690  1.5998 -0.7813
  369MOL    C2230198   3.316   0.592   1.962 -0.5553  0.3200 -0.2648
  369MOL    O2330199   3.292   0.520   2.078  0.7933 -0.0804 -0.6862
  369MOL    H2430200   3.250   0.569   1.878  0.4047 -1.3545 -0.5790
  369MOL    H2530201   3.302   0.698   1.985 -0.0914 -0.0212  1.6297
  369MOL    C2630202   3.166   0.549   2.142  0.1532  0.2821 -0.2544
  369MOL    O2730203   3.173   0.671   2.213  0.2739 -0.2441  0.5774
  369MOL    H2830204   3.122   0.472   2.204 -0.6277  1.0027  0.0971
  369MOL    H2930205   3.084   0.559   2.071 -1.6756 -2.6193  1.4222
  369MOL    C3030206   3.234   0.649   2.335  0.2366 -0.2158  0.3935
  369MOL    O3130207   3.150   0.566   2.413  0.2312  0.0712  0.4062
  369MOL    H3230208   3.253   0.746   2.381 -2.4676  1.2478 -1.4038
  369MOL    H3330209   3.332   0.606   2.316  0.6737 -0.3581  2.8054
  369MOL    C3430210   3.167   0.590   2.551  0.5171 -0.0317 -0.2002
  369MOL    O3530211   3.109   0.705   2.602 -0.1638 -0.0501 -0.3631
  369MOL    H3630212   3.274   0.595   2.571  0.4247 -2.1422  0.9679
  369MOL    H3730213   3.135   0.496   2.596  0.5449  1.0473  2.0939
  369MOL    C3830214   2.977   0.721   2.568 -0.4710 -0.3256 -0.4029
  369MOL    O3930215   2.908   0.816   2.643  0.4109 -0.2658  0.4270
  369MOL    H4030216   2.926   0.626   2.581 -1.2987  0.3356  1.4082
  369MOL    H4130217   2.961   0.736   2.461  0.5004  0.5343 -0.4329
  369MOL    C4230218   2.936   0.944   2.612  0.0132  0.2474 -0.2011
  369MOL    O4330219   2.898   0.977   2.491  0.6725 -0.4870  0.0665
  369MOL    H4430220   3.042   0.968   2.626 -0.3923  1.3745  1.0547
  369MOL    H4530221   2.878   0.999   2.685  0.5904 -0.0708  0.5053
  369MOL    C4630222   2.754   0.992   2.485  0.1781  0.4798  0.0815
  369MOL    O4730223   2.721   1.035   2.358 -0.5675  0.4086 -0.0582
  369MOL    H4830224   2.713   1.079   2.535 -1.5274 -0.1903 -0.1289
  369MOL    H4930225   2.694   0.904   2.509  0.6433  0.4086  1.0029
  369MOL    C5030226   2.735   0.935   2.264  0.7359 -0.0104  0.3372
  369MOL    O5130227   2.636   0.838   2.275  1.3536  0.4100 -0.4517
  369MOL    H5230228   2.833   0.888   2.257 -1.0929 -3.6682 -2.3659
  369MOL    H5330229   2.717   0.964   2.161  0.0302 -0.8934  0.2004
  369MOL    C5430230   2.669   0.714   2.212  0.5562  0.0905  0.1761
  369MOL    O5530231   2.737   0.637   2.295 -0.5289  0.5589  0.0076
  369MOL    H5630232   2.733   0.729   2.125 -0.4615 -0.0928 -0.6199
  369MOL    H5730233   2.577   0.663   2.181  0.2024  1.3142 -0.8178
  369MOL    C5830234   2.663   0.597   2.407 -0.0172  0.5032 -0.0319
  369MOL    O5930235   2.731   0.499   2.486 -0.6631  0.1384 -0.0863
  369MOL    H6030236   2.563   0.559   2.392  0.9752 -2.6577  0.9399
  369MOL    H6130237   2.650   0.687   2.468  0.8854  1.0737 -0.6630
  369MOL    C6230238   2.720   0.372   2.438  0.4669 -0.2095  0.4783
  369MOL    O6330239   2.843   0.310   2.453 -0.3324  0.1347 -0.2640
  369MOL    H6430240   2.668   0.359   2.343  0.9379  1.5725 -0.0463
  369MOL    H6530241   2.648   0.327   2.507 -0.7085 -0.9530 -1.1903
  369MOL    C6630242   2.930   0.351   2.356 -0.0248  0.5192  0.5935
  369MOL    O6730243   2.896   0.296   2.230  0.0042 -0.0890 -0.0235
  369MOL    H6830244   3.030   0.321   2.387 -0.9314 -3.0969  0.2396
  369MOL    H6930245   2.944   0.459   2.360  1.7331  0.2932  0.8227
  369MOL    C7030246   2.895   0.155   2.231 -0.3297  0.0598 -0.8366
  369MOL    O7130247   3.017   0.093   2.270  0.2778  0.0409  0.6984
  369MOL    H7230248   2.863   0.139   2.128 -1.2889  0.4013 -0.6022
  369MOL    H7330249   2.817   0.126   2.302  2.2878  0.4773  2.3707
  369MOL    C7430250   3.020   7.738   2.231  0.2539  0.2312 -0.3602
  369MOL    O7530251   3.010   7.732   2.089  0.1643 -0.2717  0.2041
  369MOL    H7630252   2.930   7.686   2.263 -2.4222  3.5732 -2.0885
  369MOL    H7730253   3.113   7.691   2.262  0.6345  0.8927 -0.4950
  369MOL    C7830254   3.131   7.751   2.031  0.0157 -0.1538 -0.0925
  369MOL    O7930255   3.120   7.731   1.889  0.3355 -0.3222  0.1008
  369MOL    H8030256   3.206   7.683   2.071  1.4557 -0.2899 -2.9097
  369MOL    H8130257   3.162   0.071   2.044 -1.1921  0.2922 -0.6875
  369MOL    H8230258   3.139   7.639   1.881 -1.1472 -0.4540 -2.0780
  370MOL     C130259   0.654   7.436   1.595  0.1056  1.0414  0.1755
  370MOL     O230260   0.636   7.290   1.589  0.2487  0.5752 -0.2668
  370MOL     H330261   0.639   7.471   1.493 -0.4081 -0.8174 -0.4103
  370MOL     H430262   0.582   7.498   1.648 -0.0040  1.8533 -0.8934
  370MOL     H530263   0.756   7.468   1.614  0.4635  0.0303 -0.0177
  370MOL     C630264   0.636   7.234   1.719 -0.8174  0.2684  0.7958
  370MOL     O730265   0.525   7.283   1.785  0.4753 -0.8949  0.1560
  370MOL     H830266   0.726   7.261   1.773  0.6187 -3.1438  0.2780
  370MOL     H930267   0.648   7.125   1.714 -1.9151  0.2017 -0.7295
  370MOL    C1030268   0.523   7.237   1.913 -0.2663 -0.2696  0.4158
  370MOL    O1130269   0.531   7.103   1.922 -0.7417  0.2408 -0.4215
  370MOL    H1230270   0.437   7.282   1.962 -0.7614 -0.9750  0.2071
  370MOL    H1330271   0.603   7.283   1.971  1.5199 -1.8387 -0.7470
  370MOL    C1430272   0.421   7.040   1.873 -0.1579 -0.0413  0.3654
  370MOL    O1530273   0.304   7.067   1.950  0.3460 -0.1031  0.2008
  370MOL    H1630274   0.447   6.935   1.860  0.1472 -0.0617  1.1225
  370MOL    H1730275   0.408   7.083   1.773  1.9477  1.2146  0.6069
  370MOL    C1830276   0.288   6.969   2.048  0.2806  0.6509 -1.5845
  370MOL    O1930277   0.214   7.027   2.158 -0.1981  0.9166 -0.0490
  370MOL    H2030278   0.387   6.958   2.092 -1.2988  0.5786  2.1455
  370MOL    H2130279   0.259   6.871   2.010  0.6142  0.0027 -0.1971
  370MOL    C2230280   0.084   7.054   2.134 -0.0724  0.0882  0.1627
  370MOL    O2330281   0.011   6.943   2.085  0.2413  0.3108 -0.0378
  370MOL    H2430282   0.078   7.138   2.066  0.1983 -1.6284 -2.0106
  370MOL    H2530283   0.045   7.085   2.232 -0.2016  0.5362 -0.0313
  370MOL    C2630284   7.733   6.862   2.185  0.7291  0.2647 -0.3289
  370MOL    O2730285   7.623   6.922   2.245 -0.2502  0.5528  0.7423
  370MOL    H2830286   0.027   6.831   2.255 -2.8009 -2.0555  2.7510
  370MOL    H2930287   7.709   6.771   2.130  1.0946  1.2500 -2.1542
  370MOL    C3030288   7.510   6.906   2.167 -0.0397  0.4378 -0.2900
  370MOL    O3130289   7.459   6.780   2.188 -0.0747  0.0492 -0.2608
  370MOL    H3230290   7.535   6.928   2.063 -0.5419 -3.7011 -1.3772
  370MOL    H3330291   7.452   6.988   2.209  0.8431  0.8329  0.1706
  370MOL    C3430292   7.423   6.759   2.324 -0.2538  0.0737  0.1974
  370MOL    O3530293   7.346   6.869   2.377 -0.1234 -0.9864  0.6745
  370MOL    H3630294   7.519   6.745   2.374 -0.5344 -0.0478  0.7143
  370MOL    H3730295   7.366   6.668   2.342  1.4821 -1.4053 -1.5755
  370MOL    C3830296   7.301   6.845   2.503 -0.5293  0.4021  0.0882
  370MOL    O3930297   7.272   6.964   2.565  0.3645 -0.5179 -0.1727
  370MOL    H4030298   7.381   6.803   2.563  1.1090  1.5659 -1.2205
  370MOL    H4130299   7.213   6.781   2.510  0.5862 -1.0045  1.4860
  370MOL    C4230300   7.383   7.041   2.591 -0.1051  0.1279 -0.6957
  370MOL    O4330301   7.452   7.003   2.710  0.4497 -0.0698  0.3370
  370MOL    H4430302   7.339   7.140   2.606 -1.5008 -0.6069  0.0958
  370MOL    H4530303   7.455   7.026   2.511  0.1055 -0.3882 -0.4112
  370MOL    C4630304   7.398   7.037   2.830  0.5912 -0.4654  0.2179
  370MOL    O4730305   7.359   6.936   2.905 -0.3827 -0.1131  0.2490
  370MOL    H4830306   7.311   7.102   2.827  1.2074  0.3644  0.0970
  370MOL    H4930307   7.477   7.092   2.881 -0.0129  0.3078  0.3337
  370MOL    C5030308   7.231   6.878   2.877 -0.2267 -0.6685 -0.5699
  370MOL    O5130309   7.136   6.940   2.950 -0.4193  0.1667 -0.2133
  370MOL    H5230310   7.234   6.772   2.899 -1.0134 -0.6892 -0.5547
  370MOL    H5330311   7.199   6.894   2.774 -1.1317  0.3895 -0.1435
  370MOL    C5430312   7.150   6.909   3.081 -0.9091 -0.0072 -0.5015
  370MOL    O5530313   7.117   6.776   3.104  0.6218  0.4614 -0.6896
  370MOL    H5630314   7.096   6.990   3.130 -0.1219 -0.6259  1.4270
  370MOL    H5730315   7.253   6.925   3.112 -1.2608  0.5081  0.3985
  370MOL    C5830316   6.980   6.746   3.092  0.6927 -0.2322 -0.8598
  370MOL    O5930317   6.898   6.838   3.157  0.3236  0.1890 -0.0660
  370MOL    H6030318   6.962   6.646   3.130 -2.7386  0.8476  0.5248
  370MOL    H6130319   6.968   6.744   2.984  1.3308  0.9322 -0.9604
  370MOL    C6230320   6.761   6.814   3.129 -0.7139  0.0724  0.2597
  370MOL    O6330321   6.720   6.858   3.010  0.0230  0.4966  0.0973
  370MOL    H6430322   6.712   6.872   3.209 -3.0590 -0.5126 -0.7061
  370MOL    H6530323   6.727   6.711   3.131  0.4203 -0.3816 -2.1454
  370MOL    C6630324   6.742   6.987   2.982  0.0829 -0.0312 -0.0187
  370MOL    O6730325   6.738   7.010   2.843 -0.1086  0.0875 -0.0952
  370MOL    H6830326   6.837   7.022   3.022  0.4787 -1.4809  0.3433
  370MOL    H6930327   6.660   7.048   3.021  1.2436  0.4540  1.6973
  370MOL    C7030328   6.834   6.942   2.772  0.5710  0.2801  0.1720
  370MOL    O7130329   6.871   7.025   2.670 -0.4348  0.5778 -0.6216
  370MOL    H7230330   6.792   6.847   2.739 -1.3708  1.1054  0.1848
  370MOL    H7330331   6.928   6.927   2.826  2.0090  0.8378 -2.1305
  370MOL    C7430332   6.785   7.026   2.560  0.2266  0.2673 -0.7688
  370MOL    O7530333   6.812   6.934   2.462 -0.2342  0.5639 -0.1949
  370MOL    H7630334   6.803   7.118   2.505  0.5091  0.2244 -0.7501
  370MOL    H7730335   6.681   7.027   2.591  0.1048  1.3661 -1.1911
  370MOL    C7830336   6.937   6.945   2.408  0.2285  0.3211 -0.8118
  370MOL    O7930337   6.958   6.848   2.314 -0.8725 -0.1449  0.0019
  370MOL    H8030338   7.009   6.922   2.486 -0.5359 -0.8832 -0.4461
  370MOL    H8130339   6.943   7.041   2.357  2.1135 -0.1351 -1.4816
  370MOL    H8230340   6.905   6.859   2.236 -0.5689 -0.8615 -0.3108
  371MOL     C130341   6.371   6.240   3.176  0.1342 -0.2315  0.0050
  371MOL     O230342   6.508   6.261   3.162  0.8506  0.0315 -0.2680
  371MOL     H330343   6.327   6.327   3.223  0.8500  0.3416 -0.3828
  371MOL     H430344   6.338   6.255   3.073  1.4000  3.1748  0.0464
  371MOL     H530345   6.344   6.141   3.213 -1.3558 -0.3398 -1.3130
  371MOL     C630346   6.589   6.222   3.273  0.1244  0.7563  0.5366
  371MOL     O730347   6.591   6.087   3.288  0.4405  0.2017 -0.1649
  371MOL     H830348   6.536   6.266   3.357 -1.6451 -0.3802  0.0420
  371MOL     H930349   6.690   6.262   3.262 -0.1327  0.9957 -1.1725
  371MOL    C1030350   6.657   6.010   3.189 -0.1366 -0.1182  0.8780
  371MOL    O1130351   6.784   6.054   3.176 -0.1407 -0.2529 -0.2505
  371MOL    H1230352   6.601   6.030   3.097  0.3381  2.3882  1.0894
  371MOL    H1330353   6.650   5.902   3.201  1.3737 -0.5296 -1.5377
  371MOL    C1430354   6.875   5.959   3.238 -0.9495 -0.1602  0.1757
  371MOL    O1530355   6.901   5.852   3.150 -0.8972 -0.4006 -0.6568
  371MOL    H1630356   6.830   5.930   3.332  0.2009  0.3069  0.8870
  371MOL    H1730357   6.963   6.015   3.271 -1.4413  0.2175  0.8468
  371MOL    C1830358   7.011   5.879   3.068 -0.0466  0.7579 -0.1859
  371MOL    O1930359   7.135   5.867   3.141 -0.6963 -0.1023 -0.6076
  371MOL    H2030360   6.995   5.978   3.025 -1.6668  0.6106  0.0428
  371MOL    H2130361   7.014   5.801   2.991  1.2057  0.1876  0.4381
  371MOL    C2230362   7.157   5.736   3.181 -0.5911  0.7970  0.3327
  371MOL    O2330363   7.202   5.648   3.086  0.0128 -0.4262 -0.0083
  371MOL    H2430364   7.072   5.696   3.236 -0.4749  2.4822  1.7732
  371MOL    H2530365   7.234   5.742   3.258  0.3136  3.1246 -0.6987
  371MOL    C2630366   7.255   5.527   3.137 -0.6506 -0.5734 -0.3778
  371MOL    O2730367   7.154   5.446   3.185  0.0214 -0.1022 -0.1108
  371MOL    H2830368   7.327   5.544   3.217  0.7820 -1.6369 -1.4258
  371MOL    H2930369   7.312   5.486   3.054  2.1748  0.1053  1.1610
  371MOL    C3030370   7.076   5.382   3.082 -0.2485 -0.2263 -0.2394
  371MOL    O3130371   6.950   5.357   3.132 -0.8943  0.5399 -0.0075
  371MOL    H3230372   7.114   5.291   3.035 -2.9515 -1.8865  0.7035
  371MOL    H3330373   7.054   5.452   3.002  0.2884 -1.2776 -1.3092
  371MOL    C3430374   6.874   5.472   3.158 -0.2130 -0.1695 -0.5410
  371MOL    O3530375   6.752   5.436   3.209 -0.2227 -0.4065  0.6672
  371MOL    H3630376   6.864   5.527   3.064 -0.0237 -0.2208 -0.5925
  371MOL    H3730377   6.917   5.549   3.223  3.6877 -0.8478 -2.1771
  371MOL    C3830378   6.652   5.429   3.113  1.0097  0.2192 -0.2750
  371MOL    O3930379   6.624   5.559   3.066 -0.0840 -0.3342  0.7503
  371MOL    H4030380   6.557   5.390   3.150  0.7350  1.2560  0.1260
  371MOL    H4130381   6.686   5.356   3.039  2.1557  0.3302  0.1478
  371MOL    C4230382   6.536   5.567   2.952 -0.1843 -0.1171 -0.4855
  371MOL    O4330383   6.402   5.589   2.989  0.3049  0.1419 -0.1330
  371MOL    H4430384   6.533   5.475   2.895  1.7274  0.4416 -1.5520
  371MOL    H4530385   6.570   5.644   2.882  0.1848 -0.1315 -0.3233
  371MOL    C4630386   6.383   5.716   3.051  0.6918  0.4278 -0.1639
  371MOL    O4730387   6.423   5.832   2.977  0.0192 -0.1686  0.1228
  371MOL    H4830388   6.414   5.718   3.156 -2.8337  1.0606  0.9292
  371MOL    H4930389   6.277   5.718   3.074  1.0692  1.4078  1.6670
  371MOL    C5030390   6.346   5.851   2.863 -1.0167  0.4355 -0.9011
  371MOL    O5130391   6.218   5.876   2.904 -0.3246 -0.2820 -0.1338
  371MOL    H5230392   6.360   5.762   2.802  0.2314  0.5361 -0.7848
  371MOL    H5330393   6.371   5.945   2.813  0.3477  1.1028  0.9683
  371MOL    C5430394   6.182   6.005   2.924  0.2894  0.3944 -0.3047
  371MOL    O5530395   6.167   6.073   2.801  0.0441 -0.8648 -0.1054
  371MOL    H5630396   6.269   6.050   2.972  0.7729 -0.8231 -0.0315
  371MOL    H5730397   6.105   6.017   2.999  0.2198 -1.1785 -0.1037
  371MOL    C5830398   6.052   6.038   2.728 -0.0123  0.6316 -0.6413
  371MOL    O5930399   6.066   6.057   2.591 -0.1983  0.5165  0.0825
  371MOL    H6030400   5.955   6.082   2.748 -0.1810 -0.0889  0.1670
  371MOL    H6130401   6.035   5.931   2.741  0.3980  0.6939  0.4800
  371MOL    C6230402   6.085   6.191   2.560  0.3495  0.0997  0.7325
  371MOL    O6330403   5.975   6.282   2.582 -0.1700  0.2689  0.1902
  371MOL    H6430404   6.097   6.192   2.451 -0.4411  0.6918  0.6505
  371MOL    H6530405   6.176   6.222   2.612  0.7353 -2.0511  1.3805
  371MOL    C6630406   5.985   6.362   2.695  0.2492  0.7048 -0.0622
  371MOL    O6730407   6.070   6.470   2.676  0.3620  0.2279  0.3146
  371MOL    H6830408   6.032   6.313   2.780 -0.6932 -0.1622 -0.0305
  371MOL    H6930409   5.884   6.385   2.729  0.5303 -0.8535  1.9281
  371MOL    C7030410   6.012   6.568   2.594  1.0081 -0.3814  0.6111
  371MOL    O7130411   5.955   6.666   2.673 -0.4090  0.4760  0.3668
  371MOL    H7230412   5.932   6.524   2.534  0.1356 -1.1328  2.2778
  371MOL    H7330413   6.086   6.606   2.524 -0.6929 -0.9563 -1.5385
  371MOL    C7430414   6.054   6.747   2.728 -0.1712 -0.8249  0.8967
  371MOL    O7530415   6.106   6.825   2.622  0.2933  0.0422  0.0266
  371MOL    H7630416   6.135   6.684   2.764  2.0470  0.3304 -1.8192
  371MOL    H7730417   6.017   6.817   2.803  0.6888  0.0074  0.5643
  371MOL    C7830418   6.012   6.914   2.571  0.0447 -0.1447 -0.6408
  371MOL    O7930419   5.932   6.844   2.475 -0.3602 -0.4126 -0.1757
  371MOL    H8030420   6.067   6.990   2.515  0.8770 -0.9632 -0.9594
  371MOL    H8130421   5.953   6.950   2.654  0.1104 -2.2393  0.3610
  371MOL    H8230422   5.889   6.772   2.519  0.5179 -2.3152 -2.3177
  372MOL     C130423   2.169   1.065   5.516  1.2571 -0.5771  0.5139
  372MOL     O230424   2.273   1.139   5.582 -0.4413  0.5548 -0.1609
  372MOL     H330425   2.211   0.965   5.499  0.8521 -0.8769  1.2717
  372MOL     H430426   2.080   1.051   5.577 -1.3748 -1.8452 -3.4593
  372MOL     H530427   2.140   1.102   5.418 -0.2451 -2.4103  0.2279
  372MOL     C630428   2.251   1.277   5.609  0.1624  0.9422  0.6363
  372MOL     O730429   2.174   1.279   5.726 -0.2057  0.1337  1.0102
  372MOL     H830430   2.191   1.311   5.525 -1.1801 -2.1660  0.2602
  372MOL     H930431   2.350   1.322   5.614  0.7456 -0.2454 -0.1855
  372MOL    C1030432   2.243   1.232   5.833 -0.1515  0.4888  0.2534
  372MOL    O1130433   2.149   1.217   5.933 -0.2037  0.2035 -0.2113
  372MOL    H1230434   2.324   1.301   5.857  0.4480  0.5885 -1.9815
  372MOL    H1330435   2.293   1.136   5.821 -0.1692  0.0821  2.9705
  372MOL    C1430436   2.071   1.099   5.935  0.3884  0.5085 -0.4163
  372MOL    O1530437   2.142   1.003   6.007  0.0932 -0.0288 -0.0193
  372MOL    H1630438   2.048   1.069   5.833 -2.2830 -0.2046  0.3401
  372MOL    H1730439   1.972   1.115   5.977 -0.6813 -0.4496 -2.5225
  372MOL    C1830440   2.133   1.015   6.147 -0.7038  0.0571  1.0078
  372MOL    O1930441   2.194   0.911   6.220  0.4358  0.1894  0.3139
  372MOL    H2030442   2.025   1.010   6.156 -0.7082  1.2556  1.6418
  372MOL    H2130443   2.171   1.110   6.182 -0.2085  0.8937 -1.6491
  372MOL    C2230444   2.331   0.901   6.184  0.5916 -0.4368 -0.5364
  372MOL    O2330445   2.382   0.786   6.230  0.5248 -0.0323 -0.2771
  372MOL    H2430446   2.380   0.986   6.230  2.2095 -1.2551 -0.7010
  372MOL    H2530447   2.342   0.909   6.076  0.1669 -0.4441 -0.5814
  372MOL    C2630448   2.326   0.677   6.173 -0.2608  0.5517 -0.2305
  372MOL    O2730449   2.424   0.584   6.134 -0.1827 -0.0409 -0.1846
  372MOL    H2830450   2.247   0.695   6.100  1.2604  0.9190 -1.8175
  372MOL    H2930451   2.281   0.624   6.257 -0.3302 -0.5951 -0.9786
  372MOL    C3030452   2.486   0.626   6.014 -0.8553  0.2743  0.0224
  372MOL    O3130453   2.394   0.584   5.908 -0.7227  0.2520 -0.0719
  372MOL    H3230454   2.588   0.589   6.003 -1.3492 -0.5094 -2.1162
  372MOL    H3330455   2.504   0.733   6.014  0.0634  0.1392 -1.3726
  372MOL    C3430456   2.447   0.623   5.784 -0.1859 -0.4723  0.5498
  372MOL    O3530457   2.447   0.764   5.779 -0.0222 -0.2194  0.0623
  372MOL    H3630458   2.390   0.575   5.705  1.1480 -0.4012 -0.4800
  372MOL    H3730459   2.551   0.596   5.765  0.0655  0.3558  0.6985
  372MOL    C3830460   2.341   0.815   5.699 -0.3553 -0.4365 -0.2758
  372MOL    O3930461   2.358   0.791   5.568  0.1552 -0.0072 -0.2962
  372MOL    H4030462   2.316   0.920   5.717 -0.6501 -0.5563  0.0069
  372MOL    H4130463   2.250   0.761   5.722 -0.0647 -1.3611 -1.2722
  372MOL    C4230464   2.467   0.880   5.527 -0.7625  0.5467  0.4197
  372MOL    O4330465   2.501   0.851   5.392  0.4933  0.0991 -0.2194
  372MOL    H4430466   2.557   0.854   5.581  0.2769  0.9848 -1.0621
  372MOL    H4530467   2.445   0.987   5.537 -3.4740  0.0891 -0.0754
  372MOL    C4630468   2.404   0.881   5.307  0.0422 -1.0007  0.0014
  372MOL    O4730469   2.396   1.022   5.286  0.1655  0.2604  0.2469
  372MOL    H4830470   2.310   0.844   5.347 -0.8724  1.0378 -0.1737
  372MOL    H4930471   2.426   0.844   5.207  0.3399 -1.4156  0.2228
  372MOL    C5030472   2.494   1.070   5.194  0.3087 -0.0394 -0.2974
  372MOL    O5130473   2.447   1.079   5.060  0.1263 -0.4512 -0.0251
  372MOL    H5230474   2.580   1.006   5.209  1.2531  1.7070  2.0257
  372MOL    H5330475   2.528   1.171   5.215  1.8531 -0.4755 -0.6686
  372MOL    C5430476   2.344   1.176   5.041 -0.0609  0.2940 -0.7680
  372MOL    O5530477   2.280   1.159   4.917 -0.0561 -0.4575 -0.1648
  372MOL    H5630478   2.389   1.275   5.052 -0.9359  0.7018 -0.8536
  372MOL    H5730479   2.285   1.170   5.132 -2.2279  0.0047 -2.1588
  372MOL    C5830480   2.215   1.034   4.904  0.1285  0.3385  0.4764
  372MOL    O5930481   2.087   1.038   4.964  0.1261  0.2178 -0.1653
  372MOL    H6030482   2.285   0.962   4.948 -0.3178  0.3717  1.2605
  372MOL    H6130483   2.208   0.999   4.801  1.6340  0.0595  0.4549
  372MOL    C6230484   2.000   1.126   4.911  0.2760 -0.4825 -0.0548
  372MOL    O6330485   1.998   1.251   4.967 -0.0438 -0.4223 -0.1219
  372MOL    H6430486   1.906   1.075   4.935 -0.3017  0.3759 -0.4623
  372MOL    H6530487   2.015   1.141   4.804  0.4900  3.6165  0.4756
  372MOL    C6630488   1.971   1.250   5.110  1.1156  0.7093  0.5513
  372MOL    O6730489   1.833   1.245   5.141  0.2088  0.4112 -0.1919
  372MOL    H6830490   2.017   1.338   5.156  0.2778  0.3336  2.1111
  372MOL    H6930491   2.016   1.159   5.149 -0.2286  0.4289  1.4673
  372MOL    C7030492   1.768   1.368   5.125  0.5398  0.5091 -0.5330
  372MOL    O7130493   1.787   1.449   5.234 -0.1143 -0.3705 -0.3910
  372MOL    H7230494   1.664   1.340   5.109  0.9690  0.0486 -2.7410
  372MOL    H7330495   1.810   1.415   5.036 -1.0753  1.5435 -0.7841
  372MOL    C7430496   1.731   1.391   5.344 -0.0141  0.0927  0.7588
  372MOL    O7530497   1.616   1.466   5.394  0.4660 -0.2243 -0.1163
  372MOL    H7630498   1.810   1.384   5.419 -0.8905  1.3200  1.8327
  372MOL    H7730499   1.700   1.288   5.331 -0.1382  0.3324 -0.8943
  372MOL    C7830500   1.655   1.583   5.450  0.1203  0.7484 -0.0134
  372MOL    O7930501   1.540   1.655   5.477 -0.6182  0.9076  0.7564
  372MOL    H8030502   1.726   1.647   5.398 -1.1027  0.2402 -2.3707
  372MOL    H8130503   1.701   1.564   5.547  1.4344 -0.2947 -0.8197
  372MOL    H8230504   1.499   1.695   5.401 -0.0454  1.8008  0.9236
  373MOL     C130505   0.686   0.846   6.716  0.0263 -0.3409 -0.3739
  373MOL     O230506   0.815   0.892   6.752  0.2006  0.2171 -0.1859
  373MOL     H330507   0.680   0.800   6.617 -2.9324  0.7889 -0.7789
  373MOL     H430508   0.657   0.776   6.795  0.6832 -0.8889 -0.6114
  373MOL     H530509   0.612   0.926   6.716 -1.0641 -1.3280  0.0595
  373MOL     C630510   0.870   0.959   6.647 -0.3180  0.1337 -0.4933
  373MOL     O730511   0.910   0.872   6.550 -0.1672  0.0006 -0.4026
  373MOL     H830512   0.956   1.008   6.693 -0.0791  0.5059 -1.3273
  373MOL     H930513   0.797   1.031   6.610  0.0503  0.2742 -0.9462
  373MOL    C1030514   1.035   0.814   6.574  0.1183  0.1954  0.1428
  373MOL    O1130515   1.143   0.906   6.548 -0.0421  0.2428  0.1917
  373MOL    H1230516   1.050   0.728   6.509  1.8029 -1.4793  2.6408
  373MOL    H1330517   1.044   0.783   6.678  1.0972  1.0913  0.3329
  373MOL    C1430518   1.199   0.900   6.422  0.6258  0.4623 -0.0345
  373MOL    O1530519   1.312   0.989   6.424 -0.2954 -0.3382 -0.7641
  373MOL    H1630520   1.126   0.939   6.351  0.1834 -0.5827 -0.1634
  373MOL    H1730521   1.233   0.800   6.394 -1.5453 -1.3990  3.6426
  373MOL    C1830522   1.427   0.944   6.492  0.2528 -0.7357 -0.2887
  373MOL    O1930523   1.510   0.880   6.404  0.0561 -0.5719  0.6289
  373MOL    H2030524   1.407   0.883   6.580 -1.3936  2.7385  1.8518
  373MOL    H2130525   1.482   1.034   6.519 -1.7436  0.8375 -1.2868
  373MOL    C2230526   1.600   0.785   6.471 -0.0727  0.6153 -0.3066
  373MOL    O2330527   1.548   0.652   6.472  0.0803 -0.0416  0.0492
  373MOL    H2430528   1.616   0.817   6.573  4.0935 -1.7137 -0.1134
  373MOL    H2530529   1.691   0.780   6.412  0.3590  0.5044  0.3747
  373MOL    C2630530   1.645   0.566   6.533  0.1098 -0.0898  0.1849
  373MOL    O2730531   1.765   0.549   6.461 -0.3177 -0.3630  0.1554
  373MOL    H2830532   1.585   0.475   6.544  0.5055 -0.0616  2.7210
  373MOL    H2930533   1.664   0.592   6.637 -0.8387  2.0252 -0.1402
  373MOL    C3030534   1.745   0.509   6.328 -0.1803 -0.2921  0.3396
  373MOL    O3130535   1.863   0.501   6.255 -1.0533  0.2745 -0.3027
  373MOL    H3230536   1.674   0.573   6.276 -0.4204  0.6104  1.7768
  373MOL    H3330537   1.703   0.408   6.333  2.5604 -1.3853  2.9253
  373MOL    C3430538   1.925   0.621   6.233 -0.1043 -0.1314  0.1750
  373MOL    O3530539   1.847   0.716   6.168  0.1722 -0.0325  0.0029
  373MOL    H3630540   2.015   0.609   6.173 -0.1163  2.7920 -0.4971
  373MOL    H3730541   1.946   0.661   6.332 -0.0590  0.0545  0.0893
  373MOL    C3830542   1.808   0.672   6.040  0.2306 -0.3458 -0.1871
  373MOL    O3930543   1.897   0.609   5.964 -0.1240 -0.3581 -0.2839
  373MOL    H4030544   1.752   0.751   5.989  0.1742 -1.7194 -2.2941
  373MOL    H4130545   1.735   0.597   6.071  0.1278 -1.0514 -2.1056
  373MOL    C4230546   1.984   0.701   5.897 -0.4165  0.0987 -0.3664
  373MOL    O4330547   1.934   0.768   5.780 -0.7670  0.0733  0.6307
  373MOL    H4430548   2.083   0.663   5.872  0.6017  1.7728  0.9982
  373MOL    H4530549   2.013   0.773   5.973  2.1572 -1.0420 -0.2068
  373MOL    C4630550   1.897   0.673   5.689  0.0356 -0.2531 -0.2385
  373MOL    O4730551   2.009   0.634   5.614  0.3892  0.1754 -0.1213
  373MOL    H4830552   1.818   0.702   5.620 -1.1566 -0.6539  0.9114
  373MOL    H4930553   1.868   0.578   5.733 -0.0162 -0.1089  0.0404
  373MOL    C5030554   2.060   0.723   5.525 -0.3760  0.0557  0.3301
  373MOL    O5130555   1.979   0.757   5.423 -0.0813  0.0421  0.3250
  373MOL    H5230556   2.160   0.690   5.499 -0.8933 -1.5980  0.4008
  373MOL    H5330557   2.067   0.816   5.581 -0.9103  0.7701 -0.7552
  373MOL    C5430558   1.976   0.667   5.318 -0.4983  0.2440  0.4997
  373MOL    O5530559   2.094   0.684   5.237 -0.1873 -0.1354 -0.4381
  373MOL    H5630560   1.879   0.669   5.269  0.5233 -2.2588 -1.7376
  373MOL    H5730561   1.988   0.564   5.352 -1.3596 -0.6870 -1.9461
  373MOL    C5830562   2.085   0.804   5.163 -0.2490 -0.0028  0.9546
  373MOL    O5930563   1.993   0.798   5.057  0.4777 -0.1487 -0.6242
  373MOL    H6030564   2.188   0.819   5.133 -0.7310  2.0182  0.2556
  373MOL    H6130565   2.069   0.894   5.224  1.0587  0.2985  0.8547
  373MOL    C6230566   2.043   0.726   4.956 -0.5406  0.2611 -0.7209
  373MOL    O6330567   1.950   0.689   4.861 -0.2564 -0.3401 -0.0830
  373MOL    H6430568   2.083   0.632   4.995  0.1489 -0.0826 -2.2342
  373MOL    H6530569   2.120   0.783   4.904 -0.0016 -0.7959 -1.0979
  373MOL    C6630570   1.900   0.789   4.789 -0.1241 -0.2136 -0.3598
  373MOL    O6730571   2.001   0.857   4.715  0.2896 -0.0348 -0.6201
  373MOL    H6830572   1.854   0.855   4.862 -0.2964 -1.0762  0.3107
  373MOL    H6930573   1.814   0.766   4.726 -0.4315  2.0561 -0.8261
  373MOL    C7030574   2.044   0.800   4.600 -0.2100  0.1782 -0.0360
  373MOL    O7130575   1.957   0.824   4.492  0.1374  0.0072  0.0514
  373MOL    H7230576   2.064   0.694   4.611 -0.3529  0.2205  0.6603
  373MOL    H7330577   2.139   0.842   4.567  0.7222 -2.4771 -0.7943
  373MOL    C7430578   1.924   0.957   4.485 -0.4454 -0.4338 -0.2998
  373MOL    O7530579   1.919   1.013   4.356 -0.5508 -0.1709 -0.2685
  373MOL    H7630580   1.960   1.023   4.564  0.0760  1.2722 -1.9279
  373MOL    H7730581   1.817   0.961   4.508  0.0472 -1.2556  2.3232
  373MOL    C7830582   2.046   1.033   4.308 -0.5438 -0.4027 -0.0357
  373MOL    O7930583   2.036   1.123   4.200 -0.1379  0.6388 -0.5218
  373MOL    H8030584   2.090   0.941   4.272  0.1335 -0.3832  0.7218
  373MOL    H8130585   2.115   1.069   4.384  0.4371 -0.7404 -0.7686
  373MOL    H8230586   2.037   1.072   4.120  2.3233 -0.0746 -0.0915
  374MOL     C130587   1.971   3.689   0.824  0.2941 -0.0571  0.1308
  374MOL     O230588   1.995   3.553   0.781 -0.0973 -0.1191  0.1068
  374MOL     H330589   2.037   3.742   0.756  2.5665 -0.7870  1.7251
  374MOL     H430590   1.868   3.726   0.818  0.4198  0.7198  2.3962
  374MOL     H530591   2.004   3.708   0.926  0.1088  1.0101  0.0049
  374MOL     C630592   2.118   3.508   0.831 -0.1974  0.3135 -0.9092
  374MOL     O730593   2.229   3.592   0.803 -0.0335 -0.2085 -0.1839
  374MOL     H830594   2.136   3.411   0.785 -0.0904  0.0058 -0.2133
  374MOL     H930595   2.112   3.486   0.937  2.7004 -0.4156 -0.8465
  374MOL    C1030596   2.358   3.534   0.821 -0.1444  0.6234  1.0632
  374MOL    O1130597   2.391   3.519   0.953 -0.1629  0.0805 -0.4381
  374MOL    H1230598   2.424   3.597   0.762  0.4516 -0.3372  0.6929
  374MOL    H1330599   2.376   3.433   0.784  4.0275  1.7623 -0.2760
  374MOL    C1430600   2.409   3.641   1.016  0.0947  0.0982 -0.3337
  374MOL    O1530601   2.531   3.698   0.986 -0.1741  0.3182  0.1495
  374MOL    H1630602   2.396   3.624   1.122  1.9062 -0.0971 -0.1196
  374MOL    H1730603   2.339   3.721   0.994  0.6996  0.9274  0.7167
  374MOL    C1830604   2.640   3.635   1.045 -0.0637  0.2812  0.3619
  374MOL    O1930605   2.758   3.704   1.015 -0.2791  0.1431 -0.0832
  374MOL    H2030606   2.635   3.534   1.006  1.3389  0.5276 -0.4980
  374MOL    H2130607   2.624   3.628   1.153  0.1372 -2.4777  0.2391
  374MOL    C2230608   2.753   3.834   1.067  0.0312  0.0642 -0.3977
  374MOL    O2330609   2.798   3.833   1.199  0.3193 -0.6840 -0.3974
  374MOL    H2430610   2.652   3.876   1.066  0.2313  0.6260  1.1917
  374MOL    H2530611   2.816   3.898   1.004 -0.5434  0.7719 -0.2660
  374MOL    C2630612   2.936   3.832   1.202 -0.2241 -0.9054  0.5447
  374MOL    O2730613   2.979   3.838   1.332  1.0134 -0.2805 -0.7240
  374MOL    H2830614   2.981   3.924   1.163  0.4758 -2.0016 -1.2988
  374MOL    H2930615   2.973   3.744   1.150  0.6444 -1.2089  1.6480
  374MOL    C3030616   2.979   3.720   1.405 -0.1523  0.2812  0.4970
  374MOL    O3130617   3.088   3.636   1.376  0.3741  0.1403 -0.0462
  374MOL    H3230618   2.888   3.663   1.389  0.3468  0.0468 -1.6138
  374MOL    H3330619   2.977   3.732   1.514 -0.8902 -3.7675  1.0274
  374MOL    C3430620   3.213   3.691   1.423  0.4021 -0.6328 -0.7836
  374MOL    O3530621   3.308   3.592   1.420 -0.3369  0.1291  0.4488
  374MOL    H3630622   3.199   3.715   1.529 -0.9123 -2.0518 -0.6141
  374MOL    H3730623   3.240   3.776   1.361  0.6837  0.8413  1.2931
  374MOL    C3830624   3.323   3.537   1.292  0.4378 -0.8393 -0.3310
  374MOL    O3930625   3.382   3.620   1.205 -0.0525 -0.1283 -0.7041
  374MOL    H4030626   3.231   3.496   1.250  0.2686  0.4960 -1.3139
  374MOL    H4130627   3.383   3.447   1.294  0.0293 -1.0844  3.2186
  374MOL    C4230628   3.388   3.561   1.077  0.3401  0.6741 -0.0730
  374MOL    O4330629   3.267   3.566   1.010  0.2077 -0.3706  0.2252
  374MOL    H4430630   3.412   3.455   1.084  1.3166  0.8146 -1.0151
  374MOL    H4530631   3.462   3.617   1.019 -1.1197 -0.1933 -2.8916
  374MOL    C4630632   3.223   3.694   0.976 -0.0221  0.4933  0.3050
  374MOL    O4730633   3.084   3.698   0.949  0.1794  0.2601  0.4201
  374MOL    H4830634   3.286   3.734   0.897 -0.9982  1.0203 -0.2072
  374MOL    H4930635   3.233   3.760   1.062 -1.1270  1.3974 -0.2537
  374MOL    C5030636   3.048   3.613   0.843  0.0322  0.5523 -0.3258
  374MOL    O5130637   3.098   3.658   0.720 -0.7589  0.2409 -0.4421
  374MOL    H5230638   2.939   3.605   0.841 -0.2141  3.1117  0.8805
  374MOL    H5330639   3.080   3.515   0.880  0.0785  0.6160 -0.1978
  374MOL    C5430640   3.018   3.760   0.671  0.2237  0.1488  0.6037
  374MOL    O5530641   2.914   3.715   0.593  0.7398  0.6044  0.3529
  374MOL    H5630642   3.096   3.815   0.618 -1.1876  0.6357 -1.0203
  374MOL    H5730643   2.983   3.817   0.758  2.8611 -0.8691  2.3961
  374MOL    C5830644   2.840   3.819   0.539  0.1666 -0.0340 -0.3768
  374MOL    O5930645   2.775   3.885   0.638  1.0873  0.6475  0.3941
  374MOL    H6030646   2.771   3.778   0.464 -0.0115  0.6330 -0.5770
  374MOL    H6130647   2.914   3.879   0.485  1.1645 -1.4095 -0.5783
  374MOL    C6230648   2.676   3.812   0.697 -0.7345  0.8036 -0.6223
  374MOL    O6330649   2.552   3.809   0.634 -0.3610 -0.0984 -0.5128
  374MOL    H6430650   2.663   3.842   0.801 -0.9900 -2.2680  0.2761
  374MOL    H6530651   2.709   3.711   0.718 -0.6540  0.5573 -1.8852
  374MOL    C6630652   2.494   3.935   0.617  0.0634  0.0597 -0.0363
  374MOL    O6730653   2.441   3.994   0.734 -0.0667 -0.4767  0.2105
  374MOL    H6830654   2.412   3.911   0.549 -0.7026  2.8813 -0.1583
  374MOL    H6930655   2.566   4.005   0.574  2.1771 -1.4998  0.8879
  374MOL    C7030656   2.327   3.922   0.784  0.7935 -0.1107  0.0159
  374MOL    O7130657   2.211   3.980   0.741  0.8367  0.6297 -0.5136
  374MOL    H7230658   2.335   3.938   0.892  0.8612  2.4739 -0.3338
  374MOL    H7330659   2.321   3.817   0.756  0.7392  0.6411 -2.9838
  374MOL    C7430660   2.180   4.105   0.796 -0.6651 -0.5902  0.0409
  374MOL    O7530661   2.170   4.105   0.934  0.0464 -0.2174 -0.6932
  374MOL    H7630662   2.093   4.153   0.751 -0.0200  0.3914 -0.1815
  374MOL    H7730663   2.263   4.171   0.768 -2.0272  1.1093 -0.1212
  374MOL    C7830664   2.053   4.033   0.974 -0.2351 -0.3647 -0.3585
  374MOL    O7930665   2.044   4.017   1.118  0.0128 -0.7125  0.0065
  374MOL    H8030666   2.060   3.937   0.924  1.0028  0.7951 -2.4724
  374MOL    H8130667   1.962   4.088   0.949  0.4374  1.9553  2.0370
  374MOL    H8230668   2.004   4.091   1.160 -3.1966 -1.5575 -1.4441
  375MOL     C130669   2.805   3.500   5.602 -0.0834 -0.4166  0.1507
  375MOL     O230670   2.797   3.387   5.692  0.8889  0.2819  0.5409
  375MOL     H330671   2.882   3.573   5.623  0.9156 -2.0519  2.4044
  375MOL     H430672   2.821   3.463   5.501 -1.7787 -1.4965  0.2559
  375MOL     H530673   2.720   3.568   5.602  2.1279  2.4791  2.4390
  375MOL     C630674   2.769   3.410   5.823  0.0537 -0.2602  0.0231
  375MOL     O730675   2.645   3.470   5.838  0.1902  0.5711  0.2934
  375MOL     H830676   2.837   3.482   5.869 -1.5998  1.6499 -0.4346
  375MOL     H930677   2.780   3.319   5.882 -2.7869 -0.2318  0.6648
  375MOL    C1030678   2.542   3.381   5.821 -0.7048  0.5642  0.4910
  375MOL    O1130679   2.539   3.284   5.927  0.1097 -0.6111  0.1306
  375MOL    H1230680   2.549   3.340   5.720  1.5107  1.5198  0.2295
  375MOL    H1330681   2.444   3.430   5.821 -0.4529  1.1348 -1.9030
  375MOL    C1430682   2.483   3.161   5.897  0.1507  0.2350  0.4797
  375MOL    O1530683   2.492   3.065   5.995  0.5828  0.0323  0.5582
  375MOL    H1630684   2.528   3.131   5.802 -1.4336 -1.1028  0.1276
  375MOL    H1730685   2.379   3.186   5.878 -0.5679 -0.7036  2.9984
  375MOL    C1830686   2.620   3.017   6.007 -0.0340 -0.3230  0.1666
  375MOL    O1930687   2.634   2.938   6.116 -0.1026  0.5738  0.4181
  375MOL    H2030688   2.679   3.105   6.033  0.2311 -0.7579  1.0655
  375MOL    H2130689   2.658   2.988   5.909  0.1372  1.4747 -0.3144
  375MOL    C2230690   2.571   2.809   6.110 -0.4387  0.4782 -0.6542
  375MOL    O2330691   2.651   2.712   6.047  0.1288  0.1662  0.6175
  375MOL    H2430692   2.473   2.819   6.064 -0.6717  2.2513  0.2005
  375MOL    H2530693   2.555   2.775   6.212  3.1107  1.6525  0.3904
  375MOL    C2630694   2.780   2.706   6.098 -0.9270 -0.1695  0.0223
  375MOL    O2730695   2.783   2.675   6.228  0.5745  0.2412  0.5383
  375MOL    H2830696   2.824   2.806   6.092  0.2640 -0.7055 -0.2788
  375MOL    H2930697   2.841   2.648   6.029 -0.3820 -0.0867  0.4309
  375MOL    C3030698   2.762   2.539   6.249 -0.0028 -1.0798 -0.6061
  375MOL    O3130699   2.883   2.466   6.220  1.2157 -0.4321 -0.3434
  375MOL    H3230700   2.671   2.504   6.201  1.2272 -2.7212 -1.7821
  375MOL    H3330701   2.753   2.525   6.357  2.6308 -0.3500 -0.2457
  375MOL    C3430702   2.887   2.335   6.266 -0.1887  0.2964 -0.2599
  375MOL    O3530703   2.784   2.266   6.204 -0.0741  0.2992  0.8717
  375MOL    H3630704   2.875   2.335   6.375 -0.0574  0.5269 -0.2443
  375MOL    H3730705   2.985   2.293   6.249  0.8661  2.7142 -0.3681
  375MOL    C3830706   2.798   2.253   6.065 -0.7311  0.2231 -0.3897
  375MOL    O3930707   2.874   2.139   6.037  0.1737 -0.1767  0.4491
  375MOL    H4030708   2.847   2.340   6.022  1.5685 -1.5295 -1.3942
  375MOL    H4130709   2.700   2.254   6.015  0.1968 -2.4700 -2.3945
  375MOL    C4230710   2.802   2.025   6.081 -0.1355 -0.8591 -0.2935
  375MOL    O4330711   2.746   1.965   5.970 -0.1656  0.0264 -0.5272
  375MOL    H4430712   2.742   2.035   6.171  1.1181  0.3918  0.4401
  375MOL    H4530713   2.871   1.947   6.112  1.1948  0.9534  1.4134
  375MOL    C4630714   2.605   1.960   5.972 -0.6466 -0.0688 -0.1814
  375MOL    O4730715   2.572   1.838   6.041 -0.2263  0.4486  0.0824
  375MOL    H4830716   2.559   1.950   5.874  0.3031  0.8077 -0.7259
  375MOL    H4930717   2.560   2.043   6.027  0.3053  1.6039 -1.9099
  375MOL    C5030718   2.434   1.814   6.045  0.5061  0.7450  0.2110
  375MOL    O5130719   2.387   1.752   5.930  0.0643  0.1851 -0.0375
  375MOL    H5230720   2.363   1.893   6.069 -0.7464 -0.1821 -0.3911
  375MOL    H5330721   2.426   1.745   6.128  0.1146  1.9440  1.1886
  375MOL    C5430722   2.440   1.626   5.917  0.4369  0.8925 -0.2941
  375MOL    O5530723   2.395   1.550   5.808  0.2868 -0.2384  0.0231
  375MOL    H5630724   2.419   1.561   6.002  1.6616 -1.6755 -1.9018
  375MOL    H5730725   2.549   1.630   5.908  0.4725  0.8328  0.1129
  375MOL    C5830726   2.427   1.603   5.688  0.1090 -0.1038  0.2757
  375MOL    O5930727   2.561   1.569   5.652  0.3517  0.6070 -0.0130
  375MOL    H6030728   2.398   1.708   5.687  0.8471  0.1034 -1.0335
  375MOL    H6130729   2.370   1.551   5.611  0.0078 -1.7437  1.4305
  375MOL    C6230730   2.639   1.662   5.588  0.0117  0.1024 -0.0971
  375MOL    O6330731   2.605   1.666   5.449  0.0347  0.3128  0.4068
  375MOL    H6430732   2.745   1.645   5.607  0.2950 -1.8711 -3.1391
  375MOL    H6530733   2.629   1.764   5.626  0.7390 -0.3925  1.4492
  375MOL    C6630734   2.676   1.565   5.374 -0.0102 -0.0028  0.2547
  375MOL    O6730735   2.816   1.586   5.393  0.2008 -0.1001  0.4219
  375MOL    H6830736   2.649   1.564   5.268  0.2480 -1.4103  0.1873
  375MOL    H6930737   2.642   1.468   5.412 -0.4961  0.3056  0.6108
  375MOL    C7030738   2.857   1.701   5.322  0.1528  0.1273  0.2229
  375MOL    O7130739   2.861   1.681   5.185 -0.0351  0.7391 -0.4457
  375MOL    H7230740   2.958   1.724   5.357  1.7905 -2.0216 -2.8385
  375MOL    H7330741   2.787   1.783   5.334 -0.6919 -0.5753  0.1529
  375MOL    C7430742   2.979   1.614   5.146  0.2000 -0.2480 -0.6961
  375MOL    O7530743   2.990   1.600   5.010  0.0590 -0.0689 -0.0389
  375MOL    H7630744   2.982   1.520   5.202 -1.1201  1.4229  2.3003
  375MOL    H7730745   3.068   1.670   5.175 -0.1163  0.2737 -0.7209
  375MOL    C7830746   2.991   1.725   4.951 -0.0545  0.1846  0.2392
  375MOL    O7930747   2.955   1.716   4.813 -0.2617 -0.0192 -0.0989
  375MOL    H8030748   3.097   1.748   4.947  0.0355 -0.5541 -2.8660
  375MOL    H8130749   2.931   1.805   4.993 -0.7554  0.0203 -0.4383
  375MOL    H8230750   2.869   1.678   4.808  0.3148 -1.3318 -0.3003
  376MOL     C130751   1.510   3.781   7.730 -0.1060  0.6488 -0.4418
  376MOL     O230752   1.557   3.742   0.076  0.3594  0.6630 -0.4050
  376MOL     H330753   1.404   3.808   7.732 -0.2594  0.0313 -0.0409
  376MOL     H430754   1.556   3.873   7.694  1.4370 -0.0792 -0.3483
  376MOL     H530755   1.515   3.694   7.665 -1.1927  0.9638 -0.9539
  376MOL     C630756   1.691   3.714   0.079 -0.3673  0.1892 -0.1545
  376MOL     O730757   1.772   3.829   0.074  0.5368 -0.0002  0.5199
  376MOL     H830758   1.717   3.654   7.775 -0.9785 -1.0795  0.5142
  376MOL     H930759   1.713   3.646   0.162 -2.9530 -0.4179  0.0847
  376MOL    C1030760   1.902   3.794   0.066  0.2476  1.1561 -0.0772
  376MOL    O1130761   1.936   3.765   7.719 -0.7593 -0.0602  0.1887
  376MOL    H1230762   1.937   3.720   0.139 -1.0498  0.1541 -0.4607
  376MOL    H1330763   1.953   3.884   0.102  1.3849  0.4588  0.0892
  376MOL    C1430764   2.073   3.730   7.702  0.1048  0.1566  0.3067
  376MOL    O1530765   2.080   3.599   7.750 -0.1179  0.7211 -0.4132
  376MOL    H1630766   2.142   3.798   7.751  2.1425 -0.8328 -1.1351
  376MOL    H1730767   2.101   3.732   7.596 -1.0014  1.0805  0.0226
  376MOL    C1830768   2.039   3.505   7.655 -0.4069  0.1788  0.0225
  376MOL    O1930769   2.133   3.504   7.550 -0.5638  0.0768  0.5726
  376MOL    H2030770   1.940   3.523   7.613 -0.9586 -0.0537  1.1977
  376MOL    H2130771   2.043   3.404   7.697  3.8038 -0.0892 -0.8451
  376MOL    C2230772   2.250   3.430   7.586  0.6740 -0.3742 -0.1479
  376MOL    O2330773   2.232   3.296   7.586  0.5337 -0.0352 -0.1431
  376MOL    H2430774   2.295   3.457   7.681 -0.3277 -0.1364  0.2549
  376MOL    H2530775   2.323   3.467   7.513  0.3169 -1.9496 -1.3449
  376MOL    C2630776   2.276   3.238   7.465 -0.2122  0.3303 -0.2820
  376MOL    O2730777   2.209   3.292   7.354  0.6275  0.2283 -0.5111
  376MOL    H2830778   2.277   3.129   7.461  2.8570  0.1893  2.2435
  376MOL    H2930779   2.384   3.251   7.462  0.0590 -1.9014 -0.8198
  376MOL    C3030780   2.071   3.262   7.349  0.5312  0.4575  0.8890
  376MOL    O3130781   2.051   3.124   7.308  0.7918 -0.2511  0.4836
  376MOL    H3230782   2.023   3.333   7.282  0.7882 -1.1624 -1.0391
  376MOL    H3330783   2.023   3.277   7.446 -2.4009 -0.4781 -0.3700
  376MOL    C3430784   2.090   3.088   7.176 -0.2196 -0.1340 -0.2916
  376MOL    O3530785   2.004   3.133   7.074 -0.6955  0.8908  0.2179
  376MOL    H3630786   2.104   2.980   7.165  0.2568  0.0239 -1.2920
  376MOL    H3730787   2.188   3.132   7.159 -0.7241  0.5002 -1.6993
  376MOL    C3830788   1.870   3.074   7.082 -0.1645  0.1282  0.0727
  376MOL    O3930789   1.880   2.938   7.061 -0.4687  0.1144  0.2197
  376MOL    H4030790   1.809   3.127   7.009  0.4380  1.5439  0.5963
  376MOL    H4130791   1.822   3.087   7.179  0.2408 -1.0742  0.4495
  376MOL    C4230792   1.903   2.896   6.933 -0.1846 -0.4953 -0.2742
  376MOL    O4330793   1.795   2.910   6.849 -0.0127  0.2837  0.2042
  376MOL    H4430794   1.941   2.794   6.933  2.1761  0.3413 -1.4268
  376MOL    H4530795   1.988   2.940   6.880 -0.4469  0.8070  0.3608
  376MOL    C4630796   1.692   2.811   6.862  0.2245 -0.4230  0.5968
  376MOL    O4730797   1.748   2.694   6.823  0.8052  0.5486  0.0374
  376MOL    H4830798   1.609   2.840   6.797  0.7296 -2.4436 -1.0000
  376MOL    H4930799   1.660   2.796   6.965 -0.3564  1.0859  0.6557
  376MOL    C5030800   1.676   2.630   6.719 -0.0584 -1.0276 -0.4477
  376MOL    O5130801   1.545   2.622   6.757 -0.2564 -0.1392 -0.0752
  376MOL    H5230802   1.714   2.529   6.701 -1.4651 -1.8973  1.3294
  376MOL    H5330803   1.683   2.693   6.631 -1.7077 -3.2081 -2.2007
  376MOL    C5430804   1.522   2.521   6.851 -0.0834 -0.0892 -0.2016
  376MOL    O5530805   1.543   2.382   6.799  0.0344 -0.1911  0.0505
  376MOL    H5630806   1.421   2.524   6.889 -1.0608  3.2345 -2.7990
  376MOL    H5730807   1.596   2.529   6.931  0.7655 -2.5977 -0.6588
  376MOL    C5830808   1.438   2.345   6.708 -0.3593  0.7648 -1.0378
  376MOL    O5930809   1.327   2.303   6.780 -0.1063 -0.6029  0.5292
  376MOL    H6030810   1.482   2.276   6.636  0.6017  0.3976 -0.1135
  376MOL    H6130811   1.389   2.428   6.658 -0.3448  2.4088  1.5661
  376MOL    C6230812   1.353   2.194   6.853 -0.5879 -0.3468  1.0395
  376MOL    O6330813   1.363   2.087   6.766  0.1855  0.1549  0.7858
  376MOL    H6430814   1.272   2.183   6.925  0.1326  0.5822  2.0016
  376MOL    H6530815   1.443   2.210   6.911 -0.8466  1.6189  0.9107
  376MOL    C6630816   1.372   1.962   6.830 -0.1068  0.0216 -0.1606
  376MOL    O6730817   1.262   1.922   6.909 -0.1786  0.2347  0.2549
  376MOL    H6830818   1.458   1.965   6.896  0.3745 -0.4415 -0.7692
  376MOL    H6930819   1.399   1.882   6.762 -0.3486  0.7169 -1.0876
  376MOL    C7030820   1.151   1.883   6.835 -0.5322 -0.4506 -0.6360
  376MOL    O7130821   1.187   1.753   6.785  0.5831 -0.2678 -0.1227
  376MOL    H7230822   1.126   1.949   6.752 -1.7443 -0.2482 -0.1201
  376MOL    H7330823   1.060   1.878   6.894 -0.3202  3.1084  0.1207
  376MOL    C7430824   1.216   1.664   6.882  0.2247 -0.9159 -0.0972
  376MOL    O7530825   1.229   1.535   6.827  0.0662 -0.3167 -0.4583
  376MOL    H7630826   1.139   1.654   6.958 -1.1625 -0.6377 -1.4509
  376MOL    H7730827   1.309   1.703   6.925  0.3528 -0.0199 -1.1696
  376MOL    C7830828   1.355   1.509   6.772 -0.0030 -0.8259  0.1137
  376MOL    O7930829   1.376   1.373   6.760 -0.3787  0.2566  0.0256
  376MOL    H8030830   1.449   1.542   6.816  0.2138 -1.7299  0.3244
  376MOL    H8130831   1.371   1.558   6.676 -1.6426 -0.6144 -0.0624
  376MOL    H8230832   1.306   1.336   6.707  0.8994 -1.6343 -0.3921
  377MOL     C130833   5.464   5.889   3.844 -0.2263  0.4523 -0.3351
  377MOL     O230834   5.387   5.965   3.937 -0.6430  0.1153  0.4358
  377MOL     H330835   5.544   5.941   3.792 -1.0979  0.7431 -1.4231
  377MOL     H430836   5.516   5.809   3.897 -0.4654  0.4016 -0.1775
  377MOL     H530837   5.405   5.840   3.767  2.9134 -2.9892 -0.6650
  377MOL     C630838   5.295   6.041   3.866  0.2198 -0.8984 -0.2520
  377MOL     O730839   5.348   6.109   3.760  0.3254  0.5652  0.5155
  377MOL     H830840   5.253   6.112   3.937 -0.3531 -3.1563  1.7372
  377MOL     H930841   5.213   5.977   3.833 -1.9503  1.4329  0.3929
  377MOL    C1030842   5.442   6.202   3.799 -0.1897 -0.2078  0.3540
  377MOL    O1130843   5.399   6.332   3.817  0.1274  0.0815  0.7439
  377MOL    H1230844   5.519   6.192   3.723 -0.0123 -0.6711  0.5877
  377MOL    H1330845   5.495   6.173   3.890 -0.6319 -0.1221  0.6401
  377MOL    C1430846   5.338   6.381   3.698  0.1709 -0.1105 -0.8446
  377MOL    O1530847   5.199   6.401   3.712  0.2843 -0.2499  0.0947
  377MOL    H1630848   5.357   6.325   3.607  1.3521 -2.2299  0.6715
  377MOL    H1730849   5.380   6.479   3.676  1.9759 -0.9851 -1.4199
  377MOL    C1830850   5.163   6.484   3.824 -0.0231  0.0285 -0.0938
  377MOL    O1930851   5.097   6.598   3.774  0.3250 -0.1410  0.0053
  377MOL    H2030852   5.254   6.518   3.874 -0.8004  1.4512  0.3810
  377MOL    H2130853   5.100   6.426   3.891  2.4599 -1.3222  1.1629
  377MOL    C2230854   4.962   6.575   3.734 -0.1037  0.0263 -0.1402
  377MOL    O2330855   4.881   6.524   3.838  0.0278  0.3206  0.0035
  377MOL    H2430856   4.978   6.496   3.661 -1.8188 -0.4992  0.0389
  377MOL    H2530857   4.924   6.665   3.685 -0.6401 -0.1652 -0.0762
  377MOL    C2630858   4.838   6.624   3.919  0.2543 -0.0041  0.1265
  377MOL    O2730859   4.746   6.709   3.856  0.5447  0.6517  0.0973
  377MOL    H2830860   4.923   6.685   3.948 -0.5622  1.8072 -1.2627
  377MOL    H2930861   4.800   6.589   4.015  1.0819  0.1066  0.4983
  377MOL    C3030862   4.729   6.825   3.933  0.2034  0.1064  0.5253
  377MOL    O3130863   4.640   6.916   3.868  0.6019 -0.0955 -0.9787
  377MOL    H3230864   4.824   6.879   3.935  0.8467 -0.9445 -0.9443
  377MOL    H3330865   4.688   6.795   4.030 -1.6359  0.0597 -0.2453
  377MOL    C3430866   4.518   6.858   3.854  0.1812  0.0575  0.0591
  377MOL    O3530867   4.433   6.951   3.796  0.0337 -0.2517 -0.2773
  377MOL    H3630868   4.475   6.841   3.953  2.8659 -0.6060  1.1762
  377MOL    H3730869   4.520   6.765   3.797 -0.8340  1.8559 -3.0021
  377MOL    C3830870   4.437   6.947   3.656  1.0975 -0.3576  1.0219
  377MOL    O3930871   4.360   7.058   3.614  0.1289 -0.5822 -0.0238
  377MOL    H4030872   4.393   6.855   3.618 -1.5322  1.0870  0.4108
  377MOL    H4130873   4.542   6.947   3.628  0.5986 -0.3865 -0.9206
  377MOL    C4230874   4.434   7.174   3.605  0.7087  0.0852 -0.6259
  377MOL    O4330875   4.512   7.187   3.497 -0.3084  0.0521 -0.4055
  377MOL    H4430876   4.483   7.194   3.700  1.3699  0.0505 -0.9599
  377MOL    H4530877   4.359   7.253   3.594  0.2015 -0.0628  1.6290
  377MOL    C4630878   4.458   7.139   3.374 -0.5076 -0.5634 -0.2054
  377MOL    O4730879   4.523   7.028   3.339 -0.8379 -0.3261 -0.4558
  377MOL    H4830880   4.490   7.213   3.301  0.0157 -0.0760  0.5156
  377MOL    H4930881   4.351   7.117   3.374  0.1971 -4.4356  1.0878
  377MOL    C5030882   4.480   6.973   3.220 -0.2953  0.2883  0.6400
  377MOL    O5130883   4.352   6.909   3.220  0.0549 -0.3439 -0.1480
  377MOL    H5230884   4.559   6.903   3.197  0.8127  1.6271  0.3107
  377MOL    H5330885   4.478   7.048   3.141 -1.4274  0.3520  0.7167
  377MOL    C5430886   4.330   6.813   3.320  0.5483  1.0641  0.1182
  377MOL    O5530887   4.205   6.749   3.315  0.0175  0.5426 -0.1587
  377MOL    H5630888   4.348   6.853   3.420  0.4986  0.2981  0.4353
  377MOL    H5730889   4.389   6.722   3.312  1.3991  1.5506  0.7734
  377MOL    C5830890   4.109   6.828   3.352  0.6910 -0.3811  0.1041
  377MOL    O5930891   3.982   6.777   3.320  0.3579 -0.1567 -0.4048
  377MOL    H6030892   4.115   6.928   3.308 -2.1444  0.8016  2.1943
  377MOL    H6130893   4.122   6.846   3.459 -0.1082 -0.1177  0.1550
  377MOL    C6230894   3.947   6.781   3.184 -0.1241 -0.1712  0.2366
  377MOL    O6330895   3.835   6.693   3.164  0.5099  0.1949  0.3367
  377MOL    H6430896   4.025   6.737   3.122 -1.1091 -0.7169 -0.6214
  377MOL    H6530897   3.925   6.884   3.157  2.2744  0.0621 -0.9962
  377MOL    C6630898   3.712   6.751   3.198 -0.4201  0.2163  0.2839
  377MOL    O6730899   3.684   6.872   3.126 -0.1241 -0.7896  0.5225
  377MOL    H6830900   3.729   6.776   3.303 -1.6018 -0.3198  0.6083
  377MOL    H6930901   3.631   6.679   3.184  0.6603 -1.0473  0.3956
  377MOL    C7030902   3.623   6.860   2.998 -0.0497  0.0857  0.3664
  377MOL    O7130903   3.487   6.817   3.014  0.0768 -0.3850  0.0644
  377MOL    H7230904   3.678   6.786   2.939 -0.1293 -2.4101  3.3166
  377MOL    H7330905   3.611   6.952   2.941 -0.4892  0.1091  0.5005
  377MOL    C7430906   3.408   6.914   3.075  0.0433  0.8191  0.2619
  377MOL    O7530907   3.265   6.880   3.063 -1.1647 -0.4162  0.4031
  377MOL    H7630908   3.423   7.005   3.018  3.2754  1.0329  1.3886
  377MOL    H7730909   3.444   6.940   3.174 -0.0875  0.1092  0.4983
  377MOL    C7830910   3.223   6.776   3.146  0.2863  0.1118 -0.5784
  377MOL    O7930911   3.083   6.787   3.161 -0.1377 -0.1415 -0.1821
  377MOL    H8030912   3.257   6.767   3.249  1.3994  1.1629 -0.8421
  377MOL    H8130913   3.247   6.680   3.102  0.3538 -0.6045  0.9868
  377MOL    H8230914   3.047   6.793   3.074  0.8986 -0.9716 -0.6761
  378MOL     C130915   6.740   1.941   7.548  0.8755 -0.1380 -0.0595
  378MOL     O230916   6.668   1.977   7.429  0.1876  0.0076  0.0170
  378MOL     H330917   6.849   1.938   7.538  1.0085  1.8327  0.4416
  378MOL     H430918   6.720   2.015   7.626 -1.1861 -1.8799  1.0802
  378MOL     H530919   6.704   1.844   7.580 -2.1179  0.7095 -0.7083
  378MOL     C630920   6.701   2.104   7.395 -0.1026  0.7424  0.5486
  378MOL     O730921   6.660   2.111   7.263  0.3130 -0.2096  0.0703
  378MOL     H830922   6.809   2.112   7.386 -0.0647  1.4035  1.4232
  378MOL     H930923   6.664   2.188   7.455 -1.4167 -0.0666  0.8963
  378MOL    C1030924   6.699   2.224   7.195  0.2558 -0.0836 -0.5708
  378MOL    O1130925   6.831   2.233   7.157 -0.6118 -0.1753 -0.3339
  378MOL    H1230926   6.659   2.301   7.262  3.9464  1.0958  0.3763
  378MOL    H1330927   6.645   2.226   7.100 -0.6624 -0.0265 -0.0492
  378MOL    C1430928   6.853   2.346   7.079  0.1187  0.4433 -0.0319
  378MOL    O1530929   6.832   2.461   7.150 -0.0816  0.0078  0.0739
  378MOL    H1630930   6.786   2.347   6.993 -0.0824 -0.3622  0.1136
  378MOL    H1730931   6.954   2.351   7.038  0.6941 -0.2423  1.2972
  378MOL    C1830932   6.852   2.576   7.085 -0.5450  0.0549  0.1982
  378MOL    O1930933   6.771   2.594   6.969 -0.2029  0.1214  1.1150
  378MOL    H2030934   6.953   2.567   7.044 -0.3578 -1.2899  0.9439
  378MOL    H2130935   6.850   2.656   7.159 -1.2814 -0.5843  0.8644
  378MOL    C2230936   6.635   2.622   6.992  0.1477 -0.7386 -0.3702
  378MOL    O2330937   6.614   2.739   7.059  0.3256 -0.1411  0.7063
  378MOL    H2430938   6.599   2.537   7.050 -1.6132 -0.7114 -1.3710
  378MOL    H2530939   6.570   2.623   6.904  1.6463 -1.4129 -1.5179
  378MOL    C2630940   6.642   2.844   6.970 -0.3311 -0.3303  0.0642
  378MOL    O2730941   6.653   2.961   7.044  0.5440  0.2127 -0.1898
  378MOL    H2830942   6.579   2.852   6.881  0.2226 -2.3482 -0.5491
  378MOL    H2930943   6.744   2.840   6.931  0.5411  1.0569  2.1296
  378MOL    C3030944   6.518   3.002   7.081 -0.6629 -0.2599  0.0581
  378MOL    O3130945   6.448   3.058   6.973  0.2242 -0.5680 -0.3015
  378MOL    H3230946   6.533   3.080   7.155 -0.2513 -1.0085  0.7836
  378MOL    H3330947   6.444   2.928   7.111 -1.1256  0.2495  0.1793
  378MOL    C3430948   6.519   3.162   6.916  0.2974  0.1477  0.3446
  378MOL    O3530949   6.511   3.275   6.996 -0.3657 -0.3234 -0.1663
  378MOL    H3630950   6.486   3.189   6.815  0.3327  1.2899  0.6274
  378MOL    H3730951   6.624   3.134   6.902  0.0300 -0.6787 -0.0202
  378MOL    C3830952   6.398   3.357   6.970 -0.1089  0.2418  0.3870
  378MOL    O3930953   6.416   3.426   6.857  0.2650  0.4811 -0.2834
  378MOL    H4030954   6.387   3.422   7.057  0.5174  2.0633 -0.8521
  378MOL    H4130955   6.309   3.294   6.966 -0.6362  1.0591 -1.5473
  378MOL    C4230956   6.525   3.506   6.861 -0.1810  0.3121  0.7022
  378MOL    O4330957   6.493   3.633   6.903  0.5547  0.2856 -0.3895
  378MOL    H4430958   6.579   3.498   6.766  2.9123 -0.8346  2.4893
  378MOL    H4530959   6.609   3.468   6.920  1.4506  1.5808 -0.7457
  378MOL    C4630960   6.420   3.706   6.811  0.6117 -0.1825  0.3271
  378MOL    O4730961   6.513   3.765   6.720 -0.3596  0.8835 -0.5538
  378MOL    H4830962   6.355   3.774   6.867  0.2763 -1.7677  1.9041
  378MOL    H4930963   6.351   3.642   6.757 -1.4204  0.6466  1.8500
  378MOL    C5030964   6.587   3.869   6.771 -0.2460 -0.7719  0.0813
  378MOL    O5130965   6.520   3.995   6.764  0.3717 -0.2542  0.1217
  378MOL    H5230966   6.679   3.885   6.715  0.6125  0.2521  1.7123
  378MOL    H5330967   6.616   3.845   6.873 -1.1449  1.5710  0.9338
  378MOL    C5430968   6.590   4.104   6.817  0.5514  0.2909 -0.1727
  378MOL    O5530969   6.707   4.133   6.742  0.3001 -0.2976 -0.2162
  378MOL    H5630970   6.624   4.096   6.920  0.4813  2.2154  0.0188
  378MOL    H5730971   6.533   4.196   6.806  2.0370  1.2365 -0.1651
  378MOL    C5830972   6.680   4.200   6.619  0.3759 -0.0763 -0.5717
  378MOL    O5930973   6.656   4.334   6.635 -0.7739  0.3299 -1.2461
  378MOL    H6030974   6.590   4.161   6.573 -0.0728  0.8413 -0.4844
  378MOL    H6130975   6.776   4.198   6.566  0.0106  2.9334 -1.4276
  378MOL    C6230976   6.768   4.397   6.698 -0.6613 -0.3457 -0.3498
  378MOL    O6330977   6.872   4.412   6.606  0.5839 -0.3134 -0.1385
  378MOL    H6430978   6.814   4.329   6.770 -0.6269 -0.6418 -0.6522
  378MOL    H6530979   6.741   4.489   6.751 -1.5711 -0.3497 -0.7890
  378MOL    C6630980   6.845   4.511   6.511  0.1956  0.0423  0.2365
  378MOL    O6730981   6.836   4.641   6.563  0.5157 -0.2189 -0.2394
  378MOL    H6830982   6.750   4.489   6.462  0.3747  0.3108 -0.2351
  378MOL    H6930983   6.924   4.506   6.437  0.2039  1.1303  0.1682
  378MOL    C7030984   6.954   4.686   6.622  0.5561 -0.6270  0.2518
  378MOL    O7130985   6.936   4.814   6.681 -0.2954 -0.6811 -0.6355
  378MOL    H7230986   7.034   4.695   6.548  2.9807 -0.2247  2.8566
  378MOL    H7330987   6.992   4.613   6.693 -0.9979 -2.4789 -0.7817
  378MOL    C7430988   6.846   4.813   6.787  0.0553  0.1355  0.1948
  378MOL    O7530989   6.905   4.750   6.903  0.7478 -0.3935 -0.1473
  378MOL    H7630990   6.757   4.760   6.753  0.5458 -1.1593  0.8751
  378MOL    H7730991   6.818   4.918   6.794 -2.0273 -0.4261  0.6371
  378MOL    C7830992   7.021   4.802   6.952 -0.4734  0.1179 -0.4426
  378MOL    O7930993   7.076   4.708   7.045 -0.3216  0.5821 -0.6743
  378MOL    H8030994   7.003   4.904   6.986 -0.0788  0.2750 -0.7046
  378MOL    H8130995   7.093   4.803   6.871  0.9997  0.2343  0.8469
  378MOL    H8230996   7.078   4.625   7.000 -0.9707  1.6757 -2.8063
  379MOL     C130997   3.551   6.501   7.536 -0.4911  0.0415  0.2294
  379MOL     O230998   3.644   6.604   7.495  0.4790 -0.2287 -0.4143
  379MOL     H330999   3.457   6.546   7.566 -1.5711 -1.2092 -1.2531
  379MOL     H431000   3.527   6.429   7.458 -0.6005 -0.9233  1.1465
  379MOL     H531001   3.590   6.455   7.627 -1.5884 -0.2188  0.5723
  379MOL     C631002   3.590   6.672   7.387  0.2060 -0.6325  0.5082
  379MOL     O731003   3.491   6.764   7.421 -0.9244 -0.1446 -0.0121
  379MOL     H831004   3.542   6.598   7.322  0.3869  0.2150 -0.6105
  379MOL     H931005   3.662   6.721   7.322  0.2432 -0.3363  0.7754
  379MOL    C1031006   3.547   6.872   7.502 -0.4162 -0.8720  0.3358
  379MOL    O1131007   3.611   6.960   7.418  0.0850 -0.2356 -0.6212
  379MOL    H1231008   3.621   6.845   7.577  0.1899 -2.6622 -0.8708
  379MOL    H1331009   3.467   6.923   7.556 -1.5273  0.1416 -2.1667
  379MOL    C1431010   3.530   7.057   7.371  0.5041  0.0168 -0.3892
  379MOL    O1531011   3.566   7.122   7.249  0.1507  0.3126  0.4579
  379MOL    H1631012   3.496   7.136   7.436 -1.4446 -1.2671  0.1882
  379MOL    H1731013   3.439   7.004   7.344 -0.1499  0.2976  1.2628
  379MOL    C1831014   3.655   7.226   7.275  0.4512  0.0849 -0.1730
  379MOL    O1931015   3.596   7.325   7.352 -0.5775 -0.0819 -0.4103
  379MOL    H2031016   3.674   7.264   7.175 -1.4263  0.0694 -0.5624
  379MOL    H2131017   3.747   7.192   7.323  0.5088  0.9830  0.3680
  379MOL    C2231018   3.636   7.454   7.329 -0.5123 -0.2134  0.2243
  379MOL    O2331019   3.768   7.473   7.388  0.3878  0.2875  0.0793
  379MOL    H2431020   3.562   7.520   7.373 -2.6086 -2.9020  0.8805
  379MOL    H2531021   3.639   7.484   7.225  1.7633 -2.8215 -0.5260
  379MOL    C2631022   3.766   7.504   7.523  0.2017 -0.8239  0.2932
  379MOL    O2731023   3.714   7.631   7.544  0.2772 -0.3877  0.2858
  379MOL    H2831024   3.867   7.502   7.566 -0.5340  1.5405  2.2374
  379MOL    H2931025   3.705   7.429   7.574  0.0893 -0.7712  0.2355
  379MOL    C3031026   3.805   7.726   7.494  0.3179  0.0022 -0.0372
  379MOL    O3131027   3.899   7.744   7.599 -0.0754  0.4432 -0.0435
  379MOL    H3231028   3.756   0.037   7.471  2.1599  0.8094 -0.8122
  379MOL    H3331029   3.850   7.696   7.399 -0.2227 -0.7414 -0.0571
  379MOL    C3431030   3.888   0.076   7.660 -0.0702  0.6522 -0.0375
  379MOL    O3531031   3.921   0.182   7.586 -0.1906 -0.6230  0.1776
  379MOL    H3631032   3.949   0.067   7.750 -0.0509 -0.1216 -0.1252
  379MOL    H3731033   3.786   0.084   7.698 -1.0416 -0.5824 -2.2939
  379MOL    C3831034   4.048   0.177   7.534 -0.2024  0.6716  0.4321
  379MOL    O3931035   4.051   0.116   7.411 -0.5524 -0.3388 -0.6052
  379MOL    H4031036   4.117   0.117   7.594 -1.3341 -0.5220  0.5699
  379MOL    H4131037   4.088   0.278   7.529  1.9969 -0.2291 -0.5294
  379MOL    C4231038   3.982   0.187   7.311  0.6223 -0.1535 -1.5441
  379MOL    O4331039   4.064   0.268   7.243  0.2236 -0.2870 -0.1375
  379MOL    H4431040   3.895   0.237   7.354  1.8498  1.1144 -0.4922
  379MOL    H4531041   3.937   0.107   7.251  0.7125  0.6653 -2.7088
  379MOL    C4631042   3.997   0.330   7.138  0.3015 -0.5472  0.1857
  379MOL    O4731043   3.926   0.442   7.195  0.3894 -0.2434  0.0617
  379MOL    H4831044   3.932   0.265   7.080  0.0636  0.1427 -0.3265
  379MOL    H4931045   4.070   0.364   7.065  0.9439  1.1248  1.5770
  379MOL    C5031046   4.009   0.552   7.221 -0.0548  0.0922 -0.6820
  379MOL    O5131047   3.954   0.629   7.326  0.4381  0.0361 -0.4611
  379MOL    H5231048   4.016   0.610   7.128 -0.0216 -0.3861 -0.9817
  379MOL    H5331049   4.110   0.518   7.242 -0.5956 -0.7711  0.5529
  379MOL    C5431050   3.988   0.574   7.451 -0.1430  0.5331  0.1882
  379MOL    O5531051   3.922   0.649   7.544  0.0340  0.3593 -0.5153
  379MOL    H5631052   4.095   0.568   7.470 -0.4569  0.4077  2.0551
  379MOL    H5731053   3.953   0.471   7.463 -1.0395  0.8870  0.6631
  379MOL    C5831054   3.782   0.662   7.525 -0.2546 -1.2519  0.3125
  379MOL    O5931055   3.710   0.599   7.627 -0.0760  0.0630 -0.1479
  379MOL    H6031056   3.745   0.633   7.427  0.2147  3.2350 -1.2814
  379MOL    H6131057   3.761   0.769   7.533  1.5218 -0.9340  0.8641
  379MOL    C6231058   3.680   0.468   7.594  0.1643 -0.1632  0.5889
  379MOL    O6331059   3.575   0.472   7.510  0.0438 -0.1842  0.0557
  379MOL    H6431060   3.666   0.399   7.677  0.8868 -1.8270 -0.6311
  379MOL    H6531061   3.763   0.421   7.542  0.5029 -2.1476  2.8201
  379MOL    C6631062   3.457   0.527   7.555 -0.4125 -0.0706  0.2823
  379MOL    O6731063   3.385   0.435   7.639 -0.1598  0.1428  0.0574
  379MOL    H6831064   3.392   0.543   7.469 -0.2782 -0.6003  0.0816
  379MOL    H6931065   3.473   0.622   7.607  1.6338 -0.0010 -0.4450
  379MOL    C7031066   3.286   0.493   7.726 -0.4430  0.1500  0.8383
  379MOL    O7131067   3.340   0.586   0.025 -0.5984 -0.3753 -0.7122
  379MOL    H7231068   3.228   0.413   7.772  2.2798 -2.5832 -0.2851
  379MOL    H7331069   3.225   0.555   7.660  2.7599  1.5540 -0.9685
  379MOL    C7431070   3.387   0.520   0.140 -0.3133  0.1058  0.3788
  379MOL    O7531071   3.293   0.452   0.218  0.2946  0.0295 -0.0076
  379MOL    H7631072   3.434   0.594   0.205  0.1225  1.5137 -1.4950
  379MOL    H7731073   3.459   0.444   0.111 -0.9699 -0.1419 -0.6471
  379MOL    C7831074   3.206   0.542   0.287 -0.4506  0.0916  0.4682
  379MOL    O7931075   3.123   0.452   0.353  0.2382 -0.4759  0.1627
  379MOL    H8031076   3.142   0.589   0.212 -0.6771 -0.7261  0.1403
  379MOL    H8131077   3.256   0.622   0.341  1.0452 -0.6626  0.2506
  379MOL    H8231078   3.091   0.398   0.282  1.6407  0.6259 -1.3651
  380MOL     C131079   6.485   3.420   0.034 -0.6406  0.0240  0.4436
  380MOL     O231080   6.595   3.320   0.030  0.4495 -0.6018 -0.2788
  380MOL     H331081   6.476   3.447   0.140  1.1995 -0.1349  0.6520
  380MOL     H431082   6.523   3.513   7.775  0.3103  0.7790  2.8383
  380MOL     H531083   6.397   3.393   7.759 -0.7326 -0.5137  0.8251
  380MOL     C631084   6.575   3.199   0.093  0.2326 -0.3548 -0.0977
  380MOL     O731085   6.480   3.127   0.018  0.2035  0.0200 -0.0571
  380MOL     H831086   6.529   3.209   0.191 -0.4170 -0.5520 -0.3756
  380MOL     H931087   6.676   3.161   0.104 -0.5589 -2.0806  1.4962
  380MOL    C1031088   6.535   3.070   7.689 -0.0143  0.2142  0.2490
  380MOL    O1131089   6.427   3.053   7.591  0.2469  0.5672 -0.7825
  380MOL    H1231090   6.571   2.973   7.723  1.0742  0.7790  0.7516
  380MOL    H1331091   6.616   3.129   7.645 -0.1008  1.3553  1.5653
  380MOL    C1431092   6.340   2.951   7.642 -0.5800  0.1725 -0.1341
  380MOL    O1531093   6.397   2.828   7.635  0.1047  0.8144 -0.0718
  380MOL    H1631094   6.250   2.954   7.581 -0.8059 -0.6245  0.1581
  380MOL    H1731095   6.305   2.978   7.742 -0.0499  0.2777  0.0234
  380MOL    C1831096   6.403   2.773   7.512 -0.2591  0.4249  0.2078
  380MOL    O1931097   6.274   2.737   7.454  0.5881 -0.7339 -0.1328
  380MOL    H2031098   6.461   2.681   7.518 -0.8271  0.1326  1.3996
  380MOL    H2131099   6.450   2.837   7.438 -2.1761  0.4213 -1.0587
  380MOL    C2231100   6.281   2.698   7.322 -0.1989  0.1357 -0.6580
  380MOL    O2331101   6.292   2.810   7.242 -0.1828 -0.2539 -0.8691
  380MOL    H2431102   6.193   2.639   7.296  0.1343 -0.5288 -0.2839
  380MOL    H2531103   6.366   2.631   7.303 -0.7600 -0.5857 -0.6525
  380MOL    C2631104   6.170   2.876   7.235 -0.1062 -0.4823  0.3829
  380MOL    O2731105   6.090   2.821   7.134  0.0238 -0.4400  0.3548
  380MOL    H2831106   6.181   2.979   7.201  2.2939 -0.2879  1.6021
  380MOL    H2931107   6.122   2.884   7.333 -0.2758 -0.5899  0.3071
  380MOL    C3031108   6.128   2.864   7.010  0.0841  0.2014  0.6502
  380MOL    O3131109   6.081   2.767   6.924 -0.3985 -0.6361 -0.5152
  380MOL    H3231110   6.236   2.863   7.004 -0.0276  0.0489 -2.9149
  380MOL    H3331111   6.095   2.966   6.990  2.0700  0.7503  0.1343
  380MOL    C3431112   6.151   2.777   6.799 -0.2548 -0.2539 -0.6268
  380MOL    O3531113   6.271   2.709   6.809 -0.0492  1.0893  0.0639
  380MOL    H3631114   6.153   2.881   6.766 -1.5534 -0.0426 -0.0611
  380MOL    H3731115   6.089   2.727   6.725 -1.6130  0.6640 -0.1208
  380MOL    C3831116   6.264   2.570   6.798  0.3654 -0.1478  0.2278
  380MOL    O3931117   6.196   2.510   6.902  0.5670 -0.1068 -0.4130
  380MOL    H4031118   6.367   2.538   6.811  0.2037 -0.0588  1.8261
  380MOL    H4131119   6.220   2.529   6.707 -1.1527 -0.3574  1.0434
  380MOL    C4231120   6.261   2.528   7.028 -0.1464 -1.1017 -0.6286
  380MOL    O4331121   6.374   2.445   7.041 -0.4439  0.4506 -0.2156
  380MOL    H4431122   6.192   2.512   7.110 -1.9955  0.2372 -1.8875
  380MOL    H4531123   6.297   2.631   7.029 -0.6501 -0.8840 -2.5519
  380MOL    C4631124   6.339   2.317   7.089  0.8433 -0.3117  0.2247
  380MOL    O4731125   6.306   2.325   7.226  0.1905  0.5309 -0.4801
  380MOL    H4831126   6.415   2.246   7.057 -0.8016 -2.3943  0.7869
  380MOL    H4931127   6.246   2.293   7.038  0.5542  2.3827 -0.5899
  380MOL    C5031128   6.227   2.216   7.276 -0.3938  0.4523  0.4317
  380MOL    O5131129   6.263   2.204   7.410  0.6860 -0.0435 -0.9767
  380MOL    H5231130   6.252   2.124   7.223  1.0695  0.5657  0.9099
  380MOL    H5331131   6.123   2.243   7.257 -0.2591  1.7103  1.3932
  380MOL    C5431132   6.183   2.107   7.468  0.3515 -0.5544 -0.0447
  380MOL    O5531133   6.225   1.983   7.424 -0.0817 -0.4999  0.1783
  380MOL    H5631134   6.077   2.125   7.446  0.3364  0.8787  1.1256
  380MOL    H5731135   6.195   2.120   7.575  3.3810  0.2865 -0.4644
  380MOL    C5831136   6.346   1.948   7.473  0.1221  0.4076  0.3041
  380MOL    O5931137   6.335   1.835   7.552 -0.1467  0.3031 -0.2748
  380MOL    H6031138   6.403   2.030   7.516 -0.7188  0.1286  1.9961
  380MOL    H6131139   6.405   1.909   7.391  0.3914  0.1573  0.6212
  380MOL    C6231140   6.277   1.853   7.676 -0.0049  0.1952 -0.4589
  380MOL    O6331141   6.350   1.939   7.751  0.0775 -0.3961 -0.2903
  380MOL    H6431142   6.262   1.754   7.719  2.9665  0.6547  1.7557
  380MOL    H6531143   6.175   1.892   7.675 -0.2626 -0.4437 -2.8672
  380MOL    C6631144   6.462   1.876   0.019  0.1007 -0.2448 -0.1565
  380MOL    O6731145   6.446   1.803   0.138 -0.3034  0.2063 -0.1919
  380MOL    H6831146   6.533   1.958   0.033  2.3760 -1.9309 -1.4360
  380MOL    H6931147   6.512   1.812   7.730 -1.5238  0.5805 -2.0701
  380MOL    C7031148   6.395   1.882   0.244 -0.1533 -0.1472  0.3102
  380MOL    O7131149   6.502   1.954   0.296 -0.4632 -0.5002 -0.0287
  380MOL    H7231150   6.342   1.814   0.311  0.4184 -1.6676 -0.7342
  380MOL    H7331151   6.327   1.962   0.218  0.3753  1.0599  2.5680
  380MOL    C7431152   6.569   1.890   0.396 -0.0415 -0.1619 -0.7195
  380MOL    O7531153   6.490   1.867   0.508  0.2809 -0.3257 -0.1575
  380MOL    H7631154   6.659   1.946   0.420 -2.1063  2.5556  0.9209
  380MOL    H7731155   6.597   1.792   0.357  2.3664  1.2199 -2.6787
  380MOL    C7831156   6.429   1.980   0.570  0.7092 -0.4706 -0.6362
  380MOL    O7931157   6.334   1.943   0.674 -0.1752  0.0022  0.5783
  380MOL    H8031158   6.372   2.040   0.498 -0.5160 -0.8749 -0.0193
  380MOL    H8131159   6.498   2.053   0.611  0.4778 -0.6953  0.1568
  380MOL    H8231160   6.249   1.963   0.638 -0.2017 -0.0613  0.6056
  381MOL     C131161   2.562   2.630   3.828  0.6235 -0.1287  0.0338
  381MOL     O231162   2.683   2.613   3.749  0.2816  0.1817  0.0977
  381MOL     H331163   2.473   2.610   3.768  1.6222 -2.3541 -0.7217
  381MOL     H431164   2.558   2.560   3.912 -2.3336 -0.8734 -0.6433
  381MOL     H531165   2.555   2.731   3.869  1.3112 -0.5207  1.1337
  381MOL     C631166   2.796   2.630   3.831  0.8455  0.5483  0.1945
  381MOL     O731167   2.811   2.520   3.920  0.4909  0.4663  0.3973
  381MOL     H831168   2.783   2.724   3.883  1.1864  0.5823  0.2205
  381MOL     H931169   2.879   2.635   3.759  0.8630  1.7080  0.2906
  381MOL    C1031170   2.907   2.539   4.013  0.4969  0.6707  0.3645
  381MOL    O1131171   2.890   2.661   4.082  0.0811  0.2302  0.9399
  381MOL    H1231172   3.000   2.559   3.959  1.5218 -0.9884  1.4735
  381MOL    H1331173   2.930   2.457   4.082  0.8589  1.3269  1.0319
  381MOL    C1431174   2.777   2.654   4.168 -0.1129 -0.5095  0.5697
  381MOL    O1531175   2.816   2.619   4.299 -0.6650  0.2757 -0.3470
  381MOL    H1631176   2.703   2.585   4.128 -1.7054  0.5548  1.6319
  381MOL    H1731177   2.731   2.753   4.170 -3.2186 -1.9065  0.6556
  381MOL    C1831178   2.886   2.720   4.375 -0.7440 -0.1573 -0.1369
  381MOL    O1931179   2.809   2.817   4.444  0.1987 -0.2541 -0.8036
  381MOL    H2031180   2.938   2.778   4.299 -2.1743  0.0990 -0.9323
  381MOL    H2131181   2.963   2.672   4.435 -0.2700 -0.7870 -1.2277
  381MOL    C2231182   2.730   2.762   4.534 -0.1379  0.4160  0.2421
  381MOL    O2331183   2.802   2.705   4.643  0.3478 -0.0343 -1.0194
  381MOL    H2431184   2.661   2.698   4.478 -1.2685  3.2205 -1.6820
  381MOL    H2531185   2.669   2.843   4.573  0.3570  0.3468  1.1671
  381MOL    C2631186   2.881   2.800   4.704 -0.5159  1.0536 -0.8148
  381MOL    O2731187   2.976   2.731   4.790  0.4615  0.7506 -0.3237
  381MOL    H2831188   2.821   2.856   4.776 -2.1475 -0.3251 -1.0494
  381MOL    H2931189   2.933   2.872   4.642 -0.6148 -0.0749 -2.2291
  381MOL    C3031190   3.071   2.656   4.722  0.2056  0.0239  0.1123
  381MOL    O3131191   3.171   2.614   4.806  0.0485 -0.4519 -0.0661
  381MOL    H3231192   3.115   2.727   4.652  1.4179 -0.4320  0.3981
  381MOL    H3331193   3.038   2.572   4.661  2.3954 -2.8291  2.6919
  381MOL    C3431194   3.142   2.498   4.878 -0.1767  0.7054 -0.2212
  381MOL    O3531195   3.175   2.385   4.808  0.2737  0.0107 -0.5145
  381MOL    H3631196   3.036   2.496   4.905  0.1035 -1.5532  0.9033
  381MOL    H3731197   3.200   2.508   4.969 -1.0985 -1.0208  0.5857
  381MOL    C3831198   3.316   2.361   4.821  0.1536 -0.0482 -0.4000
  381MOL    O3931199   3.343   2.309   4.948  0.1207 -0.2910  0.0757
  381MOL    H4031200   3.362   2.459   4.809  0.8073 -0.3453 -0.3570
  381MOL    H4131201   3.351   2.294   4.743  0.6136 -0.1947 -0.0735
  381MOL    C4231202   3.328   2.168   4.947 -0.0983  0.2031  0.3622
  381MOL    O4331203   3.435   2.102   4.880 -0.1942  0.1427  0.0682
  381MOL    H4431204   3.237   2.143   4.891 -0.4839  0.3663  0.9056
  381MOL    H4531205   3.328   2.128   5.048 -0.4366  0.5369  0.4949
  381MOL    C4631206   3.556   2.108   4.952  0.2090 -0.0715  0.2234
  381MOL    O4731207   3.656   2.024   4.889 -0.3185  0.5222  0.6807
  381MOL    H4831208   3.540   2.050   5.043 -0.2178  1.7611  1.3339
  381MOL    H4931209   3.594   2.208   4.970  0.6283  0.0453 -1.2010
  381MOL    C5031210   3.693   2.082   4.765 -0.0636  0.1675 -0.3957
  381MOL    O5131211   3.811   2.157   4.781  0.1646 -0.5503  0.0818
  381MOL    H5231212   3.607   2.132   4.721 -0.9747 -0.2855  0.8484
  381MOL    H5331213   3.713   1.996   4.702 -2.2088  0.0587 -0.9804
  381MOL    C5431214   3.860   2.200   4.661 -0.6666  0.1837  0.9510
  381MOL    O5531215   3.891   2.102   4.564  0.2704 -0.0999 -0.4581
  381MOL    H5631216   3.958   2.239   4.688  0.4179 -0.3443 -2.0441
  381MOL    H5731217   3.810   2.288   4.621  0.2087  1.2147  2.0665
  381MOL    C5831218   3.982   2.013   4.616 -0.4519  0.2098  1.1106
  381MOL    O5931219   4.063   1.952   4.517 -0.2269  0.1658  0.2391
  381MOL    H6031220   3.910   1.946   4.663 -1.0274 -0.0648 -0.1438
  381MOL    H6131221   4.040   2.057   4.697  0.4359 -0.1278  0.6668
  381MOL    C6231222   3.997   1.881   4.423 -0.1251 -0.1962  0.8291
  381MOL    O6331223   3.934   1.764   4.470 -0.5779  0.0003 -0.5875
  381MOL    H6431224   4.071   1.853   4.348 -0.8883 -0.4046  0.1525
  381MOL    H6531225   3.919   1.941   4.377  1.7032 -0.1195 -2.3124
  381MOL    C6631226   4.026   1.676   4.529 -0.2122 -0.4353  0.4326
  381MOL    O6731227   3.961   1.578   4.605 -0.3766  0.7691 -0.2550
  381MOL    H6831228   4.101   1.714   4.598 -0.2361 -1.9573  1.3097
  381MOL    H6931229   4.079   1.627   4.447  1.0409  0.7834  0.4941
  381MOL    C7031230   3.914   1.619   4.729  0.3861  0.3170 -1.2429
  381MOL    O7131231   4.031   1.622   4.816  0.4640  0.1289  0.0836
  381MOL    H7231232   3.844   1.542   4.759 -1.5441  2.2992 -0.5792
  381MOL    H7331233   3.854   1.709   4.731  1.7019  1.1968  0.6600
  381MOL    C7431234   4.055   1.500   4.882  0.1916 -0.2651  0.0436
  381MOL    O7531235   3.948   1.468   4.969  0.5946  0.0562 -0.3029
  381MOL    H7631236   4.151   1.499   4.933  0.3751 -0.2128 -0.3034
  381MOL    H7731237   4.058   1.418   4.810 -0.5915 -0.5903  0.3725
  381MOL    C7831238   3.937   1.553   5.072  0.0423  0.0051  0.2769
  381MOL    O7931239   3.817   1.543   5.150  0.4063 -0.0023 -0.5713
  381MOL    H8031240   3.942   1.656   5.038  2.8138  0.2984  1.4401
  381MOL    H8131241   4.021   1.539   5.140 -1.4967 -1.2897  1.9439
  381MOL    H8231242   3.755   1.603   5.111 -0.7128 -0.9794 -0.3270
  382MOL     C131243   0.159   2.431   6.401 -0.1161 -0.1826 -0.0336
  382MOL     O231244   0.130   2.331   6.505 -0.1596  0.1455  0.3019
  382MOL     H331245   0.187   2.521   6.456  0.2767 -0.3226 -0.0052
  382MOL     H431246   0.246   2.401   6.342  0.1153 -0.0989  0.2599
  382MOL     H531247   0.065   2.448   6.349  0.0952  3.1828  0.5739
  382MOL     C631248   0.122   2.203   6.451 -0.1038  0.4462 -0.6613
  382MOL     O731249   0.239   2.157   6.402  0.0326  0.3340  0.2790
  382MOL     H831250   0.050   2.203   6.369  0.3024 -0.4641 -1.0292
  382MOL     H931251   0.086   2.137   6.529 -0.9306 -2.1831 -3.1739
  382MOL    C1031252   0.331   2.122   6.496 -0.5851 -0.0558 -0.1165
  382MOL    O1131253   0.296   2.018   6.591  1.0039 -0.4253  0.1536
  382MOL    H1231254   0.364   2.218   6.538 -2.6517  0.2494  0.8619
  382MOL    H1331255   0.426   2.094   6.451 -1.0174 -0.1910 -0.9376
  382MOL    C1431256   0.279   2.064   6.719  0.6040 -0.2080  0.3760
  382MOL    O1531257   0.406   2.091   6.774  0.4211 -0.2259 -0.3143
  382MOL    H1631258   0.221   1.993   6.779 -1.4700  1.4656  0.4297
  382MOL    H1731259   0.225   2.158   6.718  1.8604  0.5097 -0.1067
  382MOL    C1831260   0.437   2.012   6.887  0.4546 -0.1927  0.3933
  382MOL    O1931261   0.364   2.052   6.997  0.3496 -0.3615 -0.0580
  382MOL    H2031262   0.546   2.010   6.894  0.7606 -0.1035 -3.3785
  382MOL    H2131263   0.400   1.911   6.867  0.3851 -0.2928  1.0099
  382MOL    C2231264   0.450   2.116   7.083  0.3289  0.3439  0.4465
  382MOL    O2331265   0.495   2.239   7.039  0.3000 -0.0672 -0.2416
  382MOL    H2431266   0.525   2.042   7.115 -0.1857 -0.6161 -0.5538
  382MOL    H2531267   0.392   2.130   7.174 -0.7994  1.8893 -0.5007
  382MOL    C2631268   0.614   2.286   7.107 -0.1281  0.8016 -0.6842
  382MOL    O2731269   0.577   2.341   7.227  0.0803  0.1618 -0.1595
  382MOL    H2831270   0.670   2.353   7.042  2.9294 -0.4974  0.5564
  382MOL    H2931271   0.673   2.196   7.125  0.7602  1.9714  2.5664
  382MOL    C3031272   0.682   2.371   7.309 -0.2935 -0.1842 -0.0377
  382MOL    O3131273   0.669   2.501   7.353  0.0130  0.1204  0.0049
  382MOL    H3231274   0.781   2.348   7.271  0.1908  0.0885  1.0389
  382MOL    H3331275   0.675   2.311   7.400  2.3020  0.0205  0.3456
  382MOL    C3431276   0.706   2.599   7.264 -0.1275 -0.2528  0.0400
  382MOL    O3531277   0.844   2.595   7.253  0.4464  0.2875  0.0597
  382MOL    H3631278   0.677   2.698   7.299 -1.3517 -0.8930  0.8511
  382MOL    H3731279   0.656   2.596   7.167 -0.5585  1.3160  0.1885
  382MOL    C3831280   0.899   2.696   7.180 -0.4751  0.0599  0.0980
  382MOL    O3931281   0.860   2.821   7.222  0.4193  0.1028  0.6938
  382MOL    H4031282   0.859   2.672   7.082 -0.5545 -0.4521  0.2569
  382MOL    H4131283   1.008   2.694   7.183 -0.5281 -1.2383  2.1463
  382MOL    C4231284   0.903   2.925   7.133 -0.3735 -0.1184 -0.5228
  382MOL    O4331285   0.827   2.921   7.012  0.2624  0.2692  0.3267
  382MOL    H4431286   1.010   2.909   7.115  0.0487 -1.3664  2.7189
  382MOL    H4531287   0.893   3.023   7.179  0.1696 -0.4097  0.2313
  382MOL    C4631288   0.692   2.949   7.031 -0.1772  0.1239 -0.0049
  382MOL    O4731289   0.672   3.085   7.039  0.6088 -0.0669  0.6600
  382MOL    H4831290   0.650   2.887   7.110 -0.0910 -0.9807 -0.8140
  382MOL    H4931291   0.653   2.916   6.934 -0.4503  0.1225  0.1049
  382MOL    C5031292   0.552   3.122   7.103  0.3051 -0.2451 -0.3283
  382MOL    O5131293   0.550   3.092   7.240  0.5508 -0.4250  0.2759
  382MOL    H5231294   0.474   3.061   7.057  0.5028 -0.2658 -0.6361
  382MOL    H5331295   0.537   3.230   7.091  0.9630 -0.2641 -1.4128
  382MOL    C5431296   0.650   3.138   7.318  0.4859  0.1282  0.4026
  382MOL    O5531297   0.620   3.259   7.376 -0.0271 -0.2786 -0.1769
  382MOL    H5631298   0.745   3.141   7.265 -0.7696  1.0971 -1.8432
  382MOL    H5731299   0.657   3.072   7.405 -1.9900  0.3277  0.8035
  382MOL    C5831300   0.694   3.363   7.328  0.0822 -0.2963 -0.1869
  382MOL    O5931301   0.826   3.342   7.352 -0.3108  0.3045  0.4120
  382MOL    H6031302   0.658   3.456   7.373 -0.8079 -0.5250 -0.4331
  382MOL    H6131303   0.690   3.372   7.220  2.7396  0.5567 -0.2507
  382MOL    C6231304   0.870   3.370   7.478 -0.1287  0.2600 -0.2941
  382MOL    O6331305   0.893   3.512   7.505 -0.4474 -0.8649  0.4152
  382MOL    H6431306   0.970   3.329   7.493 -0.9693 -2.0181 -0.7117
  382MOL    H6531307   0.805   3.318   7.549 -0.6068  1.7823  0.4162
  382MOL    C6631308   0.998   3.565   7.416  0.1089  0.3892 -0.1418
  382MOL    O6731309   1.126   3.528   7.456 -0.3965 -0.0534 -0.4412
  382MOL    H6831310   0.992   3.674   7.412  1.2344  0.4672  0.1072
  382MOL    H6931311   0.972   3.528   7.317  2.7259  3.3841 -1.9967
  382MOL    C7031312   1.155   3.550   7.592  0.4401 -0.1735 -0.5488
  382MOL    O7131313   1.191   3.682   7.616  0.1753 -0.2439 -0.0420
  382MOL    H7231314   1.245   3.491   7.611 -0.2640 -1.9760 -2.5677
  382MOL    H7331315   1.084   3.514   7.666 -0.0077 -3.1053 -2.3206
  382MOL    C7431316   1.092   3.773   7.669 -0.4396  0.5260  0.6664
  382MOL    O7531317   1.072   3.759   0.023  0.1152 -0.0027  0.5492
  382MOL    H7631318   1.000   3.779   7.611  0.4186  1.3555 -0.6453
  382MOL    H7731319   1.140   3.867   7.645  0.0426 -0.0465 -0.6694
  382MOL    C7831320   1.071   3.883   0.088  0.3958 -0.4582 -0.3750
  382MOL    O7931321   1.049   3.864   0.225  0.6950  0.1949  0.5043
  382MOL    H8031322   0.993   3.953   0.057 -0.9350 -2.1441 -0.9463
  382MOL    H8131323   1.168   3.930   0.073  0.0997 -0.1601 -1.3911
  382MOL    H8231324   1.099   3.787   0.243 -0.2994 -0.4947  0.3735
  383MOL     C131325   2.337   6.166   6.747 -0.3443 -0.2906 -0.5152
  383MOL     O231326   2.216   6.187   6.684 -0.1240 -0.0669  0.0622
  383MOL     H331327   2.417   6.236   6.721 -0.5731 -0.2489 -1.1188
  383MOL     H431328   2.314   6.153   6.852 -1.2638  0.2759 -0.6424
  383MOL     H531329   2.367   6.066   6.716 -1.4905 -0.6650 -0.4327
  383MOL     C631330   2.226   6.218   6.547  0.7888  0.1194 -0.8294
  383MOL     O731331   2.305   6.325   6.514  0.2672  0.3864  0.0050
  383MOL     H831332   2.129   6.222   6.498  0.1770  0.3602  0.3809
  383MOL     H931333   2.272   6.133   6.496  0.4382 -0.7188  0.2358
  383MOL    C1031334   2.254   6.448   6.560  0.0785  0.2258  0.9197
  383MOL    O1131335   2.126   6.472   6.511 -1.0024  0.2732 -0.4605
  383MOL    H1231336   2.317   6.530   6.526  0.3720 -0.4973 -0.3340
  383MOL    H1331337   2.262   6.456   6.668  3.5463 -0.7143  0.7856
  383MOL    C1431338   2.122   6.515   6.378  0.6375 -0.1757  0.3516
  383MOL    O1531339   2.175   6.651   6.367  0.4246  0.6576 -0.1887
  383MOL    H1631340   2.019   6.507   6.344  1.5430 -0.7309 -2.3987
  383MOL    H1731341   2.175   6.437   6.323  1.0769 -0.2078  0.8100
  383MOL    C1831342   2.082   6.738   6.424  0.0390  0.6470 -0.0895
  383MOL    O1931343   1.956   6.745   6.358 -0.3310  0.3484  0.1857
  383MOL    H2031344   2.126   6.837   6.437  0.3879  0.8154 -2.4289
  383MOL    H2131345   2.067   6.711   6.529 -0.2640 -3.4910 -1.1153
  383MOL    C2231346   1.975   6.824   6.243 -0.1165 -0.2346  0.3120
  383MOL    O2331347   1.966   6.963   6.268  0.2662  0.5834 -0.3647
  383MOL    H2431348   1.899   6.804   6.168 -0.6451 -1.8568  1.2550
  383MOL    H2531349   2.071   6.802   6.196 -0.9881 -1.6001 -0.8687
  383MOL    C2631350   2.010   7.048   6.164 -1.0309  0.5972 -0.6930
  383MOL    O2731351   1.913   7.136   6.110 -0.3084 -0.5983  0.2787
  383MOL    H2831352   2.046   6.998   6.074 -0.8125 -2.8060  1.2232
  383MOL    H2931353   2.096   7.105   6.199 -0.6970 -1.8381  2.6718
  383MOL    C3031354   1.822   7.073   6.024  0.2212  0.2348 -0.8464
  383MOL    O3131355   1.743   6.983   6.091  0.3948 -0.4327 -0.3603
  383MOL    H3231356   1.864   7.017   5.941 -2.5395 -2.4025 -0.5482
  383MOL    H3331357   1.770   7.159   5.982  2.2327  1.7192 -0.3578
  383MOL    C3431358   1.668   7.041   6.195  0.0456  0.5149 -0.4184
  383MOL    O3531359   1.562   7.121   6.142 -0.7219  0.2611 -0.2161
  383MOL    H3631360   1.729   7.104   6.260 -0.1508  0.0979  0.1841
  383MOL    H3731361   1.631   6.961   6.259  1.1450  1.5339  1.5361
  383MOL    C3831362   1.465   7.050   6.090  0.7411 -0.8031 -0.1965
  383MOL    O3931363   1.357   7.141   6.077 -0.1553  0.6872  0.3628
  383MOL    H4031364   1.436   6.968   6.156  0.6295  1.2373  2.3582
  383MOL    H4131365   1.495   7.009   5.993 -0.2438  2.2229 -1.8458
  383MOL    C4231366   1.249   7.076   6.028  0.4229  0.5335 -0.4237
  383MOL    O4331367   1.264   7.082   5.884 -0.1980 -0.2079  0.5276
  383MOL    H4431368   1.162   7.129   6.066  0.2206  0.3175 -0.5828
  383MOL    H4531369   1.244   6.971   6.056  0.5651  0.4186 -0.8162
  383MOL    C4631370   1.198   7.192   5.830  0.0572  0.6927 -0.5236
  383MOL    O4731371   1.234   7.217   5.699  0.0427 -0.0759  0.5580
  383MOL    H4831372   1.211   7.284   5.886  1.5820  1.2456 -1.7407
  383MOL    H4931373   1.091   7.168   5.832  0.2581 -0.0656  2.2048
  383MOL    C5031374   1.323   7.320   5.687  0.9644 -0.0064 -0.3802
  383MOL    O5131375   1.366   7.332   5.555 -0.4051  0.1613  0.1516
  383MOL    H5231376   1.413   7.303   5.746 -0.0786 -1.7281  0.7374
  383MOL    H5331377   1.276   7.412   5.722  0.7720 -0.8051  1.4964
  383MOL    C5431378   1.285   7.406   5.469  0.3849 -0.0637 -0.3525
  383MOL    O5531379   1.362   7.432   5.361  0.3447 -0.4021  0.4603
  383MOL    H5631380   1.258   7.498   5.521 -1.2173 -0.6561 -0.1063
  383MOL    H5731381   1.201   7.343   5.440 -0.2494 -0.0224  1.3079
  383MOL    C5831382   1.285   7.505   5.271  0.2351 -0.1500 -0.4121
  383MOL    O5931383   1.370   7.567   5.180 -1.0443  0.4579 -0.3772
  383MOL    H6031384   1.231   7.592   5.309  0.1028 -0.6545  0.5690
  383MOL    H6131385   1.202   7.456   5.220  0.7182 -1.3838 -0.0531
  383MOL    C6231386   1.386   7.486   5.069  0.7297  0.8233  0.6256
  383MOL    O6331387   1.267   7.480   4.993  0.0648 -0.5592  0.2473
  383MOL    H6431388   1.408   7.386   5.108 -2.2555 -0.0532  0.1939
  383MOL    H6531389   1.476   7.522   5.020  1.1974  1.1055  1.6705
  383MOL    C6631390   1.259   7.576   4.899 -0.6634 -0.3366 -0.0101
  383MOL    O6731391   1.145   7.550   4.818  0.2462  0.2418  0.0464
  383MOL    H6831392   1.353   7.570   4.844 -0.8223  2.5309 -0.6461
  383MOL    H6931393   1.269   7.671   4.951  1.5153 -0.1251 -0.7582
  383MOL    C7031394   1.018   7.583   4.868 -0.7546  0.4437 -0.2162
  383MOL    O7131395   0.978   7.714   4.837  0.0518  0.1748 -0.2660
  383MOL    H7231396   1.030   7.559   4.973 -0.3869 -1.2361 -0.6169
  383MOL    H7331397   0.949   7.511   4.823  0.7092 -0.0637 -1.7283
  383MOL    C7431398   1.006   7.756   4.704  1.1594 -0.1838  0.5366
  383MOL    O7531399   0.939   7.671   4.612  0.0076  0.6229  0.2298
  383MOL    H7631400   1.113   7.749   4.687  1.3667  3.3114  0.0127
  383MOL    H7731401   0.979   0.077   4.690 -1.4027 -0.9710 -0.7819
  383MOL    C7831402   0.797   7.693   4.611  0.3119 -0.0765 -0.3299
  383MOL    O7931403   0.725   7.608   4.520 -0.8899 -0.6254 -0.3862
  383MOL    H8031404   0.773   0.015   4.594 -1.3648 -0.2115  1.0090
  383MOL    H8131405   0.759   7.657   4.707 -0.0951  0.6672 -0.2021
  383MOL    H8231406   0.735   7.646   4.434 -2.6858 -1.6102 -1.0683
  384MOL     C131407   6.077   3.568   2.798 -0.1920  0.3269  0.1300
  384MOL     O231408   6.049   3.702   2.766 -0.1018 -0.0218 -0.2748
  384MOL     H331409   6.182   3.565   2.827 -0.0939 -1.0322 -0.3603
  384MOL     H431410   6.017   3.541   2.885 -0.2543  0.1083  0.0174
  384MOL     H531411   6.053   3.501   2.716  1.2439 -0.3324  0.2229
  384MOL     C631412   6.101   3.754   2.654  0.2589 -0.0241 -0.0208
  384MOL     O731413   6.243   3.767   2.658 -0.6376 -0.5650 -0.4494
  384MOL     H831414   6.058   3.851   2.630 -0.1116  0.7390  3.4841
  384MOL     H931415   6.086   3.684   2.571 -0.6442  0.7168 -0.4950
  384MOL    C1031416   6.294   3.870   2.742  0.3889 -0.2760  0.5295
  384MOL    O1131417   6.410   3.825   2.809 -0.6341 -0.2870 -0.3362
  384MOL    H1231418   6.213   3.916   2.800 -0.1909 -0.1724 -0.3584
  384MOL    H1331419   6.323   3.955   2.680 -1.5701 -1.3717 -1.9894
  384MOL    C1431420   6.490   3.740   2.730 -0.2405 -0.7264  0.1056
  384MOL    O1531421   6.611   3.726   2.789 -0.2461  0.3141  0.1050
  384MOL    H1631422   6.491   3.785   2.631 -2.3818 -1.4064 -0.2568
  384MOL    H1731423   6.444   3.642   2.714 -3.4813  1.2774 -3.7267
  384MOL    C1831424   6.708   3.817   2.747  0.0430  0.5395  0.1789
  384MOL    O1931425   6.818   3.810   2.833 -0.4150 -0.1280 -0.1854
  384MOL    H2031426   6.667   3.918   2.740  1.0485  0.8460 -1.6272
  384MOL    H2131427   6.733   3.802   2.642  1.4190  0.8318  0.4545
  384MOL    C2231428   6.778   3.847   2.960 -0.7275  0.0022 -0.4043
  384MOL    O2331429   6.780   3.986   2.975 -0.5971 -0.0267  0.4843
  384MOL    H2431430   6.849   3.804   3.031  0.4984  2.6823  0.0693
  384MOL    H2531431   6.680   3.809   2.990 -0.7328  0.1056 -0.2875
  384MOL    C2631432   6.761   4.022   3.108 -0.2640 -0.6053 -0.2921
  384MOL    O2731433   6.873   3.994   3.188  0.3965  0.1998 -0.4239
  384MOL    H2831434   6.671   3.973   3.147 -0.1706 -0.9494 -0.5008
  384MOL    H2931435   6.742   4.129   3.111 -2.0026 -0.9456  1.8090
  384MOL    C3031436   6.978   4.085   3.172  0.3500  0.0117  0.2756
  384MOL    O3131437   7.098   4.048   3.233 -0.3999 -0.4685  0.1618
  384MOL    H3231438   6.947   4.180   3.216 -1.9119 -0.0187 -1.1837
  384MOL    H3331439   6.999   4.119   3.071  0.6061 -0.7863  0.0612
  384MOL    C3431440   7.105   4.064   3.371  0.3545  0.5541  0.2013
  384MOL    O3531441   7.095   4.196   3.431  0.2953  0.4309  0.1789
  384MOL    H3631442   7.199   4.019   3.402  0.4423  2.2796  2.5915
  384MOL    H3731443   7.035   3.996   3.419 -0.7095  0.6808 -1.1189
  384MOL    C3831444   7.167   4.300   3.361  0.2984  1.0579 -0.5245
  384MOL    O3931445   7.076   4.380   3.288  0.4951  0.0698 -0.0704
  384MOL    H4031446   7.249   4.257   3.304  1.0063  2.3363 -0.4885
  384MOL    H4131447   7.210   4.362   3.440  0.4959  1.1643 -0.7169
  384MOL    C4231448   6.978   4.437   3.362 -0.0663 -0.0826 -0.4162
  384MOL    O4331449   6.924   4.542   3.286 -0.0541  0.5127 -0.9750
  384MOL    H4431450   7.028   4.484   3.446  1.4435 -0.7312 -0.9341
  384MOL    H4531451   6.905   4.368   3.404 -0.1093  1.1377  1.5484
  384MOL    C4631452   6.850   4.499   3.166  0.4399  0.0471  0.2350
  384MOL    O4731453   6.723   4.450   3.206 -0.3842  0.5718  0.1079
  384MOL    H4831454   6.909   4.420   3.121  0.8779 -0.6137  1.9337
  384MOL    H4931455   6.834   4.584   3.099  0.7607 -0.4525 -0.4832
  384MOL    C5031456   6.643   4.544   3.273 -0.6821  0.1896  0.0326
  384MOL    O5131457   6.618   4.659   3.199 -0.1844 -0.4797  0.0600
  384MOL    H5231458   6.683   4.576   3.369  0.3872 -0.1361 -0.2944
  384MOL    H5331459   6.546   4.502   3.299  0.9081 -2.8029  1.3520
  384MOL    C5431460   6.565   4.627   3.074 -0.0482  0.5329  0.0607
  384MOL    O5531461   6.437   4.566   3.074 -0.2269  0.4887  0.2226
  384MOL    H5631462   6.619   4.549   3.019  1.8566  0.8882  1.3697
  384MOL    H5731463   6.567   4.718   3.014  0.1963  0.3740 -0.1731
  384MOL    C5831464   6.338   4.652   3.116  0.4766 -0.0528  0.4098
  384MOL    O5931465   6.232   4.664   3.025 -0.5180  0.0510  0.0624
  384MOL    H6031466   6.363   4.758   3.121 -1.9604  0.5073  1.6181
  384MOL    H6131467   6.300   4.625   3.215  1.4163  0.1508  0.8302
  384MOL    C6231468   6.135   4.568   3.040 -0.1608  0.5482 -0.3632
  384MOL    O6331469   6.066   4.574   3.165 -0.5691 -0.2915  0.8172
  384MOL    H6431470   6.168   4.466   3.018 -0.3604  0.6071 -0.9432
  384MOL    H6531471   6.061   4.583   2.961  0.0226  0.1231 -0.6155
  384MOL    C6631472   6.010   4.698   3.195  0.0644  0.2487 -0.0813
  384MOL    O6731473   5.874   4.695   3.169  0.1922 -1.1511  0.0931
  384MOL    H6831474   6.053   4.767   3.123  1.5023 -0.8752 -0.3272
  384MOL    H6931475   6.024   4.727   3.299 -1.0111 -0.8307  0.3826
  384MOL    C7031476   5.806   4.644   3.281 -0.7699 -0.3009  0.2958
  384MOL    O7131477   5.793   4.735   3.392  0.0666 -0.1301  0.1099
  384MOL    H7231478   5.839   4.543   3.307 -2.1545 -0.7710  0.2227
  384MOL    H7331479   5.709   4.627   3.234  0.6805 -2.0823 -2.2112
  384MOL    C7431480   5.728   4.677   3.495 -0.1422  0.0936  0.2955
  384MOL    O7531481   5.814   4.584   3.556 -0.3352  0.2920 -0.3902
  384MOL    H7631482   5.638   4.622   3.466 -0.6603 -1.0303  3.7781
  384MOL    H7731483   5.699   4.754   3.567  1.6377 -0.5264  1.7219
  384MOL    C7831484   5.790   4.567   3.691  0.0828 -0.5999  0.3795
  384MOL    O7931485   5.664   4.520   3.719  0.7232  0.2787 -0.4049
  384MOL    H8031486   5.805   4.664   3.738  0.7947  1.0550 -3.1614
  384MOL    H8131487   5.864   4.500   3.736  0.4174  0.8159  2.0148
  384MOL    H8231488   5.662   4.426   3.713  0.4289  0.2295  0.3196
  385MOL     C131489   3.453   5.838   4.574 -1.1169  0.6586  0.0145
  385MOL     O231490   3.434   5.846   4.435 -0.2043  0.0232 -0.0480
  385MOL     H331491   3.453   5.936   4.621  1.5309  0.1678  1.1227
  385MOL     H431492   3.368   5.793   4.624 -0.9584 -1.5438 -1.6058
  385MOL     H531493   3.551   5.803   4.607 -0.4111  1.9208 -0.6864
  385MOL     C631494   3.450   5.719   4.377  0.0911 -0.0608 -0.3952
  385MOL     O731495   3.349   5.632   4.402 -0.2769 -0.1132  0.2678
  385MOL     H831496   3.540   5.674   4.418 -0.9181 -0.5954  1.2548
  385MOL     H931497   3.467   5.734   4.270 -0.0781  2.8308 -0.0641
  385MOL    C1031498   3.225   5.680   4.354  0.0196  0.6600  0.4111
  385MOL    O1131499   3.215   5.664   4.214 -0.0385 -0.2352 -0.5981
  385MOL    H1231500   3.203   5.783   4.384 -1.5742  0.0429  1.4633
  385MOL    H1331501   3.145   5.626   4.405 -1.6909  0.9573 -1.8973
  385MOL    C1431502   3.183   5.531   4.185  0.8616  0.4535  0.5716
  385MOL    O1531503   3.046   5.507   4.154 -0.3427  0.2142 -0.2907
  385MOL    H1631504   3.225   5.457   4.253  0.8366  1.2103  1.4122
  385MOL    H1731505   3.233   5.503   4.092  3.6891  0.4651  2.0334
  385MOL    C1831506   3.026   5.374   4.116  0.0669 -0.3834 -0.0791
  385MOL    O1931507   3.073   5.281   4.204  0.1507  0.9371  0.1485
  385MOL    H2031508   3.063   5.349   4.016  1.5565 -1.3471  0.6985
  385MOL    H2131509   2.919   5.365   4.096 -0.2076  2.1751  0.0435
  385MOL    C2231510   2.991   5.256   4.321 -0.4626  0.2026  0.1972
  385MOL    O2331511   2.865   5.208   4.290  0.2177 -0.1918 -0.2606
  385MOL    H2431512   2.980   5.352   4.371 -3.5078 -0.0356  0.1033
  385MOL    H2531513   3.038   5.183   4.387  1.3990 -0.0665 -1.3837
  385MOL    C2631514   2.857   5.079   4.238 -0.1857  0.1453 -0.5339
  385MOL    O2731515   2.725   5.048   4.217  0.4324  0.4259 -0.1594
  385MOL    H2831516   2.902   5.005   4.305  1.8656  1.1902 -0.6980
  385MOL    H2931517   2.920   5.069   4.149 -0.1913  0.3704 -0.5641
  385MOL    C3031518   2.652   5.040   4.337  0.5597  0.3188  0.3933
  385MOL    O3131519   2.519   4.990   4.325 -0.1614 -0.8485 -0.5857
  385MOL    H3231520   2.652   5.139   4.383 -2.0719  0.8543 -0.6179
  385MOL    H3331521   2.703   4.973   4.405  1.3503 -0.8344 -1.2976
  385MOL    C3431522   2.508   4.851   4.311  0.0343  0.7278  0.1726
  385MOL    O3531523   2.559   4.788   4.423  0.1305 -0.6171  0.2318
  385MOL    H3631524   2.573   4.820   4.229  1.0984 -0.4620  1.4508
  385MOL    H3731525   2.405   4.820   4.289  0.9494 -2.7675  0.5230
  385MOL    C3831526   2.475   4.781   4.536  0.4641 -0.4970 -0.5687
  385MOL    O3931527   2.355   4.709   4.518 -0.3670  0.5003  0.6164
  385MOL    H4031528   2.452   4.879   4.577 -0.5267  0.1164 -2.5096
  385MOL    H4131529   2.533   4.743   4.620  0.7045 -0.2891 -0.6413
  385MOL    C4231530   2.381   4.570   4.526  0.3283  0.1827  0.4597
  385MOL    O4331531   2.397   4.532   4.656 -0.0060 -0.6043  0.6893
  385MOL    H4431532   2.481   4.545   4.489  0.2685  0.2055  0.2826
  385MOL    H4531533   2.309   4.514   4.467  0.0401  1.4386 -0.3777
  385MOL    C4631534   2.281   4.537   4.734  0.1779  0.3958  0.1959
  385MOL    O4731535   2.200   4.430   4.690  0.1008 -0.0351 -0.0863
  385MOL    H4831536   2.229   4.632   4.732  1.5254  1.1178 -0.5403
  385MOL    H4931537   2.317   4.514   4.835 -1.9982  2.0440  1.3851
  385MOL    C5031538   2.096   4.408   4.776  0.8272 -0.4106 -0.6806
  385MOL    O5131539   1.992   4.510   4.769  0.1649 -0.6308 -0.9105
  385MOL    H5231540   2.146   4.415   4.873  2.4318  0.8516 -1.5738
  385MOL    H5331541   2.069   4.307   4.748  1.0758 -0.2682 -1.4550
  385MOL    C5431542   1.906   4.476   4.672  0.9279 -0.1118 -0.0808
  385MOL    O5531543   1.806   4.378   4.708 -0.1423 -0.5140 -0.3933
  385MOL    H5631544   1.957   4.435   4.585 -3.0874 -0.5444 -2.3426
  385MOL    H5731545   1.841   4.559   4.644  0.1082 -0.1119  1.7595
  385MOL    C5831546   1.718   4.429   4.805  0.2386 -0.3764 -0.2254
  385MOL    O5931547   1.635   4.530   4.765 -0.2715 -0.0848 -0.5410
  385MOL    H6031548   1.779   4.455   4.892 -1.0241  1.2019  0.2430
  385MOL    H6131549   1.668   4.337   4.835  0.8927 -1.0757 -1.2940
  385MOL    C6231550   1.524   4.486   4.683  0.6066  0.2656 -0.6154
  385MOL    O6331551   1.427   4.427   4.756 -0.1142 -0.2868  0.8660
  385MOL    H6431552   1.554   4.396   4.630 -0.4495 -1.4953  1.6992
  385MOL    H6531553   1.491   4.570   4.622 -0.1516 -0.9285 -1.8677
  385MOL    C6631554   1.353   4.514   4.841  0.3230 -0.4001  0.0814
  385MOL    O6731555   1.271   4.608   4.778  0.6805  0.3703 -0.1055
  385MOL    H6831556   1.425   4.560   4.910 -0.8571 -1.7099  2.2185
  385MOL    H6931557   1.293   4.450   4.906 -1.4110  0.4059 -0.7016
  385MOL    C7031558   1.162   4.556   4.715  0.6376 -0.2008 -0.4631
  385MOL    O7131559   1.188   4.526   4.580 -0.5867 -0.9654  0.5704
  385MOL    H7231560   1.081   4.629   4.714  0.6431 -0.1653  0.6236
  385MOL    H7331561   1.116   4.471   4.766  1.9586  0.8525  2.6242
  385MOL    C7431562   1.187   4.638   4.497 -0.6979  0.3663 -0.0283
  385MOL    O7531563   1.071   4.711   4.498  0.0792 -0.1542 -0.2397
  385MOL    H7631564   1.205   4.601   4.396 -0.8333 -1.9293  0.7471
  385MOL    H7731565   1.278   4.694   4.519 -0.1628 -0.8470  0.9811
  385MOL    C7831566   0.966   4.625   4.452  0.1645  0.1048 -0.4597
  385MOL    O7931567   0.843   4.690   4.457  0.1501  0.3097  0.1628
  385MOL    H8031568   0.957   4.527   4.498  0.8881 -0.1289 -0.8083
  385MOL    H8131569   0.985   4.606   4.346 -2.1928 -2.0644 -0.5578
  385MOL    H8231570   0.844   4.750   4.530 -2.2031  1.1813 -0.4867
  386MOL     C131571   4.155   4.420   3.560 -0.1551  0.1253  0.3012
  386MOL     O231572   4.104   4.290   3.561  0.0602  0.2773 -0.2930
  386MOL     H331573   4.078   4.487   3.522  0.1659  0.3538  0.0545
  386MOL     H431574   4.192   4.461   3.654 -2.1055  3.1883 -0.1774
  386MOL     H531575   4.231   4.418   3.482 -0.7837 -1.5436 -0.2981
  386MOL     C631576   3.993   4.269   3.647 -0.1622 -0.0503 -0.3458
  386MOL     O731577   3.868   4.325   3.595  0.4072  0.0648  0.1280
  386MOL     H831578   4.007   4.325   3.740  0.4438 -0.7776 -0.0026
  386MOL     H931579   3.990   4.165   3.678 -0.5608 -0.8015 -2.7836
  386MOL    C1031580   3.825   4.238   3.500  1.0129 -0.2814 -0.9239
  386MOL    O1131581   3.758   4.137   3.555  0.3484  0.0743 -0.3424
  386MOL    H1231582   3.902   4.209   3.429  0.1108 -0.4635 -1.8264
  386MOL    H1331583   3.758   4.302   3.442 -0.7144 -1.2830 -0.0691
  386MOL    C1431584   3.685   4.067   3.456  0.2980  0.4246 -0.2661
  386MOL    O1531585   3.782   4.002   3.374  0.0193  0.4838  0.4598
  386MOL    H1631586   3.613   4.130   3.404 -0.4201 -0.2416 -0.0905
  386MOL    H1731587   3.618   3.993   3.501  1.8022 -0.9286 -0.2126
  386MOL    C1831588   3.847   3.901   3.440 -0.2276 -0.0064 -0.0212
  386MOL    O1931589   3.960   3.864   3.373 -0.0313  0.3435 -0.1339
  386MOL    H2031590   3.780   3.815   3.436  2.1004 -1.9512  1.1582
  386MOL    H2131591   3.857   3.920   3.547  1.2240  1.3026 -0.3823
  386MOL    C2231592   4.070   3.947   3.411 -0.1706  0.3389 -0.3124
  386MOL    O2331593   4.142   3.902   3.519 -0.2151 -0.4992  0.7219
  386MOL    H2431594   4.041   4.052   3.408 -1.0114  0.0630 -2.4803
  386MOL    H2531595   4.139   3.926   3.329 -1.4753 -0.6936 -1.1744
  386MOL    C2631596   4.259   3.977   3.534  0.1782 -0.3186  0.5388
  386MOL    O2731597   4.340   3.973   3.423 -0.6092 -0.4551  0.4208
  386MOL    H2831598   4.316   3.949   3.623  1.7104  1.1250  0.0428
  386MOL    H2931599   4.234   4.082   3.551 -0.6391 -0.8830  3.1935
  386MOL    C3031600   4.404   3.852   3.423 -0.1982  0.3932 -0.0136
  386MOL    O3131601   4.501   3.844   3.519 -0.0006 -0.0138  0.0228
  386MOL    H3231602   4.438   3.849   3.320 -0.1863 -0.8841  0.0263
  386MOL    H3331603   4.329   3.773   3.427  0.5894 -0.5337 -2.7949
  386MOL    C3431604   4.580   3.731   3.503 -0.1924 -0.3087  0.0402
  386MOL    O3531605   4.671   3.764   3.396  0.4603  0.0436 -0.0815
  386MOL    H3631606   4.525   3.640   3.481  2.3962 -1.3713 -2.4867
  386MOL    H3731607   4.639   3.711   3.593 -0.2772 -0.8507 -0.0263
  386MOL    C3831608   4.801   3.790   3.436 -0.0261 -0.2727 -0.4735
  386MOL    O3931609   4.860   3.682   3.496 -0.0106  0.2265 -0.4726
  386MOL    H4031610   4.808   3.863   3.517  0.4829 -0.5544 -0.2613
  386MOL    H4131611   4.868   3.820   3.355  2.5448  0.5136  1.8475
  386MOL    C4231612   4.903   3.587   3.396 -0.2820  0.1331  0.1332
  386MOL    O4331613   5.019   3.626   3.335 -0.6850  0.1060 -0.2493
  386MOL    H4431614   4.824   3.585   3.321  0.6108  3.2476 -0.9804
  386MOL    H4531615   4.910   3.486   3.436  0.4606 -0.6113 -1.7838
  386MOL    C4631616   5.129   3.635   3.419 -0.1422  0.6250  0.1418
  386MOL    O4731617   5.180   3.507   3.441 -0.3084 -0.5601 -0.4883
  386MOL    H4831618   5.104   3.679   3.515 -0.2194 -0.3235  0.5600
  386MOL    H4931619   5.206   3.693   3.368  0.9929  0.5630  1.7503
  386MOL    C5031620   5.255   3.463   3.332  0.5134  0.1517 -0.1990
  386MOL    O5131621   5.378   3.522   3.347 -0.0735  0.0527  0.0975
  386MOL    H5231622   5.208   3.488   3.237  1.5790 -2.1423 -1.3737
  386MOL    H5331623   5.281   3.357   3.336 -0.4775 -0.1127 -0.5925
  386MOL    C5431624   5.471   3.492   3.252 -0.2803  0.2962  0.3694
  386MOL    O5531625   5.525   3.365   3.258  0.2543  0.3156  0.1258
  386MOL    H5631626   5.544   3.572   3.261 -0.1232  0.1180  0.6576
  386MOL    H5731627   5.426   3.505   3.153  1.1991 -0.1047 -0.3792
  386MOL    C5831628   5.593   3.344   3.380  1.1173 -0.2679 -0.8014
  386MOL    O5931629   5.716   3.393   3.369 -0.6316 -0.3274 -0.0638
  386MOL    H6031630   5.610   3.236   3.383  0.0125 -0.4431 -0.5810
  386MOL    H6131631   5.539   3.369   3.471  0.8559  0.6586 -1.2160
  386MOL    C6231632   5.782   3.386   3.492  0.0214 -0.6395  0.0666
  386MOL    O6331633   5.825   3.258   3.529 -0.4391  0.1075  0.0957
  386MOL    H6431634   5.726   3.424   3.578 -0.4179  2.5179 -1.5552
  386MOL    H6531635   5.861   3.460   3.476  0.9003 -1.5286  0.2532
  386MOL    C6631636   5.954   3.230   3.479 -0.0768  0.2292  0.2220
  386MOL    O6731637   6.046   3.308   3.552 -0.5875 -0.0708 -0.2380
  386MOL    H6831638   5.941   3.259   3.375  1.2578  0.4967  0.1315
  386MOL    H6931639   5.975   3.124   3.493  0.5759  0.1959 -0.9789
  386MOL    C7031640   6.078   3.251   3.676  0.0715  0.6466  0.4596
  386MOL    O7131641   6.167   3.148   3.665 -0.4267 -0.3450  0.3724
  386MOL    H7231642   5.988   3.203   3.714 -0.0756 -0.3699 -1.1418
  386MOL    H7331643   6.107   3.325   3.751  0.6321  1.0763 -0.1772
  386MOL    C7431644   6.283   3.178   3.602 -0.4399  0.1726 -0.2028
  386MOL    O7531645   6.366   3.251   3.682  0.1307  0.2554 -0.0714
  386MOL    H7631646   6.266   3.231   3.508  0.3095 -0.1387 -0.5237
  386MOL    H7731647   6.332   3.085   3.571 -0.8549  0.0228 -0.4107
  386MOL    C7831648   6.366   3.205   3.810 -0.0627 -0.5792  0.5145
  386MOL    O7931649   6.459   3.272   3.888  0.0365  0.3292 -1.2367
  386MOL    H8031650   6.391   3.099   3.812  1.6301 -0.2365 -0.8690
  386MOL    H8131651   6.266   3.219   3.850 -0.8770 -0.5623 -1.4691
  386MOL    H8231652   6.546   3.252   3.856  1.1920  1.7921  0.8456
  387MOL     C131653   1.670   0.217   4.573 -0.0017 -0.0539  0.1363
  387MOL     O231654   1.676   0.345   4.635  0.0792 -0.2913 -0.2269
  387MOL     H331655   1.643   0.234   4.469  0.6565 -3.2011 -0.5892
  387MOL     H431656   1.766   0.166   4.572 -0.5384 -1.0991  0.8654
  387MOL     H531657   1.589   0.154   4.608  0.3173 -0.1967  0.6322
  387MOL     C631658   1.772   0.362   4.728 -0.1809 -0.4994 -0.2555
  387MOL     O731659   1.893   0.384   4.661  0.2312  0.3262  0.1463
  387MOL     H831660   1.772   0.274   4.792 -1.5259 -1.4902 -1.5961
  387MOL     H931661   1.749   0.447   4.793  1.0230 -0.7857  0.5583
  387MOL    C1031662   2.008   0.395   4.747  0.3358 -0.2444 -0.6829
  387MOL    O1131663   2.072   0.273   4.778  0.5655 -0.3443  0.4521
  387MOL    H1231664   1.974   0.433   4.843  2.1740  1.5296 -0.7182
  387MOL    H1331665   2.089   0.457   4.710  1.5930 -1.7592 -0.5580
  387MOL    C1431666   2.109   0.194   4.677  0.0141  0.1810 -0.2952
  387MOL    O1531667   2.215   0.242   4.615  0.1106  0.1383 -0.2480
  387MOL    H1631668   2.030   0.192   4.601 -0.5740 -1.5671  0.3377
  387MOL    H1731669   2.121   0.094   4.718  0.9477 -0.1873 -1.4215
  387MOL    C1831670   2.332   0.178   4.646 -0.3792  0.0369  0.1872
  387MOL    O1931671   2.337   0.047   4.595  0.8985 -0.6824 -0.0055
  387MOL    H2031672   2.360   0.188   4.751 -0.2155 -0.6905  0.2144
  387MOL    H2131673   2.409   0.223   4.583 -0.3890 -0.4823 -0.1996
  387MOL    C2231674   2.442   7.754   4.626 -0.7418  0.1915  0.2518
  387MOL    O2331675   2.551   0.031   4.562  0.6874  0.1252 -0.6849
  387MOL    H2431676   2.425   7.652   4.591 -2.3259  0.0130  1.4799
  387MOL    H2531677   2.459   7.758   4.734  1.8521  0.0344 -0.1253
  387MOL    C2631678   2.575   7.769   4.439  0.0004 -0.2373  0.2442
  387MOL    O2731679   2.677   0.055   4.379 -0.9303  0.6405 -0.5459
  387MOL    H2831680   2.491   7.781   4.371  1.9194  0.2174 -2.1287
  387MOL    H2931681   2.599   7.663   4.439  0.8447 -0.0504  0.7465
  387MOL    C3031682   2.796   7.778   4.398 -0.2979 -0.1674  0.4756
  387MOL    O3131683   2.820   7.668   4.318  0.2228  0.0347  0.4690
  387MOL    H3231684   2.801   7.749   4.503  1.0553  2.6268  1.2327
  387MOL    H3331685   2.875   0.067   4.380  0.3662 -0.2458  2.8905
  387MOL    C3431686   2.852   7.708   4.183 -0.0070  0.1342  0.7957
  387MOL    O3531687   2.987   7.744   4.172  0.0363  0.1108 -0.0786
  387MOL    H3631688   2.789   0.008   4.153 -1.6476 -1.9410 -1.7909
  387MOL    H3731689   2.820   7.638   4.106 -0.4001 -0.8066  1.8054
  387MOL    C3831690   3.063   7.628   4.161 -0.4225 -0.6471  0.2361
  387MOL    O3931691   3.054   7.590   4.031  1.0433  0.0725  0.1124
  387MOL    H4031692   3.045   7.543   4.226 -0.3780 -1.3583 -0.6771
  387MOL    H4131693   3.163   7.667   4.179  0.6828 -2.3239 -2.0962
  387MOL    C4231694   3.114   7.460   3.996  0.2483 -0.0093 -0.3731
  387MOL    O4331695   3.060   7.348   4.054  0.0725 -0.6421 -0.3428
  387MOL    H4431696   3.221   7.458   4.016  0.4149  3.0757 -0.7166
  387MOL    H4531697   3.119   7.457   3.887 -1.5689  1.0115 -0.5055
  387MOL    C4631698   2.922   7.317   4.013  0.1464  0.2010  0.2121
  387MOL    O4731699   2.865   7.208   4.083  0.3046  0.3698 -0.1738
  387MOL    H4831700   2.913   7.283   3.909  1.6781  1.2308 -0.2764
  387MOL    H4931701   2.862   7.407   4.023 -1.5859 -0.7101 -1.6726
  387MOL    C5031702   2.864   7.232   4.222  0.0333 -0.3058  0.0834
  387MOL    O5131703   2.748   7.299   4.259 -0.2054  0.3249  0.3867
  387MOL    H5231704   2.952   7.278   4.267  0.1784 -1.3659  0.9086
  387MOL    H5331705   2.854   7.137   4.276 -0.0146 -1.1450 -1.3783
  387MOL    C5431706   2.628   7.236   4.228  0.1517 -0.7723  0.4655
  387MOL    O5531707   2.525   7.325   4.250  0.6846 -0.5828 -0.2552
  387MOL    H5631708   2.609   7.150   4.293 -1.2685 -1.0815 -0.3384
  387MOL    H5731709   2.621   7.206   4.124 -2.8039 -1.9891  0.9765
  387MOL    C5831710   2.528   7.436   4.161 -0.5329  0.8280 -0.0848
  387MOL    O5931711   2.459   7.409   4.041 -0.2238  0.0502 -0.3018
  387MOL    H6031712   2.627   7.462   4.125 -1.2418  2.8965 -0.6508
  387MOL    H6131713   2.486   7.521   4.215 -1.9490  0.2800 -0.3052
  387MOL    C6231714   2.323   7.375   4.065 -0.0841 -0.0937  1.0263
  387MOL    O6331715   2.253   7.480   4.115  0.1131  0.4528 -0.2374
  387MOL    H6431716   2.316   7.303   4.147  0.5566 -0.7507  0.5064
  387MOL    H6531717   2.274   7.324   3.982 -1.6681  1.6702  0.8444
  387MOL    C6631718   2.187   7.553   4.016 -0.6089 -0.9246  0.0017
  387MOL    O6731719   2.095   7.481   3.940 -0.4639 -0.1765 -0.4137
  387MOL    H6831720   2.265   7.590   3.950  0.7201 -3.7552 -0.0671
  387MOL    H6931721   2.137   7.637   4.066 -0.1630 -0.2400 -0.6905
  387MOL    C7031722   2.014   7.558   3.862 -0.0648  0.7244 -0.0103
  387MOL    O7131723   1.904   7.494   3.806 -0.3501  0.3067 -0.4158
  387MOL    H7231724   2.061   7.615   3.782  0.6542 -0.8614 -0.7335
  387MOL    H7331725   1.970   7.626   3.936 -1.5365  0.6323 -0.7905
  387MOL    C7431726   1.938   7.369   3.754  0.3771  0.3413 -0.3254
  387MOL    O7531727   1.847   7.346   3.653  0.1509 -0.1766  0.2301
  387MOL    H7631728   1.921   7.299   3.836 -3.4963 -0.7474 -1.9587
  387MOL    H7731729   2.039   7.352   3.717  0.5632 -0.8733  0.7175
  387MOL    C7831730   1.886   7.411   3.535  0.3622  0.4589  0.2997
  387MOL    O7931731   1.795   7.409   3.429  0.3782  0.3421  0.1642
  387MOL    H8031732   1.978   7.364   3.502 -0.3626 -1.0052  0.3263
  387MOL    H8131733   1.902   7.519   3.541  1.6388  0.2637  0.4579
  387MOL    H8231734   1.752   7.326   3.415 -2.5608  2.0443 -1.4635
  388MOL     C131735   0.990   1.140   7.420 -0.0684  0.2927  0.3479
  388MOL     O231736   0.894   1.089   7.507  0.1472 -0.1270 -0.1925
  388MOL     H331737   1.011   1.063   7.346 -0.1718 -0.5756  1.2201
  388MOL     H431738   0.948   1.226   7.368 -1.2710  0.9680  2.3921
  388MOL     H531739   1.083   1.164   7.472 -0.3708  1.9922  0.1158
  388MOL     C631740   0.933   0.989   7.594 -0.8243 -0.0975  0.9993
  388MOL     O731741   1.031   1.037   7.688 -0.2921 -0.0237  0.1268
  388MOL     H831742   0.972   0.906   7.537  0.1904  0.6834  0.5442
  388MOL     H931743   0.846   0.952   7.650  0.2715 -1.5631  1.7619
  388MOL    C1031744   0.970   1.125   7.778  0.2967 -0.3233 -1.1180
  388MOL    O1131745   0.914   1.051   0.097 -0.0802  0.0796 -0.4206
  388MOL    H1231746   0.899   1.187   7.723 -1.9287 -0.8928  1.0315
  388MOL    H1331747   1.049   1.186   0.039 -0.9385 -0.2146  0.9779
  388MOL    C1431748   0.873   1.137   0.205  0.1041 -0.5638 -0.1918
  388MOL    O1531749   0.986   1.178   0.275  0.0019  0.0801 -0.1155
  388MOL    H1631750   0.801   1.079   0.262 -0.3987  2.2818  2.1508
  388MOL    H1731751   0.824   1.229   0.172  0.0837 -1.1108 -1.7610
  388MOL    C1831752   0.991   1.130   0.405  0.7862  0.5072 -0.5741
  388MOL    O1931753   0.907   1.193   0.494  0.3358  0.5117  0.2778
  388MOL    H2031754   1.094   1.142   0.436  0.7338 -0.6929  0.0679
  388MOL    H2131755   0.960   1.026   0.409 -0.6427  0.8986 -0.9790
  388MOL    C2231756   0.940   1.323   0.518 -0.1378 -0.4418 -0.0715
  388MOL    O2331757   1.025   1.332   0.635 -0.6102  0.1932 -0.8009
  388MOL    H2431758   0.855   1.391   0.524  2.2409  2.6792 -0.6266
  388MOL    H2531759   1.007   1.367   0.443  1.1756 -0.6999  0.9353
  388MOL    C2631760   0.966   1.303   0.757  0.0355 -1.4386 -0.2099
  388MOL    O2731761   1.049   1.309   0.857  0.1168 -0.0608  0.2206
  388MOL    H2831762   0.926   1.202   0.746 -1.0582 -0.9306 -0.9685
  388MOL    H2931763   0.886   1.372   0.782  1.0848 -1.1435  2.4163
  388MOL    C3031764   1.132   1.197   0.866  0.4789  0.0035 -0.0585
  388MOL    O3131765   1.223   1.204   0.974  0.0009  0.0402 -0.5801
  388MOL    H3231766   1.181   1.184   0.769  0.2673  1.2368 -0.3406
  388MOL    H3331767   1.085   1.098   0.862 -2.1121  1.1741  0.4851
  388MOL    C3431768   1.157   1.195   1.099  0.1172  0.2817 -0.3088
  388MOL    O3531769   1.130   1.058   1.132  0.1088  0.2304  0.0416
  388MOL    H3631770   1.070   1.260   1.088 -1.4803 -1.7313  0.0947
  388MOL    H3731771   1.224   1.239   1.172  1.6512 -2.0039 -0.3072
  388MOL    C3831772   1.071   1.043   1.254 -0.4012  0.3009 -0.4933
  388MOL    O3931773   0.937   1.083   1.253  0.1401  0.4041 -0.0890
  388MOL    H4031774   1.127   1.114   1.315 -1.0489  0.4741 -0.0996
  388MOL    H4131775   1.089   0.941   1.289 -0.9806 -0.0537 -1.2063
  388MOL    C4231776   0.856   1.003   1.176  0.0076  0.1387  0.1104
  388MOL    O4331777   0.769   0.933   1.260  0.3234  0.8054  0.5491
  388MOL    H4431778   0.915   0.935   1.115 -0.3950 -0.7526  0.7086
  388MOL    H4531779   0.806   1.071   1.108  1.9031  2.2915  0.7884
  388MOL    C4631780   0.831   0.834   1.327 -0.4933  0.2732  0.4564
  388MOL    O4731781   0.732   0.761   1.402  0.5714 -0.3559 -0.4312
  388MOL    H4831782   0.910   0.868   1.393 -0.6702  0.4405  0.5800
  388MOL    H4931783   0.892   0.778   1.255 -1.3996 -0.9589  0.6193
  388MOL    C5031784   0.672   0.825   1.505 -0.0603 -0.2861  0.5443
  388MOL    O5131785   0.593   0.726   1.574  0.1829 -0.0577  0.0663
  388MOL    H5231786   0.603   0.907   1.482 -1.3316 -1.1464  1.2050
  388MOL    H5331787   0.754   0.849   1.572 -0.2269  0.8204  0.3678
  388MOL    C5431788   0.522   0.783   1.673  0.0563 -0.8092 -0.3542
  388MOL    O5531789   0.595   0.840   1.772 -0.0804  0.1597  0.4622
  388MOL    H5631790   0.440   0.717   1.702 -0.0856 -0.2284  0.5881
  388MOL    H5731791   0.469   0.866   1.626 -1.0752 -2.0826 -1.3920
  388MOL    C5831792   0.611   0.745   1.876 -0.6096  0.7846 -0.4621
  388MOL    O5931793   0.502   0.751   1.962  0.4720 -0.3588  0.4461
  388MOL    H6031794   0.699   0.775   1.932  0.4737 -1.5562 -0.8602
  388MOL    H6131795   0.630   0.647   1.832 -0.3111  0.2324  0.8815
  388MOL    C6231796   0.524   0.669   2.078 -0.0047 -0.5637 -0.1072
  388MOL    O6331797   0.517   0.537   2.062  0.1030  0.0931  0.3529
  388MOL    H6431798   0.440   0.701   2.140  1.0269 -1.2711  1.7055
  388MOL    H6531799   0.612   0.702   2.134  0.0648 -1.4208  0.2909
  388MOL    C6631800   0.391   0.493   2.046  0.5344 -0.0729  0.1777
  388MOL    O6731801   0.318   0.498   2.163  0.0037  0.6064  0.1569
  388MOL    H6831802   0.383   0.395   1.998 -0.0326  0.2568 -0.4189
  388MOL    H6931803   0.353   0.543   1.957  3.5575  0.4993 -0.8304
  388MOL    C7031804   0.354   0.395   2.250 -0.2109  0.3379  0.8559
  388MOL    O7131805   0.263   0.294   2.260  0.0248  0.3524 -0.2874
  388MOL    H7231806   0.358   0.443   2.347  1.4822  0.5876  0.6712
  388MOL    H7331807   0.457   0.361   2.237 -1.3283 -2.5882 -0.8782
  388MOL    C7431808   0.282   0.187   2.173  0.1080  0.1100 -0.1517
  388MOL    O7531809   0.392   0.110   2.215  0.0983 -0.0748 -0.0295
  388MOL    H7631810   0.306   0.211   2.070  0.3123 -0.5768 -0.2654
  388MOL    H7731811   0.192   0.126   2.172 -0.5943  1.1419 -1.7479
  388MOL    C7831812   0.374   0.035   2.331  0.3772  0.5239 -0.5546
  388MOL    O7931813   0.486   7.742   2.378 -0.3724 -0.1022  0.4647
  388MOL    H8031814   0.293   7.748   2.313  0.4427  0.0070  1.1037
  388MOL    H8131815   0.343   0.098   2.414 -1.0238 -2.2016  1.0814
  388MOL    H8231816   0.564   0.010   2.361  1.1126 -2.0959  1.0640
  389MOL     C131817   5.105   3.238   6.587  0.3486 -0.3857  0.5217
  389MOL     O231818   5.157   3.357   6.642  0.4046 -0.1613  0.0969
  389MOL     H331819   5.173   3.153   6.597  1.8350  0.5661 -1.2841
  389MOL     H431820   5.004   3.211   6.618  0.8971 -2.5238  0.5545
  389MOL     H531821   5.097   3.242   6.478 -2.0193  0.3533  0.7043
  389MOL     C631822   5.070   3.470   6.619 -0.4012 -0.0271 -0.0018
  389MOL     O731823   5.090   3.527   6.494 -0.5745  0.2915 -0.5215
  389MOL     H831824   5.079   3.549   6.694 -1.4368  0.3513 -0.2665
  389MOL     H931825   4.964   3.447   6.625 -0.4361  0.4894  1.3897
  389MOL    C1031826   5.221   3.571   6.468 -0.4043  0.2241  0.2436
  389MOL    O1131827   5.244   3.613   6.337  0.8758 -0.6195 -0.2914
  389MOL    H1231828   5.282   3.482   6.481 -2.0687 -1.5427 -3.1756
  389MOL    H1331829   5.258   3.641   6.543 -2.3664  0.4216  1.0571
  389MOL    C1431830   5.168   3.729   6.311  0.1605 -0.1005 -0.1281
  389MOL    O1531831   5.211   3.784   6.184  0.0386  0.4530  0.6065
  389MOL    H1631832   5.180   3.807   6.386  1.1996  0.5070 -0.9187
  389MOL    H1731833   5.064   3.697   6.306 -0.5640  2.3637 -1.1609
  389MOL    C1831834   5.142   3.728   6.072  0.3930  0.9873  0.2524
  389MOL    O1931835   5.002   3.771   6.071 -0.0726 -0.0079 -0.1452
  389MOL    H2031836   5.143   3.619   6.081 -1.3194  0.9192 -0.1709
  389MOL    H2131837   5.204   3.750   5.986  0.3134 -1.7137 -0.5571
  389MOL    C2231838   4.980   3.903   6.046  0.0058 -0.0510 -0.1590
  389MOL    O2331839   5.018   3.942   5.912  0.0199  0.7136 -0.1592
  389MOL    H2431840   5.025   3.974   6.115  4.9659 -1.3700 -1.8340
  389MOL    H2531841   4.872   3.911   6.057  0.3196  2.4238  1.6504
  389MOL    C2631842   4.963   4.060   5.869  0.2361  0.5962  0.6382
  389MOL    O2731843   5.000   4.159   5.953  0.2803  0.0871 -0.5254
  389MOL    H2831844   4.859   4.044   5.844  0.2059  1.1582  0.4197
  389MOL    H2931845   5.024   4.081   5.781 -0.2166 -0.0823  0.1542
  389MOL    C3031846   5.141   4.187   5.957 -0.4918  0.3018 -0.0608
  389MOL    O3131847   5.162   4.299   6.035 -0.0841 -0.4837  0.5260
  389MOL    H3231848   5.180   4.202   5.856 -0.3537 -0.0156 -0.0544
  389MOL    H3331849   5.200   4.104   5.997  0.4436 -0.1975 -2.3954
  389MOL    C3431850   5.101   4.420   5.991 -0.1790  0.1425 -0.4633
  389MOL    O3531851   5.158   4.536   6.039 -0.6242  0.5509 -0.2051
  389MOL    H3631852   5.000   4.416   6.033 -1.2832 -0.1421 -3.0868
  389MOL    H3731853   5.102   4.433   5.883 -1.6010  0.5026 -0.4405
  389MOL    C3831854   5.278   4.567   5.984 -0.9033  0.5187  0.5286
  389MOL    O3931855   5.273   4.605   5.848  0.1367 -0.5120  0.0766
  389MOL    H4031856   5.353   4.488   5.983  1.0432  2.2098 -3.7260
  389MOL    H4131857   5.322   4.644   6.047 -1.0250  0.6814  0.4159
  389MOL    C4231858   5.214   4.731   5.829 -0.0272  0.0765  0.4205
  389MOL    O4331859   5.176   4.737   5.691 -0.3561 -0.1074 -0.1336
  389MOL    H4431860   5.278   4.808   5.872 -0.7546  0.1164  1.4656
  389MOL    H4531861   5.116   4.737   5.877  1.1919  0.3061  2.9768
  389MOL    C4631862   5.284   4.775   5.610  0.1919  0.0026 -0.3185
  389MOL    O4731863   5.287   4.916   5.599 -0.1999  0.2465  0.0473
  389MOL    H4831864   5.275   4.722   5.515  1.4849  0.2262 -0.5739
  389MOL    H4931865   5.381   4.743   5.649  0.8523  2.7944  0.4420
  389MOL    C5031866   5.384   4.965   5.518  0.2601  0.9409 -0.3503
  389MOL    O5131867   5.505   4.939   5.584  0.4389 -0.8205  0.1688
  389MOL    H5231868   5.371   5.072   5.501 -3.2382  0.5269 -0.6544
  389MOL    H5331869   5.370   4.923   5.418 -0.6886  0.1398  0.1162
  389MOL    C5431870   5.615   4.968   5.508 -0.5289  0.1138 -0.1139
  389MOL    O5531871   5.619   4.903   5.385  0.5258 -0.2955  0.7349
  389MOL    H5631872   5.704   4.944   5.567 -1.0096  1.5535  1.2361
  389MOL    H5731873   5.620   5.070   5.470  1.9473 -1.1660 -3.5108
  389MOL    C5831874   5.651   4.766   5.404 -0.2562 -0.1935  0.0497
  389MOL    O5931875   5.792   4.754   5.428  0.7776  0.1144  0.1975
  389MOL    H6031876   5.626   4.707   5.316 -0.0732  2.3655 -1.7516
  389MOL    H6131877   5.593   4.717   5.483  1.8440  0.7120  2.2219
  389MOL    C6231878   5.867   4.776   5.312  0.7238 -0.1048  0.0599
  389MOL    O6331879   5.910   4.656   5.249 -0.4580  0.0146 -0.3990
  389MOL    H6431880   5.948   4.837   5.351 -1.0550  0.5892  2.9067
  389MOL    H6531881   5.807   4.825   5.235  1.4086  2.5975  1.1789
  389MOL    C6631882   6.015   4.606   5.318 -1.2608  0.2310 -0.6441
  389MOL    O6731883   6.136   4.676   5.300 -0.4538 -0.2429 -0.3922
  389MOL    H6831884   6.041   4.506   5.282  0.7534  1.1534 -1.8399
  389MOL    H6931885   5.996   4.592   5.424  1.3193  2.6446  0.1921
  389MOL    C7031886   6.193   4.651   5.171 -0.1982 -0.5202  0.2259
  389MOL    O7131887   6.233   4.523   5.147 -0.7969  0.1106  0.3531
  389MOL    H7231888   6.271   4.726   5.160 -1.5896  0.4072 -4.3861
  389MOL    H7331889   6.118   4.666   5.093  0.1039 -0.7186 -0.1079
  389MOL    C7431890   6.352   4.497   5.214  0.3063  0.2792 -0.1636
  389MOL    O7531891   6.453   4.590   5.175 -0.0248 -0.9037 -0.2572
  389MOL    H7631892   6.393   4.397   5.204  1.1109  0.3869  1.8693
  389MOL    H7731893   6.345   4.515   5.322 -1.1215  0.2162 -0.2260
  389MOL    C7831894   6.513   4.555   5.052  0.3602 -0.9891  0.3816
  389MOL    O7931895   6.629   4.617   5.037  0.0801  0.4701 -0.0024
  389MOL    H8031896   6.452   4.576   4.964  1.7526  0.3056 -0.3017
  389MOL    H8131897   6.539   4.450   5.062  0.9869 -1.0380 -1.5871
  389MOL    H8231898   6.603   4.701   5.001  0.0071  0.6839  0.5541
  390MOL     C131899   7.120   5.863   5.790  1.4706 -0.0172  0.5748
  390MOL     O231900   6.978   5.839   5.809  0.0926  0.4503  0.0547
  390MOL     H331901   7.139   5.869   5.683  2.9897 -0.1683  0.8312
  390MOL     H431902   7.148   5.960   5.832 -1.5361  1.6372 -1.0866
  390MOL     H531903   7.173   5.775   5.827  0.1507 -0.9598  0.2594
  390MOL     C631904   6.905   5.747   5.727 -0.2269  0.5284 -0.3256
  390MOL     O731905   6.962   5.618   5.733  0.1312 -0.3990 -0.1838
  390MOL     H831906   6.887   5.785   5.627  0.1766  0.1987 -0.5273
  390MOL     H931907   6.802   5.736   5.759 -0.0736  1.7152  0.6150
  390MOL    C1031908   6.962   5.570   5.861 -0.0743  0.1044 -0.0076
  390MOL    O1131909   6.838   5.515   5.892  0.0291 -0.4315 -0.0512
  390MOL    H1231910   6.971   5.643   5.942  0.4113  0.0372 -0.0008
  390MOL    H1331911   7.043   5.502   5.886  1.2409  1.8143  0.5056
  390MOL    C1431912   6.793   5.422   5.802  0.4558  0.1765  0.4226
  390MOL    O1531913   6.876   5.307   5.787 -0.5234 -0.2691 -0.2475
  390MOL    H1631914   6.791   5.456   5.698  0.6788  2.0578  1.0286
  390MOL    H1731915   6.690   5.397   5.830  0.3680  1.8112  1.5962
  390MOL    C1831916   6.854   5.209   5.881 -0.5442 -0.2520  0.5573
  390MOL    O1931917   6.727   5.152   5.864  0.8262 -0.8425 -0.0881
  390MOL    H2031918   6.867   5.247   5.982 -1.2768 -0.9692  0.9207
  390MOL    H2131919   6.930   5.131   5.877  0.7632  0.9680  0.8655
  390MOL    C2231920   6.704   5.091   5.745 -0.5413  0.3088  0.1554
  390MOL    O2331921   6.775   4.971   5.732  0.8593  0.6663  0.0741
  390MOL    H2431922   6.710   5.153   5.655  0.8252  0.7798  0.5433
  390MOL    H2531923   6.599   5.063   5.737 -0.3020 -0.1763 -1.6831
  390MOL    C2631924   6.724   4.900   5.623  0.3187  0.2650  0.2960
  390MOL    O2731925   6.735   4.978   5.507  0.2024 -0.4402  0.6347
  390MOL    H2831926   6.622   4.863   5.635  0.1781  1.5530  3.3884
  390MOL    H2931927   6.788   4.812   5.613 -0.1735 -0.0527 -0.0982
  390MOL    C3031928   6.748   4.913   5.390  0.0991  0.0074  0.2957
  390MOL    O3131929   6.873   4.866   5.359 -0.1617 -0.0220 -0.0521
  390MOL    H3231930   6.716   4.974   5.306 -0.4479 -0.9760 -0.2177
  390MOL    H3331931   6.681   4.827   5.388  0.2669 -0.1152 -0.0287
  390MOL    C3431932   6.952   4.954   5.288 -0.0437 -0.1634  0.0980
  390MOL    O3531933   6.900   4.983   5.159 -0.4233 -0.0986  0.0643
  390MOL    H3631934   7.056   4.926   5.276  0.8046  3.1184 -1.0063
  390MOL    H3731935   6.963   5.051   5.337 -0.1018  0.8339 -1.7946
  390MOL    C3831936   6.910   4.887   5.063  0.1373 -0.4694 -0.2199
  390MOL    O3931937   7.047   4.870   5.036 -0.5062  0.4305  0.0479
  390MOL    H4031938   6.851   4.910   4.974 -0.3114  1.0811  0.4591
  390MOL    H4131939   6.876   4.799   5.117 -1.1650 -0.3903 -0.9054
  390MOL    C4231940   7.068   4.758   4.963 -0.2558 -0.3449 -0.0257
  390MOL    O4331941   7.035   4.638   5.027  0.4619 -0.3515 -0.1322
  390MOL    H4431942   7.176   4.762   4.948 -0.1944  0.0554  0.4764
  390MOL    H4531943   7.013   4.775   4.871 -0.2268  0.8608  0.1674
  390MOL    C4631944   7.088   4.615   5.151 -0.0686 -1.0731 -0.3587
  390MOL    O4731945   7.223   4.595   5.156  0.1277 -0.0898  0.3421
  390MOL    H4831946   7.046   4.518   5.177  0.8703 -2.6357 -4.2145
  390MOL    H4931947   7.060   4.699   5.214  1.9255 -0.4991 -0.2176
  390MOL    C5031948   7.262   4.539   5.279  0.1991  0.4773 -0.3776
  390MOL    O5131949   7.192   4.599   5.384  0.1034  0.4307 -0.0534
  390MOL    H5231950   7.370   4.536   5.299  0.2796  1.9180 -0.5566
  390MOL    H5331951   7.240   4.433   5.274  2.0371  0.0648 -0.3756
  390MOL    C5431952   7.251   4.708   5.443 -0.6894  0.7178 -0.4384
  390MOL    O5531953   7.371   4.667   5.499 -0.0288  0.1437  0.0728
  390MOL    H5631954   7.186   4.763   5.511 -0.9055  0.9519 -0.8316
  390MOL    H5731955   7.282   4.790   5.378 -0.3156  1.0893  0.2038
  390MOL    C5831956   7.361   4.587   5.616  0.6616  0.0496  0.1637
  390MOL    O5931957   7.489   4.552   5.670 -0.2880  0.1810  0.2428
  390MOL    H6031958   7.324   4.489   5.586 -1.5375  1.7588 -2.9475
  390MOL    H6131959   7.291   4.621   5.692 -0.7838  0.6306 -1.4166
  390MOL    C6231960   7.555   4.667   5.725  0.6850  0.1504  0.1527
  390MOL    O6331961   7.474   4.721   5.826  0.4001  0.5621 -0.0849
  390MOL    H6431962   7.566   4.743   5.647  2.1501  0.8235  1.0069
  390MOL    H6531963   7.655   4.635   5.756  0.3862  1.1743  2.2514
  390MOL    C6631964   7.537   4.717   5.948  0.3105  0.3596 -0.8178
  390MOL    O6731965   7.475   4.798   6.045  0.1476  0.3718 -0.2775
  390MOL    H6831966   7.634   4.763   5.926 -0.2916  1.7391 -0.5910
  390MOL    H6931967   7.552   4.613   5.978 -0.0170  0.4930 -0.1934
  390MOL    C7031968   7.383   4.718   6.117  0.0326 -0.5279 -0.2994
  390MOL    O7131969   7.441   4.626   6.201  0.3167  0.5058 -0.7868
  390MOL    H7231970   7.311   4.675   6.048 -1.3090 -0.1140  0.8097
  390MOL    H7331971   7.318   4.779   6.180  0.8660 -3.1251  3.2607
  390MOL    C7431972   7.499   4.683   6.316 -0.3087  0.0274  0.1147
  390MOL    O7531973   7.397   4.727   6.397  0.2994 -0.9877 -0.2063
  390MOL    H7631974   7.563   4.768   6.295  1.3480 -0.6598  2.1987
  390MOL    H7731975   7.556   4.605   6.367 -0.4510 -0.7782 -0.9417
  390MOL    C7831976   7.313   4.637   6.444  0.3469 -0.0705  0.1614
  390MOL    O7931977   7.273   4.676   6.576  0.6138  0.1733  0.4079
  390MOL    H8031978   7.347   4.533   6.454  2.0910  0.5305  0.6950
  390MOL    H8131979   7.228   4.634   6.376  1.2641 -0.0563 -1.0064
  390MOL    H8231980   7.349   4.679   6.631  2.1006  2.0135 -1.6671
  391MOL     C131981   0.941   5.438   0.935  0.4076 -0.4156 -0.4306
  391MOL     O231982   0.921   5.353   1.048  0.0269 -0.1290 -0.0296
  391MOL     H331983   0.882   5.528   0.952  2.0297  0.6590 -0.4386
  391MOL     H431984   1.044   5.471   0.925  0.2380  0.5034  0.7132
  391MOL     H531985   0.892   5.382   0.856 -0.3333  0.9144 -0.9323
  391MOL     C631986   0.961   5.223   1.027  0.4837 -0.1918 -0.1314
  391MOL     O731987   1.100   5.217   1.043  0.7050  0.7532 -0.0757
  391MOL     H831988   0.919   5.191   0.931  1.8234 -2.1464 -0.0980
  391MOL     H931989   0.904   5.163   1.097  1.7470 -1.4294 -0.1476
  391MOL    C1031990   1.135   5.208   1.181 -0.6365  0.3254 -0.7151
  391MOL    O1131991   1.145   5.073   1.227 -0.0195 -0.6969  0.0425
  391MOL    H1231992   1.061   5.254   1.247  0.7120  1.7180 -0.1484
  391MOL    H1331993   1.218   5.275   1.200 -0.2866 -0.6970  1.5186
  391MOL    C1431994   1.260   5.019   1.182 -0.1074  0.1161 -0.1598
  391MOL    O1531995   1.364   5.071   1.264 -0.7259  0.0361 -0.7133
  391MOL    H1631996   1.274   5.058   1.081  1.1251  0.5671  0.1800
  391MOL    H1731997   1.235   4.913   1.176 -0.2645  0.1546 -0.2036
  391MOL    C1831998   1.473   4.981   1.278  0.7335 -0.7118 -0.0347
  391MOL    O1931999   1.561   4.998   1.174 -0.0024 -0.4025 -0.2818
  391MOL    H2032000   1.440   4.878   1.269  0.4060 -0.3590 -3.0728
  391MOL    H2132001   1.533   5.001   1.368 -0.4636 -0.4360  0.7155
  391MOL    C2232002   1.625   5.124   1.168 -0.6828  0.6236  1.0297
  391MOL    O2332003   1.717   5.116   1.067  0.4057 -0.1913  0.0457
  391MOL    H2432004   1.675   5.138   1.264 -0.5817  0.1283  1.0524
  391MOL    H2532005   1.555   5.203   1.141 -0.2824  0.5388 -0.3006
  391MOL    C2632006   1.810   5.220   1.067 -0.2541  0.0498 -1.0833
  391MOL    O2732007   1.900   5.197   1.164 -0.3145  0.7286 -0.0410
  391MOL    H2832008   1.764   5.314   1.099 -0.0449 -0.1543 -0.1690
  391MOL    H2932009   1.849   5.224   0.965 -0.7479 -0.6739 -1.3041
  391MOL    C3032010   1.981   5.091   1.127 -0.5861  0.0428  0.0941
  391MOL    O3132011   2.074   5.129   1.026 -0.7520  0.4258 -0.4146
  391MOL    H3232012   1.914   5.007   1.104  0.2141  0.0403 -2.3106
  391MOL    H3332013   2.045   5.067   1.213 -1.7797 -0.9695  0.7327
  391MOL    C3432014   2.169   5.226   1.076  0.0098  0.5545  0.7562
  391MOL    O3532015   2.265   5.277   0.980  0.2290 -0.0711 -0.6387
  391MOL    H3632016   2.225   5.176   1.155 -0.0597  1.8971  1.6831
  391MOL    H3732017   2.118   5.314   1.116 -0.6606 -0.0619  1.2471
  391MOL    C3832018   2.357   5.187   0.932  0.1470 -0.6380  0.1421
  391MOL    O3932019   2.441   5.135   1.036 -0.4160 -0.3250  0.8105
  391MOL    H4032020   2.408   5.216   0.840 -0.1359 -1.2978 -0.2211
  391MOL    H4132021   2.302   5.097   0.904  2.4084 -1.3808 -2.0104
  391MOL    C4232022   2.539   5.229   1.076 -0.3494  0.0874 -0.5472
  391MOL    O4332023   2.624   5.274   0.975  0.6357  0.0352  0.2201
  391MOL    H4432024   2.607   5.201   1.157 -3.1259 -1.1302  1.4303
  391MOL    H4532025   2.493   5.325   1.097  0.8022  0.2886  1.1740
  391MOL    C4632026   2.720   5.177   0.932  0.3864  0.4448 -0.4875
  391MOL    O4732027   2.839   5.189   1.001 -0.2815 -0.3775  0.0282
  391MOL    H4832028   2.745   5.202   0.829  0.7223  2.5617  0.0888
  391MOL    H4932029   2.672   5.079   0.925 -0.9693  0.9544  1.1260
  391MOL    C5032030   2.894   5.319   0.992  0.2555 -0.6813 -0.0707
  391MOL    O5132031   3.036   5.315   0.979  0.0502 -0.0317 -0.0577
  391MOL    H5232032   2.880   5.378   1.082  0.0234 -0.2658 -0.3757
  391MOL    H5332033   2.843   5.378   0.916  1.3175  0.1133 -0.1798
  391MOL    C5432034   3.073   5.285   0.848 -0.3391  0.6850 -0.9003
  391MOL    O5532035   3.210   5.246   0.842  0.1770  0.1493  0.2257
  391MOL    H5632036   3.056   5.380   0.797  0.0587  1.1864 -0.1071
  391MOL    H5732037   3.013   5.208   0.801  1.6002 -0.2171 -1.9606
  391MOL    C5832038   3.293   5.332   0.903 -0.5131 -0.2893  0.0760
  391MOL    O5932039   3.299   5.454   0.837 -0.2086 -0.1680  0.0465
  391MOL    H6032040   3.395   5.294   0.904  0.5318  2.3573  1.5197
  391MOL    H6132041   3.263   5.344   1.007  0.2641  0.5681  0.2128
  391MOL    C6232042   3.351   5.553   0.923  0.1073 -0.7264 -0.2664
  391MOL    O6332043   3.254   5.611   1.003 -0.5344 -0.3083  0.3726
  391MOL    H6432044   3.391   5.634   0.862  0.6087 -0.7293  0.0613
  391MOL    H6532045   3.427   5.515   0.992  0.7054  0.9235 -0.0019
  391MOL    C6632046   3.155   5.676   0.932 -0.0434 -0.0384 -0.8898
  391MOL    O6732047   3.202   5.801   0.913 -0.1084  0.1864 -0.1870
  391MOL    H6832048   3.073   5.665   1.002  0.4558  1.4045 -0.0665
  391MOL    H6932049   3.130   5.624   0.839 -1.1195 -1.5657  0.2349
  391MOL    C7032050   3.092   5.884   0.878  0.2357  0.0527  0.3014
  391MOL    O7132051   3.031   5.843   0.753 -0.3016 -0.4062  0.0176
  391MOL    H7232052   3.122   5.989   0.872 -1.6220  0.5958  0.3066
  391MOL    H7332053   3.015   5.867   0.953  1.5365 -2.2515  1.1343
  391MOL    C7432054   3.115   5.868   0.643 -0.8515 -0.9701 -0.3494
  391MOL    O7532055   3.147   5.751   0.587  0.0398 -0.1872  0.1833
  391MOL    H7632056   3.200   5.929   0.674 -0.4260 -0.5372 -2.2908
  391MOL    H7732057   3.062   5.935   0.575  2.0103  0.7481 -0.9658
  391MOL    C7832058   3.275   5.764   0.518  0.1208 -0.0014  0.4886
  391MOL    O7932059   3.310   5.644   0.451 -0.0336  0.2819  0.2335
  391MOL    H8032060   3.355   5.789   0.587 -0.3477  0.4005  0.8886
  391MOL    H8132061   3.262   5.843   0.443  0.9567 -0.3634 -0.0437
  391MOL    H8232062   3.364   5.593   0.510  2.3792  2.0138 -0.3761
  392MOL     C132063   3.247   7.313   7.134  0.0186  0.7363 -0.8778
  392MOL     O232064   3.163   7.427   7.163  0.0339  0.9057 -0.1991
  392MOL     H332065   3.356   7.319   7.138  0.2068 -1.5399 -1.6702
  392MOL     H432066   3.210   7.246   7.212  0.2781  1.9522  0.2919
  392MOL     H532067   3.237   7.279   7.031  0.4203  1.9804 -1.3392
  392MOL     C632068   3.218   7.546   7.126 -0.0751  1.0648  0.6190
  392MOL     O732069   3.209   7.574   6.986 -0.0287  0.5768 -0.1811
  392MOL     H832070   3.322   7.567   7.153  0.4776 -0.7029 -0.1071
  392MOL     H932071   3.163   7.627   7.175  0.1749  2.8744 -1.9751
  392MOL    C1032072   3.078   7.584   6.945 -0.5183  0.0423 -0.3330
  392MOL    O1132073   3.027   7.698   6.989 -0.7719 -0.1251  0.4571
  392MOL    H1232074   3.015   7.503   6.983  1.0114 -0.6285  0.8155
  392MOL    H1332075   3.073   7.575   6.836  0.0548  2.8114 -0.6147
  392MOL    C1432076   3.048   0.023   6.900 -0.6558  0.0503  0.2465
  392MOL    O1532077   3.181   0.061   6.895  0.3851  0.2826  0.4802
  392MOL    H1632078   2.986   0.109   6.926 -2.5301 -1.1013 -0.2906
  392MOL    H1732079   3.011   7.778   6.802 -0.8151  0.6542  0.1273
  392MOL    C1832080   3.234   0.132   7.009 -0.2312  0.2846  0.1338
  392MOL    O1932081   3.183   0.259   7.019 -0.2311  0.1167 -0.0868
  392MOL    H2032082   3.343   0.138   7.002 -0.2820  1.4743  0.1683
  392MOL    H2132083   3.205   0.064   7.089 -2.6783  0.1034 -0.8592
  392MOL    C2232084   3.255   0.345   6.931  0.9319 -0.4586  0.6028
  392MOL    O2332085   3.379   0.388   6.983  0.0494  0.2532 -0.1998
  392MOL    H2432086   3.183   0.428   6.923  1.1041 -0.5758 -2.8572
  392MOL    H2532087   3.258   0.309   6.828 -2.5084  0.7555 -0.0190
  392MOL    C2632088   3.367   0.444   7.105  0.1649 -0.0800 -1.0007
  392MOL    O2732089   3.312   0.573   7.095  0.3122  0.2350  0.2107
  392MOL    H2832090   3.459   0.446   7.163 -2.1661  0.3465  2.8812
  392MOL    H2932091   3.297   0.386   7.165 -0.9618  1.4054 -0.8671
  392MOL    C3032092   3.412   0.667   7.076  0.1954 -0.4009 -0.3162
  392MOL    O3132093   3.493   0.643   6.970 -0.2684  0.9775  0.0188
  392MOL    H3232094   3.476   0.690   7.162  2.4905 -0.1027 -2.0536
  392MOL    H3332095   3.362   0.762   7.061  0.1058 -0.6045 -1.3150
  392MOL    C3432096   3.565   0.754   6.928 -0.0516  0.1855  0.5031
  392MOL    O3532097   3.679   0.779   7.009  0.7125  0.4595 -0.3982
  392MOL    H3632098   3.504   0.844   6.923  0.9482  0.9804  2.0540
  392MOL    H3732099   3.599   0.749   6.825  0.2597  1.4370  0.5346
  392MOL    C3832100   3.691   0.907   7.046 -0.2848 -0.3012  0.7213
  392MOL    O3932101   3.595   0.944   7.143  0.5271 -0.0452  1.0273
  392MOL    H4032102   3.684   0.960   6.951  1.8077 -0.2372  0.5724
  392MOL    H4132103   3.787   0.918   7.095  0.2255 -3.5768  0.5794
  392MOL    C4232104   3.615   0.884   7.261 -0.0634 -0.1463 -0.1409
  392MOL    O4332105   3.493   0.881   7.328  0.3069 -0.3402 -0.1438
  392MOL    H4432106   3.694   0.928   7.322  0.2564 -1.0054  0.0749
  392MOL    H4532107   3.639   0.778   7.257  1.7392  0.1221  2.3077
  392MOL    C4632108   3.474   1.003   7.397  0.6708 -0.1803 -0.3303
  392MOL    O4732109   3.559   1.022   7.504 -0.5317  0.1707  0.4899
  392MOL    H4832110   3.373   0.995   7.436  0.6122  2.5263  0.1188
  392MOL    H4932111   3.479   1.088   7.329  3.0904  0.8415  1.0626
  392MOL    C5032112   3.539   0.923   7.608  0.3863 -0.0572 -1.0793
  392MOL    O5132113   3.439   0.966   7.696  0.9605  0.3211 -0.5584
  392MOL    H5232114   3.634   0.899   7.655 -0.1220 -0.7304 -0.3737
  392MOL    H5332115   3.513   0.826   7.565 -0.5586  0.4790 -1.7315
  392MOL    C5432116   3.489   1.035   0.018  0.4626 -0.2934 -0.5683
  392MOL    O5532117   3.561   0.956   0.104 -0.0261 -0.5210  0.0300
  392MOL    H5632118   3.413   1.088   0.076 -0.1755 -0.7761 -0.9520
  392MOL    H5732119   3.546   1.118   7.761  1.4279  0.0310  1.3727
  392MOL    C5832120   3.469   0.881   0.181  0.2739 -0.0385  0.4344
  392MOL    O5932121   3.416   0.947   0.294 -0.3244 -0.2697 -0.3742
  392MOL    H6032122   3.514   0.786   0.208 -0.2923  0.2108  2.3910
  392MOL    H6132123   3.389   0.846   0.116  1.5348  1.3484 -1.9504
  392MOL    C6232124   3.498   0.927   0.405  0.8805  0.4052  0.0748
  392MOL    O6332125   3.461   0.800   0.459  0.3564 -0.0407  0.2277
  392MOL    H6432126   3.478   0.998   0.485  0.8147  1.2148 -0.6411
  392MOL    H6532127   3.603   0.937   0.378  0.4998  0.7392 -1.3844
  392MOL    C6632128   3.344   0.799   0.534  0.7946 -0.0999 -0.3730
  392MOL    O6732129   3.347   0.887   0.642  0.1600  0.1582 -0.0150
  392MOL    H6832130   3.307   0.698   0.551  0.0313  0.1177 -0.7456
  392MOL    H6932131   3.263   0.830   0.469 -0.5715 -1.1208  0.8208
  392MOL    C7032132   3.385   0.828   0.760  0.1521  0.4783 -0.9708
  392MOL    O7132133   3.273   0.755   0.817 -0.5432 -0.6614  0.2590
  392MOL    H7232134   3.415   0.905   0.832  0.2229  0.8913 -1.4412
  392MOL    H7332135   3.477   0.769   0.752  0.7429  1.0725  0.9723
  392MOL    C7432136   3.321   0.688   0.926  0.6226  0.0521 -0.1187
  392MOL    O7532137   3.387   0.572   0.899 -0.1572  0.2986  0.0575
  392MOL    H7632138   3.239   0.665   0.995  0.5497 -1.9060 -0.8365
  392MOL    H7732139   3.380   0.760   0.985  0.9881  0.5473 -1.0791
  392MOL    C7832140   3.302   0.476   0.840  0.0168  0.5647 -0.2066
  392MOL    O7932141   3.349   0.346   0.870  0.4440  0.3405 -0.3768
  392MOL    H8032142   3.293   0.479   0.732  1.1090 -2.5950 -0.4192
  392MOL    H8132143   3.207   0.475   0.894  0.9055 -0.8478  1.3963
  392MOL    H8232144   3.350   0.341   0.965  0.7220  0.1211 -0.3920
  393MOL     C132145   0.059   3.006   1.177 -0.2172  0.5815  0.7166
  393MOL     O232146   0.093   3.072   1.296 -0.3476  0.0601 -0.3559
  393MOL     H332147   0.097   2.904   1.181 -0.5149  0.4223 -0.3841
  393MOL     H432148   7.734   3.012   1.183 -0.3599 -2.4042  1.5746
  393MOL     H532149   0.086   3.048   1.080  1.9854 -2.2835  0.0383
  393MOL     C632150   0.032   3.196   1.307  0.4584 -0.4831  0.0534
  393MOL     O732151   0.085   3.295   1.218 -0.1074  0.2684 -0.2872
  393MOL     H832152   0.056   3.227   1.408 -1.1379  0.3132  0.1997
  393MOL     H932153   7.708   3.188   1.301  0.2679  0.8120  1.4687
  393MOL    C1032154   0.216   3.332   1.253 -0.8229  0.1943  0.0033
  393MOL    O1132155   0.216   3.425   1.362  0.0765  0.9079  0.1290
  393MOL    H1232156   0.253   3.390   1.169  2.1481 -2.1660 -0.4449
  393MOL    H1332157   0.285   3.248   1.251 -3.1886 -1.8008 -0.1714
  393MOL    C1432158   0.347   3.448   1.396  0.2451  0.2019 -0.3386
  393MOL    O1532159   0.407   3.337   1.465  0.1195 -0.4720 -0.5942
  393MOL    H1632160   0.343   3.541   1.454 -0.0753  0.4864 -0.8135
  393MOL    H1732161   0.405   3.469   1.307 -0.3658  1.6549 -0.4007
  393MOL    C1832162   0.348   3.296   1.585 -0.5056  0.1328  0.3899
  393MOL    O1932163   0.355   3.389   1.686 -0.2294  0.3658 -0.0347
  393MOL    H2032164   0.401   3.206   1.617  0.2623 -0.0546 -1.3229
  393MOL    H2132165   0.244   3.273   1.565 -0.3318 -0.1797 -0.1776
  393MOL    C2232166   0.485   3.404   1.737  0.1949  0.0485  0.4475
  393MOL    O2332167   0.521   3.293   1.815 -0.2181 -0.4566  0.3235
  393MOL    H2432168   0.512   3.496   1.790  1.7884 -0.1007 -0.0861
  393MOL    H2532169   0.563   3.415   1.661 -0.0034 -0.6077  0.1531
  393MOL    C2632170   0.443   3.269   1.929 -0.2888 -0.1905  0.1905
  393MOL    O2732171   0.473   3.377   2.013  0.0752  0.0764  0.1309
  393MOL    H2832172   0.461   3.176   1.982 -1.5521 -0.2709  0.5052
  393MOL    H2932173   0.344   3.265   1.884  0.7114 -1.1224 -2.0103
  393MOL    C3032174   0.599   3.361   2.067  0.3420  0.4202  0.8045
  393MOL    O3132175   0.640   3.478   2.134  0.0636 -0.3644 -0.0262
  393MOL    H3232176   0.668   3.339   1.986 -0.3699  0.3408  0.2177
  393MOL    H3332177   0.595   3.279   2.139  0.2965 -0.2040  0.1000
  393MOL    C3432178   0.695   3.585   2.056  0.3813  1.1229 -0.2600
  393MOL    O3532179   0.809   3.539   1.993 -0.2540 -0.4418 -0.8335
  393MOL    H3632180   0.707   3.673   2.119  0.3909  0.3895  0.7669
  393MOL    H3732181   0.621   3.608   1.979  0.0092 -0.4492 -0.3759
  393MOL    C3832182   0.861   3.636   1.908  0.0865  0.0907 -0.2550
  393MOL    O3932183   0.913   3.749   1.963 -0.4615 -0.0764  0.3820
  393MOL    H4032184   0.784   3.668   1.838 -0.4621 -0.0791  0.2763
  393MOL    H4132185   0.935   3.583   1.848  0.1819 -1.0158  0.8186
  393MOL    C4232186   1.021   3.732   2.056 -0.0503  0.1801 -0.3912
  393MOL    O4332187   1.133   3.674   2.000  0.2313  0.0636 -0.4890
  393MOL    H4432188   0.977   3.675   2.139 -0.2269  1.0299  0.1015
  393MOL    H4532189   1.037   3.834   2.091 -0.9546  0.0654  0.4090
  393MOL    C4632190   1.194   3.757   1.908  0.1697 -0.2374  0.2208
  393MOL    O4732191   1.256   3.869   1.969 -0.2472 -0.2019  0.1067
  393MOL    H4832192   1.120   3.802   1.841 -0.3194 -1.2241  0.0860
  393MOL    H4932193   1.275   3.706   1.856  0.3681 -0.5102  0.7963
  393MOL    C5032194   1.369   3.839   2.041  0.7516  0.5110  0.1658
  393MOL    O5132195   1.453   3.952   2.037 -0.1555 -0.2926  0.1626
  393MOL    H5232196   1.427   3.769   1.982 -1.3387 -0.8720 -0.3134
  393MOL    H5332197   1.350   3.803   2.142 -1.1670  1.2032  0.0887
  393MOL    C5432198   1.574   3.921   2.097  0.0102 -0.8926  0.1402
  393MOL    O5532199   1.660   3.851   2.005 -0.1878  0.2597 -0.2066
  393MOL    H5632200   1.564   3.852   2.181  2.2084 -1.7991 -0.2982
  393MOL    H5732201   1.617   4.015   2.132  1.0747 -2.3825  3.0741
  393MOL    C5832202   1.789   3.838   2.058 -0.3612 -0.1374  0.5098
  393MOL    O5932203   1.848   3.965   2.056  0.1137  0.3806  0.5221
  393MOL    H6032204   1.847   3.769   1.997  1.3765  0.9389  0.9031
  393MOL    H6132205   1.789   3.798   2.159  1.6123 -1.3865  0.0520
  393MOL    C6232206   1.981   3.975   2.103  0.0632  0.4456  0.0281
  393MOL    O6332207   1.996   3.958   2.233  0.2016 -0.9689  0.0599
  393MOL    H6432208   2.016   4.074   2.075 -1.6756  0.8762 -0.6780
  393MOL    H6532209   2.053   3.907   2.058  1.3946  0.8352  1.4972
  393MOL    C6632210   1.930   4.056   2.308 -0.6691  0.5537 -0.5536
  393MOL    O6732211   1.796   4.028   2.341 -0.0913 -0.1899  0.0146
  393MOL    H6832212   1.942   4.158   2.271  1.2528  0.2046 -0.9109
  393MOL    H6932213   1.992   4.064   2.397  0.4653  3.4106 -1.5300
  393MOL    C7032214   1.742   4.129   2.412 -0.4745 -0.1295  0.1554
  393MOL    O7132215   1.816   4.183   2.518  0.2047 -0.3291 -0.0717
  393MOL    H7232216   1.645   4.101   2.454 -1.3207  1.0745 -0.9807
  393MOL    H7332217   1.721   4.213   2.347  0.1330 -1.1671 -1.4113
  393MOL    C7432218   1.805   4.112   2.635  0.2227 -0.5708 -0.1508
  393MOL    O7532219   1.673   4.106   2.691 -0.0643  0.5237 -0.0774
  393MOL    H7632220   1.881   4.144   2.706 -1.1197 -1.2273  1.6092
  393MOL    H7732221   1.824   4.007   2.613  0.9845 -0.4056 -0.2879
  393MOL    C7832222   1.638   4.227   2.753 -0.1209 -0.5899 -0.3154
  393MOL    O7932223   1.507   4.231   2.803 -0.3295 -0.5342 -0.2308
  393MOL    H8032224   1.651   4.309   2.683  1.7272 -0.4680  0.1381
  393MOL    H8132225   1.701   4.255   2.838 -1.2727 -1.1991  0.7541
  393MOL    H8232226   1.500   4.186   2.886 -2.9808  0.3851  0.0757
  394MOL     C132227   1.328   0.182   3.122 -0.8614 -0.6258  0.1047
  394MOL     O232228   1.318   0.082   3.222  0.4293  0.0240 -0.0769
  394MOL     H332229   1.256   0.263   3.124 -0.9304 -0.6928  0.5879
  394MOL     H432230   1.426   0.229   3.124 -0.8621 -0.6147  2.7716
  394MOL     H532231   1.309   0.137   3.025 -2.2176  0.5400 -0.1819
  394MOL     C632232   1.432   7.778   3.210  0.2288  0.8452 -0.2200
  394MOL     O732233   1.414   7.689   3.104  0.7952  0.1403  0.3414
  394MOL     H832234   1.422   7.713   3.297  2.9044  1.3736  0.5336
  394MOL     H932235   1.532   0.038   3.206  1.1161 -1.1315 -0.0043
  394MOL    C1032236   1.516   7.601   3.079 -0.0224  0.0244 -0.3341
  394MOL    O1132237   1.630   7.674   3.033 -0.0558 -0.6042  0.4597
  394MOL    H1232238   1.486   7.533   2.999 -2.2061 -0.5291  0.9121
  394MOL    H1332239   1.542   7.553   3.173  1.9216  1.7281  0.0438
  394MOL    C1432240   1.616   7.721   2.898 -0.4118  0.0418 -0.0393
  394MOL    O1532241   1.741   7.775   2.849  0.1079 -0.2719  0.0056
  394MOL    H1632242   1.550   0.023   2.888  1.5435  1.3382 -2.4439
  394MOL    H1732243   1.583   7.644   2.828 -0.1441  1.0282 -1.2633
  394MOL    C1832244   1.826   7.676   2.813  0.0299 -0.5573  0.0020
  394MOL    O1932245   1.783   7.607   2.697 -0.4397  0.7251  0.5389
  394MOL    H2032246   1.827   7.606   2.897  1.7019  0.1222  0.5782
  394MOL    H2132247   1.927   7.714   2.796 -0.1062 -0.0905  0.2367
  394MOL    C2232248   1.781   7.689   2.581  0.1450  0.1241  0.0124
  394MOL    O2332249   1.749   7.623   2.464 -0.1077  0.5631  0.1632
  394MOL    H2432250   1.879   7.736   2.570 -0.7926  1.7907 -1.5391
  394MOL    H2532251   1.703   7.761   2.608 -0.7621 -1.4437  1.6633
  394MOL    C2632252   1.611   7.602   2.451  0.8490 -0.4413  0.2195
  394MOL    O2732253   1.586   7.505   2.351  0.4646  0.3273 -0.6116
  394MOL    H2832254   1.557   7.693   2.425  0.3890 -1.5634 -2.9262
  394MOL    H2932255   1.569   7.562   2.543 -2.7785  2.4571 -0.0385
  394MOL    C3032256   1.596   7.551   2.219 -0.4748  0.0239 -0.2073
  394MOL    O3132257   1.478   7.603   2.170  0.2660 -0.2523 -0.5663
  394MOL    H3232258   1.618   7.460   2.165  1.5279  0.5515 -0.3320
  394MOL    H3332259   1.678   7.622   2.206  1.1874 -1.2615  2.7075
  394MOL    C3432260   1.382   7.504   2.162 -0.2828 -0.1066 -0.2526
  394MOL    O3532261   1.266   7.550   2.099  0.1970 -0.6437  0.7601
  394MOL    H3632262   1.359   7.441   2.247  1.7624 -0.3995  0.1081
  394MOL    H3732263   1.413   7.448   2.073 -0.3601  3.3054 -2.5340
  394MOL    C3832264   1.162   7.593   2.184 -0.8615  0.2230 -0.1304
  394MOL    O3932265   1.177   7.727   2.203 -0.3880 -0.7298 -0.2287
  394MOL    H4032266   1.171   7.548   2.283  1.9014  2.6723  0.8008
  394MOL    H4132267   1.067   7.560   2.144 -1.3906  1.5126  0.0654
  394MOL    C4232268   1.119   0.026   2.106 -0.4258 -0.4478  0.1871
  394MOL    O4332269   0.986   0.041   2.133 -0.3964 -0.5666  0.2292
  394MOL    H4432270   1.117   7.772   2.003  0.3610 -0.1826  0.0695
  394MOL    H4532271   1.168   0.123   2.104 -0.6046 -0.3600  0.1132
  394MOL    C4632272   0.967   0.088   2.260 -0.6000 -0.7794  0.0584
  394MOL    O4732273   0.832   0.134   2.269  0.4292 -0.1519 -0.0337
  394MOL    H4832274   1.029   0.172   2.290 -2.6743  1.6885 -2.3269
  394MOL    H4932275   0.970   0.006   2.332 -1.0096 -2.2237 -1.5080
  394MOL    C5032276   0.819   0.267   2.220 -0.1897 -0.0097  0.0734
  394MOL    O5132277   0.864   0.364   2.312 -0.0436 -0.0034 -0.4199
  394MOL    H5232278   0.719   0.291   2.186 -0.3717  1.5445  1.6125
  394MOL    H5332279   0.884   0.271   2.133 -0.7471  0.7422 -0.3159
  394MOL    C5432280   0.772   0.379   2.414  0.5905  0.0180 -0.5161
  394MOL    O5532281   0.826   0.434   2.524 -0.6318 -0.0749  0.2240
  394MOL    H5632282   0.737   0.282   2.450  1.3338  0.4861  1.5620
  394MOL    H5732283   0.693   0.448   2.384  3.1197  3.0126 -0.5469
  394MOL    C5832284   0.918   0.356   2.588 -0.6008  0.8110 -0.3434
  394MOL    O5932285   1.010   0.430   2.658  0.1786  1.2820  0.2070
  394MOL    H6032286   0.973   0.305   2.509 -2.1272  0.1636 -0.9959
  394MOL    H6132287   0.890   0.274   2.654 -0.1485 -0.2539 -1.4576
  394MOL    C6232288   0.963   0.498   2.772  0.1154 -0.1322 -0.3859
  394MOL    O6332289   0.911   0.406   2.861  0.0618 -0.7326 -0.0726
  394MOL    H6432290   0.882   0.564   2.741 -0.6898 -0.4319  1.0593
  394MOL    H6532291   1.041   0.565   2.810  0.1573  1.1665 -2.6501
  394MOL    C6632292   1.013   0.333   2.934 -0.0320 -0.9109  0.0991
  394MOL    O6732293   0.955   0.247   3.029 -0.0320  0.1962  0.4264
  394MOL    H6832294   1.082   0.401   2.983 -1.3965 -0.3944  1.3671
  394MOL    H6932295   1.071   0.271   2.866  0.3740 -2.6157  1.9518
  394MOL    C7032296   0.892   0.136   2.966 -0.2177  0.3506  0.0061
  394MOL    O7132297   0.990   0.031   2.944  0.5750 -0.4356  0.4870
  394MOL    H7232298   0.855   0.170   2.869  0.1454 -2.2525 -1.0884
  394MOL    H7332299   0.803   0.105   3.019 -0.7860  2.6124  0.4557
  394MOL    C7432300   1.034   7.758   3.066 -0.0351 -0.7600  0.4900
  394MOL    O7532301   0.939   7.666   3.113  0.1188 -0.6028 -0.3674
  394MOL    H7632302   1.053   0.051   3.141  0.6299  0.1355 -0.5834
  394MOL    H7732303   1.126   7.704   3.040 -0.5578 -1.0598 -0.7721
  394MOL    C7832304   0.997   7.568   3.199 -0.1612  0.0007  0.6049
  394MOL    O7932305   0.894   7.517   3.280  0.4440  0.0350 -0.1704
  394MOL    H8032306   1.083   7.601   3.257  0.1589  1.6721 -0.7741
  394MOL    H8132307   1.031   7.499   3.122 -0.1692 -0.1743  0.7614
  394MOL    H8232308   0.887   7.578   3.352  1.1060 -0.9595  0.7438
  395MOL     C132309   0.412   6.187   0.683 -0.1944 -0.0866  0.2874
  395MOL     O232310   0.449   6.116   0.576 -0.7157 -0.0122  0.7630
  395MOL     H332311   0.480   6.182   0.767 -0.8177  1.7016  0.9358
  395MOL     H432312   0.393   6.290   0.650  0.5337 -0.0577 -0.0523
  395MOL     H532313   0.319   6.143   0.718 -0.9197  1.1823  0.0225
  395MOL     C632314   0.348   6.119   0.477 -0.3179 -0.5779  0.0244
  395MOL     O732315   0.253   6.020   0.491 -0.0034 -0.2370 -0.1791
  395MOL     H832316   0.385   6.101   0.376 -0.4474 -1.7838  0.1920
  395MOL     H932317   0.311   6.222   0.474  0.2387 -0.3372  1.0055
  395MOL    C1032318   0.298   5.887   0.500 -0.1232  0.1993 -0.0873
  395MOL    O1132319   0.196   5.791   0.486  0.7445  0.3983  0.3070
  395MOL    H1232320   0.352   5.877   0.594  0.9604 -0.1716 -0.7350
  395MOL    H1332321   0.377   5.867   0.427 -1.6028 -1.7080 -1.2036
  395MOL    C1432322   0.123   5.810   0.367  0.4632  0.5725 -0.0670
  395MOL    O1532323   0.016   5.720   0.361  0.6790 -0.3934  0.2781
  395MOL    H1632324   0.182   5.787   0.278 -0.3733  2.0728 -1.0529
  395MOL    H1732325   0.091   5.914   0.379  0.2118  0.5117 -0.2143
  395MOL    C1832326   0.043   5.599   0.306  0.7375  0.3736  0.0856
  395MOL    O1932327   0.084   5.601   0.171 -0.5206  0.0914  0.0752
  395MOL    H2032328   7.744   5.529   0.318  0.3187  0.7970 -0.3483
  395MOL    H2132329   0.124   5.545   0.356  1.0185 -1.3773 -2.1577
  395MOL    C2232330   7.773   5.636   0.076  0.4507  0.6081 -0.5118
  395MOL    O2332331   7.725   5.521   0.006  0.0857 -0.5387  0.8013
  395MOL    H2432332   0.050   5.702   0.014  1.5780 -0.0546 -0.1258
  395MOL    H2532333   7.691   5.699   0.110 -0.0672 -1.0017  1.3109
  395MOL    C2632334   7.636   5.450   0.081  0.2308  0.0212 -0.1170
  395MOL    O2732335   7.523   5.527   0.112 -0.5965  0.2720  0.4081
  395MOL    H2832336   7.678   5.404   0.170 -3.7280 -1.1259  1.2784
  395MOL    H2932337   7.595   5.363   0.028  2.4337 -0.6402 -0.7998
  395MOL    C3032338   7.447   5.568   7.778 -0.2440 -0.4410  0.8009
  395MOL    O3132339   7.319   5.508   7.764  0.3216 -0.2466  0.4051
  395MOL    H3232340   7.492   5.562   7.679 -1.9525 -0.0034 -0.0306
  395MOL    H3332341   7.439   5.676   0.003  1.9588 -0.2137  0.1240
  395MOL    C3432342   7.222   5.562   0.069  0.1025 -0.6146 -0.7714
  395MOL    O3532343   7.199   5.688   0.030 -0.1990  0.3210  0.6855
  395MOL    H3632344   7.252   5.570   0.174 -0.4335  0.2135 -0.6779
  395MOL    H3732345   7.127   5.509   0.068 -0.4758  0.1709  3.1298
  395MOL    C3832346   7.109   5.752   0.119  0.1793 -0.5595  0.0229
  395MOL    O3932347   7.171   5.790   0.243  0.0197 -0.0090 -0.1251
  395MOL    H4032348   7.024   5.687   0.139 -3.1643  3.3984 -0.4066
  395MOL    H4132349   7.073   5.841   0.066 -1.1282 -1.1256 -0.0603
  395MOL    C4232350   7.278   5.883   0.223  1.3106  0.7066 -0.3328
  395MOL    O4332351   7.244   6.002   0.154 -0.1664  0.2827  0.0931
  395MOL    H4432352   7.360   5.837   0.168  0.4778 -0.4730 -0.6170
  395MOL    H4532353   7.315   5.903   0.324  0.5337  0.8517 -0.0768
  395MOL    C4632354   7.164   6.089   0.229 -0.5405  0.3010 -0.4032
  395MOL    O4732355   7.114   6.188   0.147  0.0325  0.5368 -0.7784
  395MOL    H4832356   7.230   6.143   0.297 -0.3661 -0.4997  0.0803
  395MOL    H4932357   7.081   6.043   0.283 -2.0186  1.0112 -2.0501
  395MOL    C5032358   7.000   6.149   0.075  0.4712 -0.3482  0.1742
  395MOL    O5132359   6.879   6.151   0.149  0.0520 -0.4187 -0.3062
  395MOL    H5232360   7.006   6.043   0.050 -3.1494  0.0959 -3.0327
  395MOL    H5332361   6.992   6.209   7.767 -0.3758 -0.0008  0.4711
  395MOL    C5432362   6.767   6.127   0.071  0.2615  0.1551  0.3849
  395MOL    O5532363   6.748   6.215   7.749 -0.0462  0.0912 -0.0936
  395MOL    H5632364   6.676   6.126   0.131 -0.7674  3.1751 -1.0062
  395MOL    H5732365   6.779   6.030   0.025  0.2410  0.1924  0.3008
  395MOL    C5832366   6.618   6.238   7.721  0.0538 -0.2448 -0.5263
  395MOL    O5932367   6.566   6.128   7.655  0.5582  0.5832 -0.1631
  395MOL    H6032368   6.606   6.332   7.668 -0.8427 -0.6924 -1.1203
  395MOL    H6132369   6.566   6.259   0.031  0.7476  0.1697 -0.2294
  395MOL    C6232370   6.602   6.133   7.522  0.0546 -0.4696  0.9904
  395MOL    O6332371   6.532   6.225   7.443  0.4541  0.0972  0.3393
  395MOL    H6432372   6.575   6.035   7.482 -0.6033 -0.8628  2.3927
  395MOL    H6532373   6.710   6.139   7.508 -0.0009  1.2035  1.1645
  395MOL    C6632374   6.400   6.191   7.421  0.5960 -0.1872  0.4276
  395MOL    O6732375   6.386   6.156   7.285  0.1154 -0.1212  0.3491
  395MOL    H6832376   6.333   6.270   7.453  1.0460 -0.0572  1.0462
  395MOL    H6932377   6.372   6.109   7.486 -0.2017  0.3537  0.7755
  395MOL    C7032378   6.336   6.257   7.207  0.5982 -0.8452  0.3810
  395MOL    O7132379   6.204   6.279   7.240 -0.8480 -0.0559 -0.2419
  395MOL    H7232380   6.342   6.246   7.099 -0.7565  0.7978  0.1151
  395MOL    H7332381   6.381   6.353   7.236 -1.1945  0.2209 -0.3309
  395MOL    C7432382   6.122   6.170   7.199 -0.2163  0.2593  0.4355
  395MOL    O7532383   6.079   6.199   7.066  0.3105 -0.3961 -0.1866
  395MOL    H7632384   6.036   6.152   7.264 -0.3194 -1.3289 -0.1245
  395MOL    H7732385   6.178   6.078   7.181 -1.4669 -0.4979  0.3613
  395MOL    C7832386   5.998   6.316   7.048 -0.4931  0.3255 -0.8098
  395MOL    O7932387   5.941   6.325   6.914  0.0168  0.0747 -0.0085
  395MOL    H8032388   6.061   6.405   7.052  1.6648 -1.1461 -0.5905
  395MOL    H8132389   5.919   6.310   7.122  0.2174 -0.2470 -0.0804
  395MOL    H8232390   5.885   6.249   6.903 -0.2072  0.1928  0.3066
  396MOL     C132391   7.184   0.222   1.916  0.0524  0.2180 -0.0981
  396MOL     O232392   7.328   0.224   1.926  0.4102 -0.7289 -0.3230
  396MOL     H332393   7.140   0.316   1.948 -1.2515 -0.0884 -0.9529
  396MOL     H432394   7.154   0.230   1.812 -1.0949  1.1866  0.2889
  396MOL     H532395   7.136   0.144   1.975  0.0534 -0.5315 -1.0806
  396MOL     C632396   7.386   0.335   1.863  0.3260  0.0576  0.1837
  396MOL     O732397   7.353   0.453   1.928  0.4664  0.4629  0.6403
  396MOL     H832398   7.354   0.344   1.759 -0.4390  0.8499  0.4824
  396MOL     H932399   7.495   0.332   1.870  0.3993  1.4115 -0.1044
  396MOL    C1032400   7.433   0.479   2.040  0.9717 -0.0815  0.7175
  396MOL    O1132401   7.565   0.511   2.012  0.0841 -0.2842 -0.1459
  396MOL    H1232402   7.411   0.405   2.117 -1.8876 -0.2685 -0.2124
  396MOL    H1332403   7.386   0.563   2.092 -0.3243  0.0306 -0.5925
  396MOL    C1432404   7.584   0.636   1.952  0.6121 -0.0300  0.5066
  396MOL    O1532405   7.559   0.737   2.044 -0.0617 -0.4469  0.3318
  396MOL    H1632406   7.522   0.651   1.863  1.0789  1.1270  0.3671
  396MOL    H1732407   7.689   0.647   1.927  1.0261 -1.1009  1.7336
  396MOL    C1832408   7.663   0.756   2.140 -0.4978  0.3683 -0.2425
  396MOL    O1932409   7.776   0.818   2.084 -0.3594  0.1330 -0.5950
  396MOL    H2032410   7.692   0.662   2.186 -0.9721  0.8983  1.1677
  396MOL    H2132411   7.633   0.826   2.218  0.0007  1.7997 -1.3142
  396MOL    C2232412   0.105   0.786   2.148 -0.2684 -0.2532 -0.4373
  396MOL    O2332413   0.099   0.836   2.281 -0.4597  0.3588 -0.0045
  396MOL    H2432414   0.190   0.823   2.090  0.1344 -1.5123 -0.6547
  396MOL    H2532415   0.114   0.678   2.150 -2.4662 -0.4699 -0.9078
  396MOL    C2632416   0.116   0.971   2.279  0.6684 -0.1255  0.9216
  396MOL    O2732417   0.243   1.007   2.231  0.2604  0.1994  0.5133
  396MOL    H2832418   0.108   1.009   2.380  0.9057  1.0085  0.5218
  396MOL    H2932419   0.031   1.012   2.223  1.1613  0.6409  0.7207
  396MOL    C3032420   0.240   1.132   2.168  0.1908 -0.4166  0.0394
  396MOL    O3132421   0.360   1.163   2.113 -0.0286 -0.5669 -0.1020
  396MOL    H3232422   0.223   1.214   2.238  0.4705 -0.6153  0.3457
  396MOL    H3332423   0.162   1.138   2.093 -0.1148 -0.7049  0.3320
  396MOL    C3432424   0.359   1.175   1.973  0.1186  0.5517 -0.0531
  396MOL    O3532425   0.269   1.272   1.923  0.5776  0.0509 -0.1074
  396MOL    H3632426   0.346   1.079   1.922 -0.2860 -0.2348  1.5089
  396MOL    H3732427   0.462   1.209   1.958  0.5537 -1.3454 -1.5461
  396MOL    C3832428   0.306   1.316   1.798  0.4934 -0.6339  0.2215
  396MOL    O3932429   0.428   1.384   1.801 -0.8176 -0.2692  0.3455
  396MOL    H4032430   0.234   1.384   1.753  0.5550  0.0561  1.1570
  396MOL    H4132431   0.324   1.237   1.725 -0.4809 -0.8262  0.1872
  396MOL    C4232432   0.420   1.510   1.846 -0.2868 -0.1594 -0.5002
  396MOL    O4332433   0.403   1.596   1.741  0.0414 -0.7857  0.7980
  396MOL    H4432434   0.520   1.537   1.879  0.1249 -0.1072 -1.7586
  396MOL    H4532435   0.346   1.516   1.925 -1.2210 -0.6811 -1.3156
  396MOL    C4632436   0.373   1.728   1.786 -1.2784 -0.2349 -0.5836
  396MOL    O4732437   0.270   1.736   1.879 -0.4448  0.0039  0.5179
  396MOL    H4832438   0.344   1.786   1.698  0.2668  0.1985 -0.8297
  396MOL    H4932439   0.458   1.776   1.834 -2.3796 -0.2190  1.4023
  396MOL    C5032440   0.145   1.702   1.824 -0.3907  0.2946 -0.5232
  396MOL    O5132441   0.105   1.815   1.749  0.3903  0.2954  0.2729
  396MOL    H5232442   0.075   1.692   1.907 -0.0544 -0.4397 -0.3218
  396MOL    H5332443   0.151   1.606   1.772 -2.8679  0.2557 -0.7740
  396MOL    C5432444   0.005   1.785   1.661 -0.0697  0.7339  0.4532
  396MOL    O5532445   7.733   1.901   1.620 -0.0248  0.5000 -0.6549
  396MOL    H5632446   7.714   1.726   1.714 -1.0735  1.5158 -0.0801
  396MOL    H5732447   0.044   1.711   1.590  1.3329 -0.7043  2.6357
  396MOL    C5832448   0.034   1.966   1.529  0.2746  0.5949 -0.1410
  396MOL    O5932449   0.039   1.915   1.403 -0.6387  0.1167  0.2603
  396MOL    H6032450   0.135   1.963   1.570  0.0518 -1.8625  0.2981
  396MOL    H6132451   7.781   2.069   1.532  1.9193  1.1880  0.4640
  396MOL    C6232452   7.693   1.924   1.349  0.7355 -0.1721  0.3453
  396MOL    O6332453   7.689   2.024   1.249 -0.1420  0.0788 -0.4249
  396MOL    H6432454   7.613   1.944   1.420  1.9859  4.0882  0.7084
  396MOL    H6532455   7.662   1.830   1.302 -1.2171 -0.0560  1.3773
  396MOL    C6632456   7.755   1.983   1.130  0.2266  0.1307 -0.0913
  396MOL    O6732457   7.686   1.874   1.071 -0.4574 -0.3276 -0.1752
  396MOL    H6832458   0.072   1.954   1.161  0.0997 -1.6037 -1.2663
  396MOL    H6932459   7.757   2.076   1.073  1.4501 -0.6807 -1.4026
  396MOL    C7032460   7.756   1.825   0.952  0.8960 -0.2179 -0.1698
  396MOL    O7132461   7.760   1.918   0.848 -0.4297 -0.3704 -0.4625
  396MOL    H7232462   7.708   1.738   0.907 -1.4063  0.0245  1.6640
  396MOL    H7332463   0.071   1.807   0.994  0.5490  0.3299  0.9122
  396MOL    C7432464   7.642   1.984   0.820  0.5555  0.8098 -0.7701
  396MOL    O7532465   7.664   2.069   0.716  0.0100 -1.0245 -0.0286
  396MOL    H7632466   7.592   2.027   0.906 -0.1958  0.4862 -1.0323
  396MOL    H7732467   7.568   1.914   0.781  0.4831 -0.6040  1.7976
  396MOL    C7832468   7.744   2.176   0.762 -0.3442  0.1878 -0.8517
  396MOL    O7932469   7.752   2.286   0.678 -0.4076  0.1428 -0.4905
  396MOL    H8032470   0.062   2.136   0.771 -0.7566 -0.2342  2.5168
  396MOL    H8132471   7.719   2.209   0.863  2.3658  0.3206 -0.1650
  396MOL    H8232472   7.669   2.331   0.681 -1.5816 -1.9684 -0.4724
  397MOL     C132473   4.453   3.025   1.060 -0.1954 -0.5121  0.3391
  397MOL     O232474   4.453   2.884   1.069  0.1681 -0.0482 -0.4142
  397MOL     H332475   4.534   3.066   1.001 -0.5763  0.3533  0.4168
  397MOL     H432476   4.366   3.058   1.003  1.8422  2.4359 -1.2120
  397MOL     H532477   4.447   3.071   1.158 -0.7547  1.2812 -0.5069
  397MOL     C632478   4.467   2.822   0.944 -0.0926 -0.6671 -0.5901
  397MOL     O732479   4.586   2.854   0.877 -0.0609 -0.2688 -0.8172
  397MOL     H832480   4.381   2.856   0.886 -0.6026  0.6527  0.9263
  397MOL     H932481   4.459   2.718   0.977 -0.1457 -0.3421  0.4411
  397MOL    C1032482   4.671   2.746   0.866 -0.7596 -0.8318  0.0582
  397MOL    O1132483   4.721   2.703   0.981  0.1542  0.2747 -0.0637
  397MOL    H1232484   4.756   2.767   0.801  1.7395  0.2237  3.4810
  397MOL    H1332485   4.619   2.672   0.807 -1.1229  0.0238 -0.7023
  397MOL    C1432486   4.817   2.786   1.037  0.2062  0.4209  0.6127
  397MOL    O1532487   4.942   2.772   0.975  0.4593 -0.2692 -0.1390
  397MOL    H1632488   4.823   2.742   1.136 -0.3643  1.6459  1.2063
  397MOL    H1732489   4.775   2.886   1.048 -0.6622 -0.2123  3.3525
  397MOL    C1832490   5.034   2.877   1.009  0.1181 -0.1131  0.5439
  397MOL    O1932491   4.997   2.991   0.950  0.4136  0.3884  0.3843
  397MOL    H2032492   5.131   2.838   0.980 -0.0799  0.6462 -1.2078
  397MOL    H2132493   5.048   2.875   1.117  1.2985 -1.8949  0.3705
  397MOL    C2232494   5.028   2.982   0.820  0.0332 -0.5505  0.3957
  397MOL    O2332495   5.162   2.981   0.786 -0.5726  0.3153 -0.3050
  397MOL    H2432496   4.989   3.075   0.778 -2.1436 -0.1306  3.2357
  397MOL    H2532497   4.977   2.892   0.784 -0.4055  0.5925 -1.9339
  397MOL    C2632498   5.227   3.100   0.827 -0.3013  0.2830 -0.3694
  397MOL    O2732499   5.171   3.210   0.763  0.1232 -0.2715  0.2944
  397MOL    H2832500   5.333   3.093   0.806 -0.0905  0.1627  0.7032
  397MOL    H2932501   5.208   3.115   0.933  0.5026 -0.9910 -0.0395
  397MOL    C3032502   5.236   3.327   0.789  0.1677 -0.3677 -0.7948
  397MOL    O3132503   5.218   3.369   0.924 -0.2750  0.3501  0.1546
  397MOL    H3232504   5.202   3.401   0.716 -0.2758  0.1851 -0.0377
  397MOL    H3332505   5.345   3.326   0.781  0.4632  1.6159  2.2707
  397MOL    C3432506   5.097   3.434   0.951  0.3745  0.2806 -1.0255
  397MOL    O3532507   5.109   3.565   0.902  0.2452  0.0310 -0.2636
  397MOL    H3632508   5.073   3.425   1.057  1.4193  0.0127 -0.8064
  397MOL    H3732509   5.018   3.381   0.898 -0.0936  0.8071 -0.8596
  397MOL    C3832510   5.005   3.645   0.954  0.2864  0.1702 -0.0210
  397MOL    O3932511   4.883   3.590   0.921 -0.4014  0.2990  0.2533
  397MOL    H4032512   5.031   3.743   0.913  0.6909  0.5224  1.0323
  397MOL    H4132513   5.002   3.660   1.062 -0.3998  1.8294 -0.2570
  397MOL    C4232514   4.790   3.680   0.878  0.1889  0.2568  0.1288
  397MOL    O4332515   4.820   3.711   0.745  0.5030 -0.6370 -0.3787
  397MOL    H4432516   4.797   3.777   0.927 -3.4648  0.7344 -0.1869
  397MOL    H4532517   4.696   3.626   0.871 -0.7452  2.1488 -2.7110
  397MOL    C4632518   4.800   3.606   0.655 -0.4715  0.5720  0.0781
  397MOL    O4732519   4.670   3.597   0.600  0.0984 -0.4029  0.2304
  397MOL    H4832520   4.819   3.506   0.694 -3.1663  0.3148  0.8022
  397MOL    H4932521   4.874   3.622   0.576  0.0249  2.2554  0.8772
  397MOL    C5032522   4.648   3.636   0.467  0.0976 -0.1303 -0.2145
  397MOL    O5132523   4.515   3.612   0.445 -0.2647 -0.3833 -0.5897
  397MOL    H5232524   4.715   3.582   0.400 -0.8621  0.1261 -1.3880
  397MOL    H5332525   4.663   3.742   0.449 -2.5095  0.3088 -0.0273
  397MOL    C5432526   4.467   3.635   0.312 -0.6404  0.5578  0.1828
  397MOL    O5532527   4.442   3.768   0.288 -0.2338  0.2756  0.2143
  397MOL    H5632528   4.379   3.572   0.297 -0.6759  0.9678 -1.3442
  397MOL    H5732529   4.539   3.596   0.241 -0.7999 -3.3584  1.9916
  397MOL    C5832530   4.338   3.817   0.370 -0.2474  0.6895 -0.7444
  397MOL    O5932531   4.220   3.757   0.349  0.1247  0.2050  0.9056
  397MOL    H6032532   4.327   3.918   0.332 -2.2145 -0.0784 -2.2987
  397MOL    H6132533   4.368   3.818   0.475  1.5088  0.9997 -1.2215
  397MOL    C6232534   4.108   3.827   0.402 -1.1048  0.2307  0.3926
  397MOL    O6332535   4.115   3.867   0.533 -0.5728  0.1477 -0.1585
  397MOL    H6432536   4.013   3.778   0.378 -0.0989 -1.8026  0.4925
  397MOL    H6532537   4.099   3.923   0.350 -0.6838 -1.1399 -2.2884
  397MOL    C6632538   4.114   3.767   0.623 -0.6224  0.3408 -0.4032
  397MOL    O6732539   4.126   3.823   0.751 -0.1270  0.4622  0.3488
  397MOL    H6832540   4.198   3.699   0.613 -1.5395 -1.1299  1.6386
  397MOL    H6932541   4.018   3.718   0.606 -1.6760  1.8014  1.2365
  397MOL    C7032542   4.257   3.851   0.785 -0.3037 -0.0610  0.5370
  397MOL    O7132543   4.322   3.727   0.800 -0.0853  0.6002 -0.2544
  397MOL    H7232544   4.246   3.895   0.884 -2.0023 -1.0281  0.7817
  397MOL    H7332545   4.302   3.921   0.714  0.9683 -2.7798 -1.4369
  397MOL    C7432546   4.460   3.736   0.774  0.1789  0.5888 -0.6176
  397MOL    O7532547   4.514   3.806   0.885 -0.3955  0.7500  0.8556
  397MOL    H7632548   4.476   3.793   0.682  2.6728 -0.1996 -0.7144
  397MOL    H7732549   4.508   3.638   0.769  1.0651  0.8956  1.3337
  397MOL    C7832550   4.484   3.741   1.005 -0.3648 -0.4716 -0.3799
  397MOL    O7932551   4.566   3.810   1.102 -0.0412  0.1532  0.2536
  397MOL    H8032552   4.497   3.633   1.006  0.4341 -0.3905 -1.3920
  397MOL    H8132553   4.381   3.753   1.040 -0.6412 -0.7638 -1.0833
  397MOL    H8232554   4.537   3.899   1.112  0.0787  0.1060  0.9872
  398MOL     C132555   7.157   0.016   6.403  0.0520  0.0248 -0.2370
  398MOL     O232556   7.145   0.090   6.524 -0.0339 -0.3904  0.2300
  398MOL     H332557   7.144   7.695   6.429 -0.1911  0.3924  1.1960
  398MOL     H432558   7.070   0.038   6.341 -0.2996  1.6179  0.7762
  398MOL     H532559   7.258   0.021   6.362 -0.3549 -2.1219 -1.5541
  398MOL     C632560   7.029   0.071   6.599 -1.0280 -0.3495 -0.2953
  398MOL     O732561   6.921   0.149   6.552  0.4941  0.2429  0.3686
  398MOL     H832562   7.042   0.096   6.704  0.8960 -1.0211 -0.3560
  398MOL     H932563   6.996   7.751   6.603 -0.5031 -0.4716  1.0915
  398MOL    C1032564   6.945   0.287   6.572  0.5575  0.2614  0.0231
  398MOL    O1132565   6.965   0.321   6.704 -1.0292  0.5014 -0.1265
  398MOL    H1232566   6.850   0.333   6.545  1.4291  0.7822 -2.2745
  398MOL    H1332567   7.018   0.323   6.500 -0.0981 -0.1396 -0.8481
  398MOL    C1432568   7.025   0.445   6.723  0.1864  0.1887 -0.0599
  398MOL    O1532569   7.152   0.463   6.659  0.6332  0.0306  0.2765
  398MOL    H1632570   7.028   0.471   6.829 -0.0631 -0.0439  0.0026
  398MOL    H1732571   6.949   0.512   6.684  0.2164 -0.1321 -0.6608
  398MOL    C1832572   7.257   0.419   6.742 -0.8219 -0.4961 -0.4498
  398MOL    O1932573   7.282   0.515   6.841  0.0235  0.3801  0.5790
  398MOL    H2032574   7.338   0.406   6.669 -0.4792  0.3635 -0.2181
  398MOL    H2132575   7.237   0.323   6.791  0.1461  0.1960  1.3366
  398MOL    C2232576   7.404   0.492   6.906  0.0831  0.0182  0.4572
  398MOL    O2332577   7.399   0.371   6.981  0.3439 -0.1567 -0.3002
  398MOL    H2432578   7.426   0.575   6.972  3.0366 -0.9076  0.7332
  398MOL    H2532579   7.482   0.486   6.830 -0.9418  1.1669 -0.6918
  398MOL    C2632580   7.357   0.391   7.115  0.3947  0.3084  0.1146
  398MOL    O2732581   7.354   0.277   7.190  0.0385  0.2294  0.4258
  398MOL    H2832582   7.257   0.430   7.103  1.1480  2.1393 -0.3913
  398MOL    H2932583   7.414   0.471   7.162 -1.0832 -0.1223  2.7584
  398MOL    C3032584   7.479   0.220   7.225 -0.0678 -0.0786  0.8137
  398MOL    O3132585   7.524   0.128   7.133  0.2404  0.1787 -0.2075
  398MOL    H3232586   7.453   0.173   7.320 -1.2390 -2.8804 -0.8448
  398MOL    H3332587   7.547   0.305   7.229 -0.6601  0.4289  0.2318
  398MOL    C3432588   7.641   0.072   7.177  0.3974 -0.4663 -1.1982
  398MOL    O3532589   7.617   7.752   7.260 -0.1241  0.2385  0.4147
  398MOL    H3632590   7.703   0.144   7.231  0.4692 -0.5363 -1.1858
  398MOL    H3732591   7.695   0.037   7.089  3.0875 -3.3247  1.4455
  398MOL    C3832592   7.741   7.686   7.295 -0.8625  0.2447  0.3621
  398MOL    O3932593   0.035   7.772   7.373 -0.2088 -0.2803 -0.4168
  398MOL    H4032594   0.010   7.656   7.205 -0.7842 -0.0176  0.4929
  398MOL    H4132595   7.707   7.594   7.344 -1.3293  0.4886  0.4976
  398MOL    C4232596   0.154   7.707   7.408 -0.4847 -0.8396  0.6419
  398MOL    O4332597   0.236   0.019   7.469  0.2550  0.1279 -0.3819
  398MOL    H4432598   0.211   7.667   7.325  0.3799 -1.3097  1.4637
  398MOL    H4532599   0.125   7.627   7.476  1.3339 -1.8643  0.2181
  398MOL    C4632600   0.256   0.133   7.390 -0.1378  0.9805 -1.3315
  398MOL    O4732601   0.375   0.191   7.428  0.3390 -0.0521 -0.3720
  398MOL    H4832602   0.163   0.188   7.402 -1.6015 -1.7642  0.6532
  398MOL    H4932603   0.275   0.098   7.289  4.7733 -0.4701 -0.0281
  398MOL    C5032604   0.383   0.232   7.557 -0.4379  0.3854 -0.0419
  398MOL    O5132605   0.298   0.339   7.591 -0.8084  0.8341  0.2362
  398MOL    H5232606   0.489   0.252   7.576 -0.5690  1.9787 -0.9704
  398MOL    H5332607   0.357   0.140   7.610  0.7611 -1.1340 -1.9808
  398MOL    C5432608   0.346   0.417   7.696  0.0496 -0.2993  0.5695
  398MOL    O5532609   0.259   0.515   7.728  0.7027  0.3912 -0.7245
  398MOL    H5632610   0.443   0.452   7.661 -0.8768  1.2634 -0.4907
  398MOL    H5732611   0.362   0.357   0.002  0.1987 -0.4846  0.4166
  398MOL    C5832612   0.158   0.455   0.025 -0.2164 -0.4016 -0.4467
  398MOL    O5932613   0.179   0.506   0.157  0.0601 -0.5283 -0.4591
  398MOL    H6032614   0.146   0.347   0.033 -0.3977 -0.1138  4.9621
  398MOL    H6132615   0.060   0.493   7.781 -1.4982 -3.1773  0.1417
  398MOL    C6232616   0.067   0.554   0.224 -0.1450 -0.1134 -0.5276
  398MOL    O6332617   7.760   0.455   0.244 -0.0616 -0.4177 -0.2609
  398MOL    H6432618   0.017   0.633   0.168 -1.3527  0.4153  1.2418
  398MOL    H6532619   0.103   0.600   0.316 -2.1932 -0.2665  0.3749
  398MOL    C6632620   0.023   0.365   0.337  0.9286 -0.6919  0.2359
  398MOL    O6732621   7.704   0.275   0.376 -0.0912  0.2939 -0.3449
  398MOL    H6832622   0.044   0.415   0.432 -0.5204  1.7780 -0.7178
  398MOL    H6932623   0.115   0.311   0.313 -0.6208 -2.7093 -1.3446
  398MOL    C7032624   7.657   0.194   0.270 -0.1147  0.3526 -0.1062
  398MOL    O7132625   7.732   0.082   0.237 -0.1388 -0.1336 -0.0506
  398MOL    H7232626   7.646   0.258   0.182 -1.8542 -1.6241 -1.3618
  398MOL    H7332627   7.553   0.174   0.297  0.0702 -0.4269  0.0339
  398MOL    C7432628   7.729   7.773   0.339 -0.4045 -0.0843  0.2159
  398MOL    O7532629   7.612   7.693   0.334 -0.0826 -0.0631  0.5873
  398MOL    H7632630   7.719   0.036   0.437 -1.2026 -1.6883  0.9108
  398MOL    H7732631   0.039   7.718   0.335 -0.3785  0.0299 -0.8067
  398MOL    C7832632   7.634   7.599   0.234  0.7807  0.2129  0.2074
  398MOL    O7932633   7.508   7.535   0.203  0.5921 -0.1393  0.0250
  398MOL    H8032634   7.708   7.530   0.274  1.2287  0.3166 -0.4269
  398MOL    H8132635   7.669   7.640   0.139  0.3910  0.8018  0.3118
  398MOL    H8232636   7.484   7.554   0.113 -1.6238  2.1221  1.0146
  399MOL     C132637   1.118   6.390   1.134  0.1337 -0.6774 -0.1268
  399MOL     O232638   1.151   6.369   0.993  0.6499  0.6256 -0.3233
  399MOL     H332639   1.009   6.385   1.143  0.3064 -1.7222  1.4926
  399MOL     H432640   1.160   6.315   1.201  1.2283 -2.1590 -2.4343
  399MOL     H532641   1.150   6.490   1.164 -0.8145 -1.3461  3.3858
  399MOL     C632642   1.281   6.324   0.966  0.1877 -0.3968 -0.0218
  399MOL     O732643   1.318   6.215   1.041  0.4633  0.1739  0.2939
  399MOL     H832644   1.355   6.403   0.977 -0.5522 -0.0437  2.9959
  399MOL     H932645   1.277   6.294   0.862 -0.1648 -2.5120  0.5715
  399MOL    C1032646   1.434   6.153   0.994 -0.2775  0.4231 -0.8533
  399MOL    O1132647   1.552   6.221   1.005 -0.5796 -0.5346 -1.1380
  399MOL    H1232648   1.412   6.129   0.890  1.3475 -2.1557 -0.6385
  399MOL    H1332649   1.433   6.055   1.041  0.0948  1.3994  1.2429
  399MOL    C1432650   1.604   6.215   1.138 -0.5725 -0.6679  0.2062
  399MOL    O1532651   1.744   6.242   1.143  0.3650 -0.2685 -0.0380
  399MOL    H1632652   1.572   6.132   1.200 -0.7333  0.1779  1.2727
  399MOL    H1732653   1.554   6.298   1.188 -0.2784 -1.7967  2.4211
  399MOL    C1832654   1.774   6.330   1.248 -0.0530 -0.0600  0.4967
  399MOL    O1932655   1.712   6.285   1.365  0.5543 -0.0351 -0.8142
  399MOL    H2032656   1.714   6.419   1.229  0.1304 -0.1404 -0.4884
  399MOL    H2132657   1.874   6.369   1.264  0.0994  0.3326 -1.3074
  399MOL    C2232658   1.776   6.178   1.424  0.0302 -0.5103  0.1966
  399MOL    O2332659   1.885   6.218   1.504  0.1948 -0.1442 -0.9731
  399MOL    H2432660   1.827   6.121   1.347  0.1220 -2.3278  1.5643
  399MOL    H2532661   1.700   6.111   1.463  0.5522  0.8588  3.7224
  399MOL    C2632662   1.844   6.273   1.622 -0.2587 -0.9170 -0.4827
  399MOL    O2732663   1.827   6.186   1.734  0.0524  0.5363 -0.3314
  399MOL    H2832664   1.757   6.338   1.613  0.6441  0.5007  0.8862
  399MOL    H2932665   1.917   6.349   1.648  0.0676 -1.0221 -1.0844
  399MOL    C3032666   1.944   6.110   1.766 -0.0978 -0.2179 -0.1099
  399MOL    O3132667   1.920   6.032   1.882 -0.6724  1.0677 -0.1225
  399MOL    H3232668   2.035   6.168   1.780  1.3531 -2.2170 -1.0467
  399MOL    H3332669   1.971   6.033   1.694  2.6470  0.4995  0.1291
  399MOL    C3432670   1.924   6.114   1.998 -0.2473  0.1473 -0.1410
  399MOL    O3532671   2.056   6.131   2.038 -0.2341  0.4350 -0.1719
  399MOL    H3632672   1.872   6.063   2.080 -0.7238  1.3107  0.2912
  399MOL    H3732673   1.874   6.208   1.979 -2.6279 -1.0110  0.2373
  399MOL    C3832674   2.113   6.017   2.090 -0.5584 -0.6017 -0.0205
  399MOL    O3932675   2.254   6.044   2.109  0.1381 -0.1881  0.2964
  399MOL    H4032676   2.106   5.931   2.024 -1.0973 -0.9240  0.4520
  399MOL    H4132677   2.068   5.985   2.184  0.8279  0.9268  1.1998
  399MOL    C4232678   2.290   6.098   2.232  0.3279 -0.4824  0.2393
  399MOL    O4332679   2.243   6.015   2.336 -0.0659 -0.0918 -0.5454
  399MOL    H4432680   2.233   6.190   2.246 -0.9452 -0.8040 -2.5409
  399MOL    H4532681   2.396   6.123   2.237  0.6639 -1.1105 -2.9904
  399MOL    C4632682   2.324   5.900   2.335 -0.2272  0.4964 -0.6578
  399MOL    O4732683   2.308   5.827   2.457 -0.2956  0.2851  0.1233
  399MOL    H4832684   2.429   5.927   2.328 -0.2504  0.4104 -1.4191
  399MOL    H4932685   2.302   5.843   2.245 -1.4479 -0.8244  0.4499
  399MOL    C5032686   2.391   5.883   2.562 -0.4221  0.1150 -1.0091
  399MOL    O5132687   2.523   5.840   2.543  0.2032  0.4472  0.3147
  399MOL    H5232688   2.354   5.832   2.651  1.7168  1.9751  0.9931
  399MOL    H5332689   2.376   5.991   2.559 -1.7640  0.0061  0.9063
  399MOL    C5432690   2.546   5.704   2.578  0.1911  0.2865  0.1107
  399MOL    O5532691   2.555   5.680   2.718 -0.2943  0.3468 -0.0799
  399MOL    H5632692   2.641   5.682   2.529  0.3656  2.4187 -0.5737
  399MOL    H5732693   2.469   5.639   2.536  0.9211 -1.4047  1.3447
  399MOL    C5832694   2.671   5.721   2.777  0.6520  0.5063 -0.2888
  399MOL    O5932695   2.777   5.641   2.750 -0.4663 -0.1424 -0.5715
  399MOL    H6032696   2.650   5.726   2.884 -1.3149 -1.1240 -0.5742
  399MOL    H6132697   2.689   5.822   2.739  0.6537  0.3840 -0.6116
  399MOL    C6232698   2.898   5.681   2.806  0.0620 -0.2607  0.4632
  399MOL    O6332699   2.986   5.748   2.722  0.5005 -0.4381 -0.4028
  399MOL    H6432700   2.942   5.594   2.854  2.1793  0.9917  0.8564
  399MOL    H6532701   2.885   5.756   2.884 -0.3447  0.4402 -0.2673
  399MOL    C6632702   3.112   5.775   2.794  0.3681 -0.4018 -1.0002
  399MOL    O6732703   3.216   5.812   2.711 -0.0386  0.2789  0.3576
  399MOL    H6832704   3.137   5.691   2.859 -1.8667 -0.6710 -0.4458
  399MOL    H6932705   3.090   5.862   2.855  1.0321 -0.1838 -1.0758
  399MOL    C7032706   3.264   5.707   2.635 -0.1003 -0.5949  0.2172
  399MOL    O7132707   3.329   5.604   2.705  0.2414  0.0002  0.0966
  399MOL    H7232708   3.328   5.756   2.562 -0.8469  2.3572  1.4892
  399MOL    H7332709   3.181   5.665   2.578 -0.0566 -2.7149  1.6230
  399MOL    C7432710   3.458   5.633   2.745  0.2700  0.8976 -0.1620
  399MOL    O7532711   3.542   5.653   2.638  0.0917 -0.6083  0.9411
  399MOL    H7632712   3.498   5.552   2.806  0.3159  1.8763  1.1232
  399MOL    H7732713   3.465   5.718   2.813  0.0527 -0.7058  1.9074
  399MOL    C7832714   3.566   5.538   2.564  0.6070  0.5986  0.4244
  399MOL    O7932715   3.632   5.561   2.445 -0.1836  0.3234 -0.0533
  399MOL    H8032716   3.477   5.480   2.540  3.6841 -3.7003 -1.2370
  399MOL    H8132717   3.616   5.465   2.627  0.4000 -0.2271 -0.3600
  399MOL    H8232718   3.570   5.603   2.387  1.4043  2.3430 -0.3816
  400MOL     C132719   6.091   1.725   1.358 -0.6515 -0.2600 -0.4145
  400MOL     O232720   6.173   1.717   1.237 -0.6303 -0.5811 -0.4606
  400MOL     H332721   5.987   1.727   1.328  0.0163  2.3571 -2.7317
  400MOL     H432722   6.103   1.634   1.418  1.0510 -1.1448 -2.0276
  400MOL     H532723   6.110   1.816   1.414  0.2110  0.6591 -2.1623
  400MOL     C632724   6.198   1.846   1.185  0.2659  0.2504  0.2354
  400MOL     O732725   6.291   1.925   1.248  0.3093  0.2180 -0.4609
  400MOL     H832726   6.112   1.913   1.185 -0.8256 -1.1242  1.1241
  400MOL     H932727   6.215   1.831   1.079 -0.3787 -1.0092  0.2976
  400MOL    C1032728   6.416   1.917   1.196  0.3337 -0.4464 -0.4083
  400MOL    O1132729   6.422   2.010   1.087 -0.2709 -0.6949 -0.0714
  400MOL    H1232730   6.459   1.818   1.180 -1.3812 -1.2605  0.0398
  400MOL    H1332731   6.472   1.957   1.280  1.2576 -0.0359 -1.2054
  400MOL    C1432732   6.549   2.059   1.068  0.1630  0.3769 -0.2905
  400MOL    O1532733   6.578   2.159   1.155 -0.4278  0.4794 -0.2405
  400MOL    H1632734   6.565   2.098   0.967 -1.0477  3.8745  0.7844
  400MOL    H1732735   6.622   1.978   1.074 -1.8056 -1.2626  2.6196
  400MOL    C1832736   6.697   2.231   1.127  0.4788 -0.6815 -0.3814
  400MOL    O1932737   6.678   2.321   1.019  0.0697  0.2230 -0.2930
  400MOL    H2032738   6.781   2.162   1.120  2.8059  1.8535  1.2609
  400MOL    H2132739   6.730   2.290   1.213  0.1196  0.9260 -1.3282
  400MOL    C2232740   6.592   2.421   1.056 -0.0458 -0.1874  0.1421
  400MOL    O2332741   6.634   2.497   1.168 -0.2376 -0.1700  0.2604
  400MOL    H2432742   6.495   2.376   1.078 -0.4347  0.2432 -0.6983
  400MOL    H2532743   6.571   2.478   0.966  0.8968  0.9061  0.5956
  400MOL    C2632744   6.735   2.592   1.138  0.2266  0.1633 -0.0181
  400MOL    O2732745   6.684   2.701   1.068 -0.4881 -0.4574 -0.4385
  400MOL    H2832746   6.816   2.540   1.088 -0.9708 -1.5282 -0.2618
  400MOL    H2932747   6.767   2.623   1.237 -0.2492 -1.4032  0.6466
  400MOL    C3032748   6.771   2.809   1.063 -0.5113  0.1231  0.0195
  400MOL    O3132749   6.867   2.791   0.966  0.1075 -0.1705  0.0398
  400MOL    H3232750   6.819   2.829   1.158  1.6348  1.5377 -1.3190
  400MOL    H3332751   6.711   2.898   1.044 -0.4029  0.2018  0.0405
  400MOL    C3432752   6.832   2.829   0.840 -0.5252 -0.4354  0.2357
  400MOL    O3532753   6.791   2.960   0.813  1.3612  0.0102  0.3748
  400MOL    H3632754   6.752   2.758   0.817  0.7860 -1.5834 -0.9097
  400MOL    H3732755   6.917   2.814   0.772 -0.4165 -2.5047  0.7951
  400MOL    C3832756   6.724   2.973   0.691 -0.5902 -0.8079 -0.5110
  400MOL    O3932757   6.590   2.993   0.702  0.1378 -0.4453  0.0340
  400MOL    H4032758   6.752   2.898   0.617  2.7761 -0.5138  0.3468
  400MOL    H4132759   6.774   3.060   0.648 -0.5726 -0.0045  1.0917
  400MOL    C4232760   6.530   2.990   0.579  0.1494  0.0805 -0.0190
  400MOL    O4332761   6.567   3.094   0.489  0.0582  0.0194  0.0872
  400MOL    H4432762   6.427   3.003   0.609 -0.0556 -0.4862 -0.4705
  400MOL    H4532763   6.538   2.891   0.534  0.6611 -0.2060  0.6936
  400MOL    C4632764   6.543   3.221   0.537  0.1380 -0.1932  0.2073
  400MOL    O4732765   6.599   3.313   0.446 -0.6038 -0.1519  0.1029
  400MOL    H4832766   6.588   3.241   0.635  0.8791 -0.9927  0.0354
  400MOL    H4932767   6.434   3.221   0.535  0.1525 -0.6908 -3.3434
  400MOL    C5032768   6.739   3.322   0.449 -0.6380 -0.2864  0.0947
  400MOL    O5132769   6.788   3.372   0.570  0.3350 -0.3243 -0.2813
  400MOL    H5232770   6.778   3.369   0.359  0.1661 -0.4668  0.3424
  400MOL    H5332771   6.766   3.217   0.438 -1.9197 -0.7250  0.9658
  400MOL    C5432772   6.792   3.510   0.572 -0.3178 -0.5945 -0.2599
  400MOL    O5532773   6.897   3.564   0.508  0.2455  0.3112  0.1830
  400MOL    H5632774   6.786   3.535   0.678 -0.6361 -0.0519 -0.4014
  400MOL    H5732775   6.698   3.552   0.535 -0.3403  1.3659  1.8971
  400MOL    C5832776   7.015   3.567   0.584  0.2768 -0.1946  0.0239
  400MOL    O5932777   7.012   3.662   0.689  0.2773 -0.6280  0.4211
  400MOL    H6032778   7.084   3.611   0.512  0.1729 -0.1289 -0.0345
  400MOL    H6132779   7.050   3.468   0.613 -0.5899 -0.4947  0.0660
  400MOL    C6232780   7.135   3.704   0.736 -0.5873  0.7874 -0.5742
  400MOL    O6332781   7.204   3.605   0.813 -0.0251  0.5417  0.1181
  400MOL    H6432782   7.116   3.791   0.800  1.3368  0.6568  0.2070
  400MOL    H6532783   7.205   3.738   0.660 -0.8616 -0.2110 -1.2866
  400MOL    C6632784   7.151   3.592   0.947 -0.0424  0.0355 -0.4547
  400MOL    O6732785   7.223   3.675   1.039 -0.1550  0.6803  0.2745
  400MOL    H6832786   7.163   3.486   0.971  1.4992 -0.0455 -1.5538
  400MOL    H6932787   7.045   3.619   0.952  0.1901  1.1980 -1.6153
  400MOL    C7032788   7.362   3.654   1.026  0.2546 -0.2358 -0.3603
  400MOL    O7132789   7.387   3.526   1.069 -0.2074  0.5206 -0.4935
  400MOL    H7232790   7.417   3.730   1.082 -0.1352  0.0758 -0.3989
  400MOL    H7332791   7.386   3.674   0.922 -1.5639 -0.5585 -0.8480
  400MOL    C7432792   7.506   3.486   1.014 -0.1138  0.4664 -0.0427
  400MOL    O7532793   7.615   3.550   1.083  0.0389  0.0286 -0.2776
  400MOL    H7632794   7.522   3.500   0.907  2.5448  2.9564  0.6230
  400MOL    H7732795   7.511   3.378   1.032 -1.7993  0.3185 -0.4295
  400MOL    C7832796   7.612   3.531   1.221 -0.2139  1.0381 -0.5377
  400MOL    O7932797   7.729   3.582   1.285 -0.2599 -0.3045  0.4885
  400MOL    H8032798   7.593   3.428   1.248 -1.6143  0.4918 -3.4640
  400MOL    H8132799   7.528   3.588   1.258 -1.2841  0.1779 -1.6087
  400MOL    H8232800   0.015   3.521   1.266  1.4909  1.6014  0.6354
  401MOL     C132801   5.750   5.604   4.922  0.5521  0.4313  0.4231
  401MOL     O232802   5.779   5.626   5.064  1.1119 -0.0376 -0.2112
  401MOL     H332803   5.828   5.551   4.867  0.4088  0.8716 -0.2057
  401MOL     H432804   5.658   5.547   4.917 -0.8226  2.6437 -0.2058
  401MOL     H532805   5.735   5.697   4.867  0.1323  1.5741  2.4007
  401MOL     C632806   5.844   5.746   5.085  0.4231 -0.5797  0.0155
  401MOL     O732807   5.766   5.853   5.043 -0.7356  0.0692 -0.1769
  401MOL     H832808   5.935   5.732   5.028  0.5656 -0.3760  0.1963
  401MOL     H932809   5.874   5.756   5.189 -0.7701 -0.7655  0.3834
  401MOL    C1032810   5.826   5.979   5.064  0.2196  0.7303 -0.1911
  401MOL    O1132811   5.924   6.016   4.967  0.3447  0.7006  0.1456
  401MOL    H1232812   5.878   5.978   5.160  1.9862  0.9543 -1.1367
  401MOL    H1332813   5.738   6.044   5.059  0.2670  0.6029 -4.1370
  401MOL    C1432814   5.882   6.019   4.837 -0.2576 -0.2715  0.4560
  401MOL    O1532815   5.804   6.135   4.808  0.2587 -0.5274 -0.3423
  401MOL    H1632816   5.830   5.926   4.811 -0.1667  0.3482 -2.1139
  401MOL    H1732817   5.970   6.018   4.772 -0.2074  2.4325  0.4377
  401MOL    C1832818   5.882   6.223   4.724  0.1926  0.6056 -0.1345
  401MOL    O1932819   5.859   6.195   4.588 -0.5660  0.0671 -0.1859
  401MOL    H2032820   5.987   6.230   4.749  0.5160  0.7689 -1.4765
  401MOL    H2132821   5.835   6.319   4.745 -3.2915 -1.4246  1.8423
  401MOL    C2232822   5.739   6.250   4.542 -0.8946  0.6887 -0.3019
  401MOL    O2332823   5.747   6.394   4.537  0.1742 -0.5654  0.0216
  401MOL    H2432824   5.658   6.207   4.601 -0.7485  1.6675  0.6231
  401MOL    H2532825   5.742   6.202   4.444  1.5586 -2.3690  1.1880
  401MOL    C2632826   5.799   6.438   4.416 -1.2121  0.3102 -0.2649
  401MOL    O2732827   5.785   6.573   4.395  0.7490 -0.4329  0.5206
  401MOL    H2832828   5.745   6.381   4.340  1.3941 -0.1289 -1.8742
  401MOL    H2932829   5.902   6.402   4.410 -1.3786 -0.3604  0.8359
  401MOL    C3032830   5.652   6.603   4.374  0.3027  0.9560  0.8364
  401MOL    O3132831   5.604   6.558   4.249 -0.5464 -0.4246  0.0255
  401MOL    H3232832   5.620   6.706   4.392 -0.1038  1.0313 -0.2580
  401MOL    H3332833   5.581   6.558   4.444  0.7829 -0.0485  0.6791
  401MOL    C3432834   5.659   6.633   4.147 -0.0740 -0.5039 -0.0899
  401MOL    O3532835   5.712   6.564   4.036  0.1317  0.0712  0.3836
  401MOL    H3632836   5.745   6.694   4.173 -1.1083  0.3166  1.5091
  401MOL    H3732837   5.584   6.704   4.112  1.1895  0.5250 -0.7132
  401MOL    C3832838   5.614   6.509   3.952 -0.0097 -0.4343 -0.3989
  401MOL    O3932839   5.538   6.600   3.872  0.7386 -0.2151 -0.2315
  401MOL    H4032840   5.536   6.457   4.008 -0.0367 -2.1086 -1.9633
  401MOL    H4132841   5.652   6.442   3.875  0.9811  0.1760 -0.4566
  401MOL    C4232842   5.595   6.642   3.748  0.2787  0.1859 -0.4900
  401MOL    O4332843   5.515   6.748   3.703 -0.5599  0.2225 -0.2114
  401MOL    H4432844   5.589   6.568   3.669  0.0350  1.3865 -1.6066
  401MOL    H4532845   5.694   6.681   3.770  0.0767 -0.2765  1.3961
  401MOL    C4632846   5.520   6.776   3.568  0.8434 -0.1811  0.5612
  401MOL    O4732847   5.647   6.815   3.527  0.7568  0.3600  0.6742
  401MOL    H4832848   5.451   6.856   3.540 -1.0969 -1.2453  2.2325
  401MOL    H4932849   5.486   6.690   3.511  0.9407 -0.8250  1.4773
  401MOL    C5032850   5.667   6.949   3.569  0.2897  0.3231  0.6080
  401MOL    O5132851   5.621   7.042   3.471 -0.6465 -0.5400 -0.1144
  401MOL    H5232852   5.773   6.967   3.583  1.0398 -3.5430  0.6640
  401MOL    H5332853   5.606   6.961   3.658 -2.1432  3.1709 -1.3614
  401MOL    C5432854   5.690   7.035   3.351 -0.6956  0.2088  0.3378
  401MOL    O5532855   5.818   7.094   3.352  0.0715  0.4882 -0.5199
  401MOL    H5632856   5.634   7.092   3.277  2.0449  0.1242 -1.8626
  401MOL    H5732857   5.701   6.931   3.322  0.4671  0.4307 -0.0731
  401MOL    C5832858   5.877   7.104   3.225 -0.2732  0.3398 -0.0103
  401MOL    O5932859   5.902   6.982   3.160 -0.3459 -1.5884  0.6076
  401MOL    H6032860   5.976   7.148   3.241  0.5454 -1.8943  1.2932
  401MOL    H6132861   5.813   7.168   3.164  2.1622  0.9700 -1.9586
  401MOL    C6232862   6.011   6.913   3.215  0.4343  0.0625  0.5839
  401MOL    O6332863   6.138   6.952   3.171  0.3138  0.2247  0.2667
  401MOL    H6432864   5.998   6.807   3.192  2.8638 -0.1566  0.0486
  401MOL    H6532865   6.012   6.906   3.324  0.9414  0.0547  0.5817
  401MOL    C6632866   6.164   6.943   3.028 -0.1742 -0.2589 -0.0805
  401MOL    O6732867   6.186   6.809   2.990 -0.4176 -0.3286  0.5529
  401MOL    H6832868   6.264   6.987   3.021  1.2662 -3.0157  1.9396
  401MOL    H6932869   6.088   6.989   2.966 -0.0460 -0.2544 -0.2333
  401MOL    C7032870   6.302   6.757   3.050  0.0904  0.3382  0.9890
  401MOL    O7132871   6.427   6.795   2.999  0.4686 -0.4674  0.0596
  401MOL    H7232872   6.300   6.648   3.039  3.7080  0.4492 -1.5627
  401MOL    H7332873   6.304   6.779   3.157 -3.7051 -1.4934  1.5381
  401MOL    C7432874   6.448   6.736   2.875  0.3497  0.0494  0.8188
  401MOL    O7532875   6.453   6.591   2.880 -1.0035 -0.4790  0.7515
  401MOL    H7632876   6.538   6.781   2.833  0.5676  0.9917  2.2684
  401MOL    H7732877   6.373   6.776   2.807 -0.2853 -1.7539  0.4246
  401MOL    C7832878   6.572   6.541   2.939  0.1411 -0.4358  0.7243
  401MOL    O7932879   6.564   6.529   3.078 -0.3302  0.0799  0.1695
  401MOL    H8032880   6.665   6.595   2.921 -0.5858  0.6720  0.2356
  401MOL    H8132881   6.590   6.441   2.898  1.9097  0.1015  0.1373
  401MOL    H8232882   6.528   6.442   3.088 -0.9148  0.2979 -0.0183
  402MOL     C132883   7.219   6.649   5.875  0.1365  0.2566  0.5150
  402MOL     O232884   7.252   6.641   5.741 -0.6505  0.5833  0.4140
  402MOL     H332885   7.304   6.658   5.942  1.9256 -1.5628 -1.4385
  402MOL     H432886   7.164   6.743   5.888  0.5266  0.2921  1.9212
  402MOL     H532887   7.148   6.571   5.902  2.4008 -1.5531  1.3789
  402MOL     C632888   7.318   6.522   5.708 -0.6103 -0.0442 -0.3834
  402MOL     O732889   7.457   6.550   5.698 -0.1886  0.4460  0.6105
  402MOL     H832890   7.280   6.522   5.606 -0.8051 -0.0671 -0.3120
  402MOL     H932891   7.281   6.437   5.766 -0.7792  0.2884  0.0029
  402MOL    C1032892   7.495   6.602   5.577 -0.5585  0.6508  0.4704
  402MOL    O1132893   7.479   6.512   5.473  0.2997  0.1744 -0.3628
  402MOL    H1232894   7.598   6.635   5.583 -0.3427  0.0307  0.1720
  402MOL    H1332895   7.425   6.685   5.569 -0.6203  0.7304  1.7779
  402MOL    C1432896   7.560   6.399   5.475 -0.3554  0.2658 -0.0446
  402MOL    O1532897   7.692   6.420   5.428  0.2876 -0.3013 -0.4261
  402MOL    H1632898   7.516   6.319   5.417  0.3427  1.7842 -2.7640
  402MOL    H1732899   7.567   6.348   5.571  1.4683  1.1199  0.3097
  402MOL    C1832900   7.706   6.469   5.296 -0.3277  0.3606  0.0082
  402MOL    O1932901   7.644   6.394   5.198  0.1633  0.3429 -0.3556
  402MOL    H2032902   0.029   6.464   5.272 -0.8192  0.4583 -2.3285
  402MOL    H2132903   7.673   6.573   5.297  1.0648  0.8026  0.8790
  402MOL    C2232904   7.699   6.273   5.180  0.1452  0.3392 -0.4348
  402MOL    O2332905   0.028   6.289   5.103  0.4780 -0.0304 -0.4446
  402MOL    H2432906   7.624   6.220   5.121  1.3098 -1.7244 -0.1268
  402MOL    H2532907   7.713   6.219   5.274 -0.8573  0.7586 -0.0448
  402MOL    C2632908   0.118   6.177   5.125 -0.3592 -0.5686  0.2490
  402MOL    O2732909   0.065   6.059   5.077  0.7905 -0.8432 -0.7081
  402MOL    H2832910   0.150   6.174   5.229  0.3545 -0.7523  0.0268
  402MOL    H2932911   0.203   6.195   5.059 -1.1370 -1.3023 -0.9771
  402MOL    C3032912   0.043   5.952   5.167 -0.7089  0.2866 -0.3044
  402MOL    O3132913   0.154   5.912   5.239 -0.0435  0.1380 -0.0091
  402MOL    H3232914   0.005   5.866   5.112  1.0588  0.7755 -2.3752
  402MOL    H3332915   7.756   5.980   5.245  0.4190 -0.1214  0.8889
  402MOL    C3432916   0.238   5.816   5.183  0.2711 -0.2707 -0.5588
  402MOL    O3532917   0.177   5.694   5.190  0.3300 -0.4420  0.5639
  402MOL    H3632918   0.326   5.812   5.247 -0.4374  0.4139  0.4680
  402MOL    H3732919   0.271   5.832   5.080  0.4324  0.0399 -0.4582
  402MOL    C3832920   0.169   5.632   5.312 -0.3628 -0.1649 -0.2707
  402MOL    O3932921   0.280   5.561   5.347  0.3726  0.0481 -0.0652
  402MOL    H4032922   0.075   5.578   5.309  0.3741 -1.5440  0.8231
  402MOL    H4132923   0.166   5.711   5.387 -0.4620 -0.5886  0.1707
  402MOL    C4232924   0.261   5.425   5.320 -0.3180  0.8266  0.4623
  402MOL    O4332925   0.374   5.348   5.345 -0.0873 -0.0268 -0.0286
  402MOL    H4432926   0.238   5.399   5.217  0.1206 -0.2558  0.6270
  402MOL    H4532927   0.178   5.384   5.379 -0.3286  0.5157  0.2331
  402MOL    C4632928   0.384   5.319   5.480  0.8919  0.3872  0.0661
  402MOL    O4732929   0.314   5.200   5.507 -0.3565  0.0803  0.2266
  402MOL    H4832930   0.339   5.397   5.543  0.1122  0.6256 -0.7775
  402MOL    H4932931   0.488   5.299   5.503  1.2349  1.5687 -0.4197
  402MOL    C5032932   0.336   5.146   5.627 -0.3526  0.4999 -0.4553
  402MOL    O5132933   0.304   5.239   5.723  0.0010 -0.8934 -0.4176
  402MOL    H5232934   0.442   5.130   5.642 -0.1965  1.1557 -0.8484
  402MOL    H5332935   0.293   5.048   5.648  0.7689  0.2883  0.9681
  402MOL    C5432936   0.304   5.192   5.851  0.1319 -0.2503  0.2458
  402MOL    O5532937   0.432   5.182   5.900 -0.1142 -0.2348  0.7070
  402MOL    H5632938   0.273   5.088   5.851 -2.0137  0.3647  0.9174
  402MOL    H5732939   0.229   5.251   5.904  0.6080 -0.7601  1.5166
  402MOL    C5832940   0.486   5.311   5.917  0.5021 -0.1955 -0.0304
  402MOL    O5932941   0.412   5.392   6.010  0.4715  0.4203  0.0077
  402MOL    H6032942   0.500   5.362   5.822  0.8291 -0.9682 -0.3977
  402MOL    H6132943   0.582   5.303   5.968  1.0147  0.6961 -0.8375
  402MOL    C6232944   0.431   5.358   6.145  0.1926  0.3637 -0.2069
  402MOL    O6332945   0.546   5.416   6.192 -0.2348  0.4966  0.7416
  402MOL    H6432946   0.445   5.250   6.151  0.7680  0.4691  0.3919
  402MOL    H6532947   0.342   5.397   6.195  0.5012  0.4248  0.2966
  402MOL    C6632948   0.529   5.553   6.205  0.0526 -0.4308  0.3166
  402MOL    O6732949   0.631   5.600   6.287  0.1644 -0.0411 -0.6732
  402MOL    H6832950   0.428   5.584   6.232 -0.3913  0.2728 -2.0447
  402MOL    H6932951   0.560   5.597   6.110 -0.8887  0.4258  0.4063
  402MOL    C7032952   0.615   5.567   6.419  0.3051  0.2947 -0.8706
  402MOL    O7132953   0.512   5.637   6.471  0.3982  0.6723  0.1800
  402MOL    H7232954   0.708   5.594   6.470  0.4214 -0.6339 -0.5736
  402MOL    H7332955   0.595   5.462   6.441  0.6144  0.8074  2.1746
  402MOL    C7432956   0.541   5.769   6.495  0.7592  0.4448  0.1560
  402MOL    O7532957   0.627   5.789   6.608 -0.1152 -0.6065  0.0380
  402MOL    H7632958   0.449   5.826   6.502  0.8770  0.5607  0.8239
  402MOL    H7732959   0.596   5.807   6.409 -0.3730 -1.9243 -1.6660
  402MOL    C7832960   0.561   5.788   6.728 -0.7755  0.4215  0.3935
  402MOL    O7932961   0.658   5.799   6.827 -0.0110  0.1013 -0.2296
  402MOL    H8032962   0.516   5.689   6.734 -1.0652  0.3346 -2.6353
  402MOL    H8132963   0.479   5.856   6.749 -0.8137  0.7318 -0.7766
  402MOL    H8232964   0.649   5.725   6.885 -0.2118  0.6577  0.4566
  403MOL     C132965   5.650   2.174   5.210 -0.4744  0.2550  0.4606
  403MOL     O232966   5.558   2.212   5.308  0.5370  0.3569 -0.1993
  403MOL     H332967   5.724   2.118   5.266 -0.4837  1.6833  1.9283
  403MOL     H432968   5.601   2.107   5.138  1.4036  1.1426 -1.6992
  403MOL     H532969   5.699   2.257   5.159 -1.2550 -0.7935 -2.1334
  403MOL     C632970   5.623   2.275   5.410  0.1043 -0.0300 -0.7415
  403MOL     O732971   5.667   2.174   5.498  0.4764 -0.1052  0.0948
  403MOL     H832972   5.560   2.346   5.464  1.3798  2.5605 -2.5758
  403MOL     H932973   5.708   2.335   5.379  0.5566 -0.7628 -0.9310
  403MOL    C1032974   5.720   2.225   5.615 -0.6234  0.4829 -1.0603
  403MOL    O1132975   5.631   2.292   5.703 -0.1607  0.1263  0.6192
  403MOL    H1232976   5.801   2.292   5.589 -0.5125 -0.3431 -2.9797
  403MOL    H1332977   5.771   2.142   5.665 -0.3821  1.0221 -0.4159
  403MOL    C1432978   5.702   2.349   5.811  0.5800  0.2603  0.3363
  403MOL    O1532979   5.777   2.461   5.771  0.1535 -0.0659  0.3417
  403MOL    H1632980   5.765   2.273   5.856 -2.8357 -1.9510  1.5455
  403MOL    H1732981   5.624   2.374   5.882  1.1623  1.1502  0.6776
  403MOL    C1832982   5.683   2.554   5.719 -0.3048  0.6455  0.1208
  403MOL    O1932983   5.752   2.670   5.669 -0.3500 -0.5986 -0.4793
  403MOL    H2032984   5.603   2.578   5.789  0.1764 -0.4626  1.0622
  403MOL    H2132985   5.629   2.502   5.640  1.3235 -0.7753 -0.0707
  403MOL    C2232986   5.688   2.737   5.565  0.3603  0.5939  0.1424
  403MOL    O2332987   5.670   2.651   5.454 -0.8755 -0.5054  0.1492
  403MOL    H2432988   5.739   2.832   5.547  2.1396 -0.1000  1.5281
  403MOL    H2532989   5.591   2.771   5.604  0.2596  2.1250 -1.3788
  403MOL    C2632990   5.773   2.677   5.362 -0.0091  0.1587 -0.1732
  403MOL    O2732991   5.905   2.671   5.412 -0.3916  0.3450 -0.3316
  403MOL    H2832992   5.768   2.776   5.319  0.8545  1.1172  1.8588
  403MOL    H2932993   5.763   2.614   5.274 -0.0197 -0.8236  0.5102
  403MOL    C3032994   5.947   2.540   5.427 -0.5286  0.9133  0.3045
  403MOL    O3132995   5.953   2.463   5.309  0.1888 -0.4599  0.3662
  403MOL    H3232996   5.883   2.499   5.505  0.1614  2.9546  1.9806
  403MOL    H3332997   6.049   2.542   5.465 -1.0616  1.5745  1.7308
  403MOL    C3432998   6.051   2.507   5.218 -0.0586 -0.3590  0.2932
  403MOL    O3532999   6.179   2.481   5.249  0.1162  0.7783  0.7631
  403MOL    H3633000   6.038   2.615   5.208  0.3160 -0.3049  0.3806
  403MOL    H3733001   6.026   2.477   5.117  1.3414 -2.2284  0.4769
  403MOL    C3833002   6.214   2.349   5.228 -0.4939 -0.4542  0.1232
  403MOL    O3933003   6.226   2.326   5.090 -0.0748 -0.3896 -0.2862
  403MOL    H4033004   6.145   2.278   5.273 -1.6636  0.2997 -0.4524
  403MOL    H4133005   6.305   2.331   5.285 -0.4569  0.6265  0.4159
  403MOL    C4233006   6.349   2.362   5.031 -0.8903 -0.2741 -0.2820
  403MOL    O4333007   6.456   2.277   5.067 -0.1082 -0.2333  0.4180
  403MOL    H4433008   6.368   2.464   5.063 -1.2769 -0.6336  1.1702
  403MOL    H4533009   6.333   2.358   4.923  0.0741  1.0812 -0.4880
  403MOL    C4633010   6.573   2.319   5.005 -0.1069  0.5011  0.6750
  403MOL    O4733011   6.574   2.301   4.871 -0.0994 -0.3911  0.3936
  403MOL    H4833012   6.654   2.264   5.053  0.6012  0.5955 -0.3931
  403MOL    H4933013   6.594   2.422   5.033  0.9559 -0.3890  3.2518
  403MOL    C5033014   6.670   2.380   4.810  0.0720 -0.2276 -0.0219
  403MOL    O5133015   6.630   2.516   4.815 -0.9828  0.3590  0.0109
  403MOL    H5233016   6.684   2.334   4.712  1.1735 -2.6103  1.1911
  403MOL    H5333017   6.764   2.374   4.865 -0.2460 -1.8041  0.4021
  403MOL    C5433018   6.508   2.529   4.747 -0.0046  0.1850 -0.4260
  403MOL    O5533019   6.466   2.663   4.763 -0.0460 -0.2529 -0.1435
  403MOL    H5633020   6.431   2.464   4.789 -0.1043  1.1204  0.8801
  403MOL    H5733021   6.525   2.519   4.640 -2.1996  2.4364 -1.0441
  403MOL    C5833022   6.336   2.685   4.719 -0.0887  0.1759  0.8040
  403MOL    O5933023   6.238   2.629   4.798  0.2633 -0.1987  0.4620
  403MOL    H6033024   6.314   2.652   4.617 -0.2917  0.2721  0.8163
  403MOL    H6133025   6.329   2.794   4.718 -0.7860  0.1371 -0.6734
  403MOL    C6233026   6.242   2.690   4.924 -0.7470  0.4104  0.2395
  403MOL    O6333027   6.193   2.821   4.910 -0.4000  0.2590  0.0715
  403MOL    H6433028   6.343   2.691   4.966 -0.5224  0.4724 -0.3063
  403MOL    H6533029   6.184   2.617   4.981 -1.1734 -0.7849 -1.6819
  403MOL    C6633030   6.054   2.820   4.884  0.0582  0.2589  0.0475
  403MOL    O6733031   5.979   2.784   4.996 -0.0512  0.1567 -0.6496
  403MOL    H6833032   6.036   2.767   4.790 -0.8023  1.9028 -0.7397
  403MOL    H6933033   6.021   2.918   4.851 -0.5032 -0.9849 -3.3026
  403MOL    C7033034   5.976   2.885   5.090  0.6927 -0.4985  0.2318
  403MOL    O7133035   5.888   2.991   5.044 -0.9502  0.2292 -0.2821
  403MOL    H7233036   6.075   2.921   5.118  1.5752 -1.9659 -0.9173
  403MOL    H7333037   5.937   2.833   5.178 -0.0120 -0.6872 -0.1875
  403MOL    C7433038   5.756   2.954   5.024 -0.3401 -0.2282  0.8748
  403MOL    O7533039   5.694   2.941   5.144 -0.2159  0.6815 -0.4588
  403MOL    H7633040   5.737   2.865   4.964  1.1594 -0.9129  1.4165
  403MOL    H7733041   5.709   3.027   4.958 -0.4057 -0.6306  0.4717
  403MOL    C7833042   5.670   3.069   5.196 -0.4472 -0.2116  0.4179
  403MOL    O7933043   5.605   3.065   5.323  0.6163  0.2462  0.1350
  403MOL    H8033044   5.607   3.131   5.133  0.6252  1.3710  0.8722
  403MOL    H8133045   5.764   3.123   5.206  0.8630 -1.9261 -2.0567
  403MOL    H8233046   5.543   2.994   5.324  0.2827  0.5393  0.9061
  404MOL     C133047   4.971   6.600   6.733  0.2195  0.0118  0.8308
  404MOL     O233048   4.989   6.466   6.786 -0.1119 -0.9851  0.3097
  404MOL     H333049   5.046   6.612   6.655 -0.3203 -1.6096  0.0318
  404MOL     H433050   4.876   6.631   6.688  0.2688 -2.8062 -1.3730
  404MOL     H533051   4.983   6.680   6.806  0.0835 -1.1490  2.1508
  404MOL     C633052   4.947   6.458   6.916  0.1675  0.5160  0.2857
  404MOL     O733053   5.028   6.523   7.006  0.5258 -0.3310  0.1606
  404MOL     H833054   4.940   6.350   6.928 -0.4579  0.3495 -1.4684
  404MOL     H933055   4.843   6.492   6.915 -0.4494 -1.3430 -0.3832
  404MOL    C1033056   4.976   6.534   7.132  0.0712 -0.5240  0.1668
  404MOL    O1133057   4.859   6.618   7.131 -0.4366 -0.2753  0.0829
  404MOL    H1233058   5.058   6.578   7.190 -1.1401  2.0569 -0.0043
  404MOL    H1333059   4.936   6.439   7.166 -0.1059 -0.5854 -0.2119
  404MOL    C1433060   4.815   6.636   7.262 -0.0273  0.1316  0.2633
  404MOL    O1533061   4.748   6.522   7.297 -0.1914 -0.1863 -0.0280
  404MOL    H1633062   4.749   6.723   7.260  0.4475  0.5348  1.8533
  404MOL    H1733063   4.896   6.667   7.328 -1.3509  0.9134  1.5377
  404MOL    C1833064   4.723   6.520   7.432  0.4690 -0.2006 -0.2772
  404MOL    O1933065   4.656   6.405   7.463  0.1718  0.5900  0.5267
  404MOL    H2033066   4.661   6.608   7.447 -1.4431 -1.6451  0.5419
  404MOL    H2133067   4.820   6.521   7.483  0.6681 -1.5004 -0.6016
  404MOL    C2233068   4.526   6.402   7.419  0.2017  0.4247 -0.2207
  404MOL    O2333069   4.448   6.478   7.501  0.2858  0.3447 -0.1219
  404MOL    H2433070   4.489   6.299   7.423 -0.2783  0.6018 -0.1410
  404MOL    H2533071   4.517   6.434   7.315  1.9908 -0.1251 -0.5752
  404MOL    C2633072   4.423   6.431   7.624  0.2233  0.2539 -0.0632
  404MOL    O2733073   4.323   6.327   7.626 -1.4032 -0.8576 -0.2119
  404MOL    H2833074   4.367   6.518   7.657 -2.7529 -2.4983  2.4547
  404MOL    H2933075   4.511   6.406   7.683  0.1502 -0.6813 -0.3291
  404MOL    C3033076   4.326   6.254   7.736  0.1985 -0.4027 -0.1199
  404MOL    O3133077   4.302   6.328   0.066  0.0298 -0.6450  0.7184
  404MOL    H3233078   4.427   6.213   7.745  1.1378  2.0052  0.6581
  404MOL    H3333079   4.254   6.172   7.744 -0.3781  0.1631  0.4882
  404MOL    C3433080   4.171   6.377   0.074  0.0257 -0.3517 -0.2356
  404MOL    O3533081   4.162   6.513   0.098  0.2001 -0.0445 -0.3777
  404MOL    H3633082   4.126   6.323   0.158 -0.0470  1.9081  1.2308
  404MOL    H3733083   4.122   6.354   7.763  0.7954 -1.2659 -0.4160
  404MOL    C3833084   4.249   6.565   0.201  0.7346  0.7032 -0.0095
  404MOL    O3933085   4.196   6.534   0.326 -0.2265 -0.3155 -0.1890
  404MOL    H4033086   4.240   6.674   0.194  1.9569  1.1821  4.3393
  404MOL    H4133087   4.355   6.559   0.176  0.3480 -1.1377 -1.2578
  404MOL    C4233088   4.266   6.424   0.383 -0.5467 -0.7582  0.0009
  404MOL    O4333089   4.364   6.475   0.462 -0.6139  0.1220 -0.0176
  404MOL    H4433090   4.300   6.352   0.308 -0.6364 -1.1927  0.3780
  404MOL    H4533091   4.190   6.373   0.442  0.2068 -1.4684  0.3570
  404MOL    C4633092   4.314   6.508   0.590 -0.3056 -0.2660  0.1988
  404MOL    O4733093   4.283   6.389   0.653  0.4778 -0.0340  0.0780
  404MOL    H4833094   4.225   6.571   0.588 -0.2677 -0.2427 -1.1850
  404MOL    H4933095   4.390   6.557   0.652 -1.7317  1.1397  0.8926
  404MOL    C5033096   4.382   6.344   0.740 -1.1127  0.4801 -0.5347
  404MOL    O5133097   4.500   6.309   0.682 -0.4251  0.4909 -0.3018
  404MOL    H5233098   4.333   6.264   0.795 -0.7128 -0.3751 -1.4074
  404MOL    H5333099   4.413   6.427   0.803  1.0873 -0.7083  0.0074
  404MOL    C5433100   4.488   6.202   0.602  0.1416  0.8763 -0.3767
  404MOL    O5533101   4.460   6.087   0.680 -0.2069  0.4275  0.2537
  404MOL    H5633102   4.583   6.194   0.548 -0.0378  1.6644 -0.8244
  404MOL    H5733103   4.415   6.222   0.524  0.8109 -0.2305 -1.3056
  404MOL    C5833104   4.576   6.047   0.752  0.4964 -0.4094  0.3066
  404MOL    O5933105   4.654   5.971   0.661  0.4892  0.5824  0.0434
  404MOL    H6033106   4.558   5.995   0.846 -0.2919 -1.4934 -0.4254
  404MOL    H6133107   4.640   6.131   0.780 -1.0362  1.1422 -0.7611
  404MOL    C6233108   4.766   5.917   0.721  0.4676  0.3763  0.0806
  404MOL    O6333109   4.847   5.854   0.634 -0.4697  0.8652 -0.5625
  404MOL    H6433110   4.736   5.828   0.775  3.9149 -0.6283  0.4494
  404MOL    H6533111   4.818   5.990   0.783  0.5254  0.5468 -0.1660
  404MOL    C6633112   4.904   5.945   0.549  0.8963 -0.4071  0.3185
  404MOL    O6733113   5.023   5.997   0.598  0.3900  0.0793  0.2549
  404MOL    H6833114   4.842   6.032   0.526  1.2925  0.0025  0.7714
  404MOL    H6933115   4.918   5.888   0.457  0.5026 -1.2247  0.7627
  404MOL    C7033116   5.127   5.911   0.601 -0.1076 -0.4360 -0.3258
  404MOL    O7133117   5.235   5.979   0.655 -0.6270 -0.1951  0.3479
  404MOL    H7233118   5.140   5.887   0.496  0.6124 -0.3862 -0.2496
  404MOL    H7333119   5.095   5.825   0.659 -0.3558 -0.5148 -0.5795
  404MOL    C7433120   5.316   6.029   0.563  0.1174  0.5164  0.3041
  404MOL    O7533121   5.429   6.092   0.624  0.3342  0.1101 -0.1541
  404MOL    H7633122   5.261   6.100   0.502 -1.2541 -1.1828 -0.4679
  404MOL    H7733123   5.354   5.961   0.487  0.1039  0.5687  0.2504
  404MOL    C7833124   5.395   6.216   0.680 -0.6674  0.3694  0.3434
  404MOL    O7933125   5.511   6.279   0.731  0.0676 -0.5373  0.2956
  404MOL    H8033126   5.331   6.217   0.768  0.8638  0.1243  1.4694
  404MOL    H8133127   5.349   6.279   0.603  0.3909 -1.2931 -1.6975
  404MOL    H8233128   5.516   6.247   0.820  2.1140  0.6164  0.6068
  405MOL     C133129   2.198   1.969   5.206  0.5743 -0.0028 -0.0219
  405MOL     O233130   2.116   2.081   5.234  0.0532 -0.4709 -0.4701
  405MOL     H333131   2.170   1.883   5.267 -1.6197  0.8573  0.2270
  405MOL     H433132   2.193   1.944   5.100 -2.0100 -1.4687  0.3987
  405MOL     H533133   2.300   1.991   5.238  0.4374 -0.8406  1.0033
  405MOL     C633134   2.109   2.125   5.366  0.3367  0.5670  0.2144
  405MOL     O733135   2.039   2.033   5.444  0.2153 -0.4571 -0.4986
  405MOL     H833136   2.060   2.222   5.373 -1.0146 -0.1972  1.7326
  405MOL     H933137   2.205   2.139   5.414  1.6172 -3.4010 -0.9784
  405MOL    C1033138   1.907   2.016   5.407 -0.2790 -0.1110 -0.1747
  405MOL    O1133139   1.849   1.910   5.476 -0.8708  0.0100 -0.0152
  405MOL    H1233140   1.911   1.977   5.305  2.3080  1.2566 -0.6448
  405MOL    H1333141   1.850   2.109   5.418  0.2354  0.1317  0.4683
  405MOL    C1433142   1.835   1.945   5.608  0.7844  0.3547  0.0747
  405MOL    O1533143   1.730   2.035   5.619  0.4614 -0.1549  0.3744
  405MOL    H1633144   1.919   1.996   5.655 -0.3821  1.6405  0.8108
  405MOL    H1733145   1.815   1.850   5.657 -0.4813  0.2660 -0.5785
  405MOL    C1833146   1.611   1.956   5.624  0.4063 -0.2504  0.2895
  405MOL    O1933147   1.493   2.040   5.637 -0.1571 -0.1945  0.0839
  405MOL    H2033148   1.618   1.889   5.710  1.5655  0.2912  0.6278
  405MOL    H2133149   1.604   1.895   5.535  1.1543  0.7072 -0.4399
  405MOL    C2233150   1.474   2.096   5.760 -0.3840  0.2965  0.1316
  405MOL    O2333151   1.387   2.200   5.746  0.3819 -0.2467  0.0309
  405MOL    H2433152   1.569   2.139   5.791  0.4553  0.2967 -2.3545
  405MOL    H2533153   1.435   2.020   5.828 -0.7972  1.6089  1.3809
  405MOL    C2633154   1.260   2.145   5.737  0.4125  0.1226  0.1321
  405MOL    O2733155   1.213   2.122   5.865  0.1702  0.4440  0.4222
  405MOL    H2833156   1.243   2.057   5.675  0.2059  0.5695 -0.4556
  405MOL    H2933157   1.213   2.226   5.681  0.7793  1.1192  1.2476
  405MOL    C3033158   1.080   2.096   5.874 -0.1459  0.0995  0.0463
  405MOL    O3133159   1.005   2.218   5.871  0.2816  0.2195  0.2222
  405MOL    H3233160   1.077   2.060   5.977 -1.5405  1.2920  0.4499
  405MOL    H3333161   1.050   2.023   5.799  2.0063 -1.2297  0.4369
  405MOL    C3433162   0.925   2.236   5.754 -0.3246  0.1707 -0.4078
  405MOL    O3533163   0.826   2.135   5.734 -0.2072 -0.0500  0.5272
  405MOL    H3633164   0.986   2.225   5.665  0.9562  1.3054  0.3103
  405MOL    H3733165   0.882   2.337   5.753  1.6272  1.0311 -3.1245
  405MOL    C3833166   0.719   2.149   5.824 -0.3000  0.4398 -0.1925
  405MOL    O3933167   0.650   2.267   5.803 -0.0905 -0.6222  0.1406
  405MOL    H4033168   0.768   2.159   5.921  1.1437  0.4749 -0.9179
  405MOL    H4133169   0.661   2.057   5.830  2.0890 -1.1166 -0.7158
  405MOL    C4233170   0.578   2.266   5.677  0.3887  0.0171 -0.3403
  405MOL    O4333171   0.533   2.396   5.656 -0.3815 -0.1947  0.7015
  405MOL    H4433172   0.493   2.198   5.676 -0.0585  0.5699 -1.0873
  405MOL    H4533173   0.645   2.251   5.592  1.4816 -1.6132  0.7961
  405MOL    C4633174   0.432   2.438   5.752 -0.4131  0.4208  0.0359
  405MOL    O4733175   0.430   2.576   5.777  0.3011  0.7089  0.0268
  405MOL    H4833176   0.428   2.360   5.828  1.6183  1.0758  0.8411
  405MOL    H4933177   0.339   2.419   5.698  0.4683 -0.3925 -1.2247
  405MOL    C5033178   0.507   2.601   5.892  0.2007  0.1693  0.4730
  405MOL    O5133179   0.428   2.583   6.006 -0.2520 -0.0634  0.6727
  405MOL    H5233180   0.530   2.707   5.880  1.2286  0.0940  1.7044
  405MOL    H5333181   0.602   2.548   5.895 -0.1200 -0.3927  0.7091
  405MOL    C5433182   0.358   2.693   6.054 -0.0242 -0.7443 -0.0972
  405MOL    O5533183   0.433   2.774   6.137 -0.4057 -0.2942  0.6015
  405MOL    H5633184   0.274   2.651   6.109 -0.2095  0.4265  0.5325
  405MOL    H5733185   0.321   2.737   5.962  1.1853  0.1778 -0.1553
  405MOL    C5833186   0.389   2.902   6.132  0.2218 -0.0902 -0.0240
  405MOL    O5933187   0.261   2.925   6.178 -0.4728 -0.6539  0.0558
  405MOL    H6033188   0.393   2.943   6.031  1.8283  0.1554  0.1408
  405MOL    H6133189   0.466   2.960   6.182  0.6901 -2.2041  1.7593
  405MOL    C6233190   0.237   2.871   6.305  0.5277 -0.4025 -0.1897
  405MOL    O6333191   0.177   2.743   6.293 -0.3436  0.0845  0.5777
  405MOL    H6433192   0.173   2.938   6.363  0.5209 -0.7790  0.2449
  405MOL    H6533193   0.334   2.857   6.352  0.6060 -0.3787 -0.3438
  405MOL    C6633194   0.043   2.749   6.253  0.2392 -0.0025 -0.3419
  405MOL    O6733195   7.743   2.795   6.354 -0.0561  0.1103 -0.0052
  405MOL    H6833196   0.002   2.653   6.222 -0.6881  1.0529 -2.5344
  405MOL    H6933197   0.038   2.815   6.166  2.4094 -0.0725 -0.5389
  405MOL    C7033198   7.672   2.696   6.422  0.1829  0.6051 -0.2218
  405MOL    O7133199   7.569   2.644   6.346  0.4877  0.2540  0.9515
  405MOL    H7233200   7.623   2.744   6.507 -1.7725 -2.9241  0.7474
  405MOL    H7333201   7.732   2.621   6.473  2.0559  2.6751  0.6851
  405MOL    C7433202   7.462   2.725   6.319 -0.7012 -0.0130 -0.0450
  405MOL    O7533203   7.394   2.773   6.439  0.4155 -0.4269  0.6324
  405MOL    H7633204   7.386   2.681   6.255 -2.4290 -0.7925  2.4818
  405MOL    H7733205   7.511   2.805   6.264  1.2234 -0.1373  1.4247
  405MOL    C7833206   7.329   2.669   6.498  0.3477 -0.1625  0.0238
  405MOL    O7933207   7.213   2.712   6.564 -0.2755 -0.6695 -0.0858
  405MOL    H8033208   7.401   2.637   6.574  0.2749 -1.8412 -0.5977
  405MOL    H8133209   7.313   2.576   6.443  0.7349  0.3140 -0.9094
  405MOL    H8233210   7.186   2.646   6.626 -0.8905 -0.5045 -0.1733
  406MOL     C133211   1.691   0.210   2.447  0.7874  0.6870 -0.7897
  406MOL     O233212   1.766   0.215   2.569  0.0465 -0.1813  0.3272
  406MOL     H333213   1.689   0.295   2.379  0.9296  0.8054 -0.6458
  406MOL     H433214   1.735   0.140   2.376 -0.5047 -0.9990  0.0391
  406MOL     H533215   1.589   0.179   2.471  1.3995  0.3680  1.4953
  406MOL     C633216   1.697   0.283   2.674  0.1657  0.1915  0.0401
  406MOL     O733217   1.773   0.372   2.742  0.1293 -0.3194  0.0892
  406MOL     H833218   1.647   0.216   2.743 -1.9687 -0.0680 -1.6968
  406MOL     H933219   1.621   0.352   2.637 -1.5365 -2.0803 -0.8009
  406MOL    C1033220   1.861   0.310   2.824 -0.1490 -0.1766 -0.6984
  406MOL    O1133221   1.813   0.313   2.960 -0.2711 -0.0039  0.1772
  406MOL    H1233222   1.961   0.352   2.821 -0.5767  0.8582 -0.7920
  406MOL    H1333223   1.880   0.207   2.795 -0.1497 -0.4890  0.3963
  406MOL    C1433224   1.820   0.446   3.015  0.0924  0.3799  0.1840
  406MOL    O1533225   1.736   0.472   3.128 -0.7601  1.0327 -0.0245
  406MOL    H1633226   1.814   0.522   2.936  0.9768  0.0663 -0.1875
  406MOL    H1733227   1.921   0.448   3.056  0.2942  1.1539 -0.3290
  406MOL    C1833228   1.600   0.472   3.095 -0.1328  0.5176 -0.6039
  406MOL    O1933229   1.526   0.496   3.205 -1.0219 -0.4113  0.5217
  406MOL    H2033230   1.570   0.377   3.050 -1.2398  1.6957 -2.4276
  406MOL    H2133231   1.582   0.549   3.020 -2.1950  1.5450  0.9202
  406MOL    C2233232   1.534   0.626   3.256  0.1067 -0.7441 -0.0939
  406MOL    O2333233   1.459   0.709   3.169  0.2593 -0.2357 -0.3272
  406MOL    H2433234   1.638   0.660   3.254  0.5232 -1.8439  1.3556
  406MOL    H2533235   1.511   0.623   3.363  0.3037 -1.4328 -0.0686
  406MOL    C2633236   1.414   0.832   3.225  0.1403 -0.5787 -0.3859
  406MOL    O2733237   1.312   0.814   3.316 -0.0971 -0.0996  0.3019
  406MOL    H2833238   1.375   0.887   3.139  1.4530 -0.2276 -0.7604
  406MOL    H2933239   1.498   0.879   3.276 -0.4289  0.5034 -0.4368
  406MOL    C3033240   1.191   0.787   3.249 -0.2865 -0.2916 -0.5362
  406MOL    O3133241   1.163   0.898   3.171 -0.0511  0.1231 -0.2094
  406MOL    H3233242   1.113   0.781   3.325 -1.4993 -2.0770 -1.8836
  406MOL    H3333243   1.193   0.692   3.196 -2.7973 -1.1139  0.7473
  406MOL    C3433244   1.110   1.002   3.246 -0.6060 -0.2369 -0.2870
  406MOL    O3533245   0.985   0.976   3.301  0.7478 -0.0387 -0.6985
  406MOL    H3633246   1.100   1.086   3.177  0.1174  0.0962  0.0031
  406MOL    H3733247   1.184   1.037   3.318 -1.0656  0.6504 -0.2332
  406MOL    C3833248   0.948   1.078   3.384  0.2088  0.2010  0.8223
  406MOL    O3933249   1.008   1.079   3.507 -0.2307 -0.2888  0.1877
  406MOL    H4033250   0.844   1.061   3.412  0.0393  1.6833  1.0962
  406MOL    H4133251   0.973   1.171   3.335  1.8557 -0.0737  1.1303
  406MOL    C4233252   0.970   0.978   3.596 -0.0196  0.3849  0.3873
  406MOL    O4333253   1.070   0.953   3.687  0.0771 -0.3445 -0.3340
  406MOL    H4433254   0.946   0.887   3.542  0.5836 -0.5538  1.6701
  406MOL    H4533255   0.882   1.000   3.657  0.7608 -0.0546  1.7038
  406MOL    C4633256   1.064   1.042   3.788  0.1616  0.4674 -0.3660
  406MOL    O4733257   0.958   1.005   3.878 -0.4340  0.1281  0.0723
  406MOL    H4833258   1.054   1.140   3.743  1.0928  0.0263 -1.5481
  406MOL    H4933259   1.162   1.050   3.835  0.5372  2.9464 -1.5134
  406MOL    C5033260   0.998   0.944   3.994  0.4199  0.5649 -0.6862
  406MOL    O5133261   1.028   1.046   4.090 -0.0502  0.8624  0.1999
  406MOL    H5233262   1.091   0.891   3.975  0.3430 -0.7460  2.2985
  406MOL    H5333263   0.926   0.874   4.036  2.1818 -0.2744  0.9726
  406MOL    C5433264   0.922   1.063   4.173 -0.4554  0.2960 -0.5230
  406MOL    O5533265   0.921   0.982   4.290  0.0489  0.2393  0.2889
  406MOL    H5633266   0.825   1.063   4.124 -1.2741  0.9245  1.0624
  406MOL    H5733267   0.935   1.164   4.210  0.1308 -0.0024  0.0966
  406MOL    C5833268   1.046   0.959   4.345 -0.0383 -0.1031 -0.3928
  406MOL    O5933269   1.020   0.898   4.470  0.3600  0.1222 -0.1191
  406MOL    H6033270   1.107   1.047   4.364 -1.0282 -0.0209  2.7375
  406MOL    H6133271   1.101   0.885   4.287 -1.1277 -1.6171  0.4608
  406MOL    C6233272   0.995   0.981   4.581  0.4260 -0.5519  0.4292
  406MOL    O6333273   1.114   1.048   4.618  0.5808  0.1865  0.1303
  406MOL    H6433274   0.968   0.920   4.667  1.1315 -1.0283  0.3152
  406MOL    H6533275   0.911   1.050   4.570  0.8154 -0.3719 -1.5257
  406MOL    C6633276   1.096   1.109   4.741  0.4360 -0.6635  0.3430
  406MOL    O6733277   1.084   1.019   4.848  0.2878  0.0168 -0.2370
  406MOL    H6833278   1.002   1.165   4.735  1.2615  0.6197 -1.0226
  406MOL    H6933279   1.173   1.181   4.769  1.3871 -1.2661 -0.7258
  406MOL    C7033280   1.200   0.949   4.878 -0.6860  0.1544  0.1168
  406MOL    O7133281   1.296   1.030   4.948  0.0574 -0.6501  0.1290
  406MOL    H7233282   1.254   0.913   4.790 -0.4135 -0.0624  0.3705
  406MOL    H7333283   1.179   0.860   4.939  0.7825 -0.0673  0.3163
  406MOL    C7433284   1.242   1.091   5.068 -0.7059 -0.6380 -0.1469
  406MOL    O7533285   1.209   0.998   5.166 -0.1242  0.2975  0.0459
  406MOL    H7633286   1.148   1.144   5.054 -0.9902 -1.4127 -1.2220
  406MOL    H7733287   1.314   1.159   5.114 -0.8866 -0.2842 -0.3892
  406MOL    C7833288   1.326   0.929   5.203 -0.0092 -0.2319 -0.2631
  406MOL    O7933289   1.282   0.850   5.313  0.4431 -0.6721  0.2661
  406MOL    H8033290   1.402   0.995   5.245  3.8143 -2.6580 -3.0126
  406MOL    H8133291   1.366   0.875   5.117 -0.8173 -1.6711  0.2595
  406MOL    H8233292   1.245   0.773   5.273  0.6047 -0.9833  0.7194
  407MOL     C133293   2.369   1.097   6.817 -1.1388 -0.7279 -0.2756
  407MOL     O233294   2.268   1.009   6.853 -0.4207 -0.5600  0.7645
  407MOL     H333295   2.349   1.139   6.718  0.5419  2.4574  0.6654
  407MOL     H433296   2.375   1.173   6.894  1.3598  0.3259 -1.4542
  407MOL     H533297   2.469   1.055   6.817 -0.6342  0.4436 -1.1193
  407MOL     C633298   2.287   0.937   6.969 -0.1496 -0.3992  0.2516
  407MOL     O733299   2.404   0.853   6.959  0.4346  0.2530  0.3870
  407MOL     H833300   2.200   0.874   6.986  0.0947 -0.2558  2.1253
  407MOL     H933301   2.302   0.988   7.064  0.5355 -0.7938  0.3588
  407MOL    C1033302   2.390   0.741   6.882  0.3372 -0.1113 -0.7348
  407MOL    O1133303   2.507   0.677   6.846 -0.5328  0.2201  0.5608
  407MOL    H1233304   2.325   0.763   6.797 -1.0933  1.7821  0.8054
  407MOL    H1333305   2.335   0.670   6.944  1.5105  1.1177  1.7852
  407MOL    C1433306   2.587   0.762   6.770 -0.5093  0.5051 -0.0713
  407MOL    O1533307   2.536   0.769   6.636 -0.4816 -0.4708  0.4454
  407MOL    H1633308   2.694   0.742   6.778 -0.6500 -0.5820 -0.8448
  407MOL    H1733309   2.588   0.867   6.799  1.6707 -0.0571  2.1017
  407MOL    C1833310   2.546   0.646   6.572  0.3274 -0.2731  0.7883
  407MOL    O1933311   2.672   0.614   6.527  0.6652  0.2033  0.2771
  407MOL    H2033312   2.480   0.655   6.485 -1.0120  1.2213  1.9338
  407MOL    H2133313   2.504   0.556   6.616 -2.2041 -1.2340 -3.2735
  407MOL    C2233314   2.710   0.693   6.418  0.0541 -0.3935  0.1434
  407MOL    O2333315   2.847   0.675   6.384 -0.4674 -0.2546 -0.0708
  407MOL    H2433316   2.703   0.798   6.448 -0.6112 -0.2232 -0.6045
  407MOL    H2533317   2.661   0.666   6.325  0.5242  1.8767 -0.7904
  407MOL    C2633318   2.863   0.551   6.320  0.5659  0.4740  0.4577
  407MOL    O2733319   2.833   0.559   6.186 -0.0588  0.0373 -0.0513
  407MOL    H2833320   2.803   0.473   6.366 -0.8039  1.3541  0.2007
  407MOL    H2933321   2.965   0.517   6.335  0.8385  0.5750 -1.0049
  407MOL    C3033322   2.947   0.531   6.101  0.3983 -0.9917 -0.4371
  407MOL    O3133323   2.913   0.533   5.964 -0.4728  0.6082  0.3778
  407MOL    H3233324   3.007   0.445   6.131  1.8590  0.4858  1.0177
  407MOL    H3333325   3.016   0.610   6.133 -0.4779  0.2621 -1.5839
  407MOL    C3433326   2.876   0.664   5.924  0.3663  0.5657 -0.3637
  407MOL    O3533327   2.975   0.760   5.916 -0.3656  0.5154 -0.4950
  407MOL    H3633328   2.804   0.700   5.997 -0.6182 -4.0331  1.0979
  407MOL    H3733329   2.825   0.662   5.828  0.0741  0.0085 -0.1982
  407MOL    C3833330   3.061   0.730   5.807  0.6736 -0.9740  0.1011
  407MOL    O3933331   2.995   0.742   5.686  0.1209 -0.2260 -0.0217
  407MOL    H4033332   3.109   0.632   5.812  1.2254 -0.6175  2.2056
  407MOL    H4133333   3.133   0.809   5.828 -0.5993  0.4086 -0.6962
  407MOL    C4233334   2.955   0.878   5.659 -0.0845 -0.6010 -0.0981
  407MOL    O4333335   3.066   0.956   5.611 -0.0140  0.4691  0.4901
  407MOL    H4433336   2.925   0.926   5.752  0.6510  1.0523 -0.6935
  407MOL    H4533337   2.870   0.874   5.591 -1.1179  1.7215  1.0034
  407MOL    C4633338   3.113   0.907   5.490 -0.9633  0.2738  0.0426
  407MOL    O4733339   3.022   0.938   5.388 -0.1468  0.2866  0.1967
  407MOL    H4833340   3.127   0.799   5.495  0.5848  0.4676 -0.1185
  407MOL    H4933341   3.204   0.960   5.463  0.1440 -0.3766  2.4449
  407MOL    C5033342   3.047   0.876   5.261  0.2537 -0.0468  0.5662
  407MOL    O5133343   2.929   0.829   5.203  0.5322 -0.7006 -0.1754
  407MOL    H5233344   3.121   0.795   5.259  1.3432  0.9560 -1.2128
  407MOL    H5333345   3.089   0.955   5.198  0.8818 -0.4223  0.5030
  407MOL    C5433346   2.869   0.731   5.284  0.9896 -0.9372  0.1193
  407MOL    O5533347   2.863   0.608   5.222  0.5191  0.2026  0.2929
  407MOL    H5633348   2.766   0.766   5.290  1.1791 -0.4287  0.4772
  407MOL    H5733349   2.913   0.720   5.384  1.3138  0.3879  0.1334
  407MOL    C5833350   2.986   0.536   5.224  0.3338 -0.5178 -0.2608
  407MOL    O5933351   3.024   0.501   5.358  0.0867 -0.5689  0.5876
  407MOL    H6033352   3.056   0.603   5.175  0.8091 -0.3495  0.6324
  407MOL    H6133353   2.978   0.442   5.170  0.0341 -0.2645 -0.6570
  407MOL    C6233354   3.150   0.451   5.355 -0.2969  0.0084 -0.0384
  407MOL    O6333355   3.158   0.331   5.289 -1.0299  0.3204  0.2487
  407MOL    H6433356   3.176   0.430   5.459 -0.2695 -0.1350 -0.0724
  407MOL    H6533357   3.220   0.526   5.317 -1.5838  2.1732  1.7497
  407MOL    C6633358   3.064   0.239   5.331  0.3749  0.0752  0.5787
  407MOL    O6733359   3.068   0.126   5.264  0.1690  0.3975 -0.6954
  407MOL    H6833360   2.960   0.270   5.327  0.2765 -0.2442  0.7102
  407MOL    H6933361   3.093   0.222   5.434 -1.2241 -1.6378  0.7665
  407MOL    C7033362   3.035   0.143   5.123  0.3258 -0.2049  0.6484
  407MOL    O7133363   3.069   0.033   5.051  0.5373  0.0735  0.3896
  407MOL    H7233364   3.086   0.227   5.075  1.7878 -1.2943  0.2471
  407MOL    H7333365   2.931   0.173   5.117  1.6224  4.1961 -1.6879
  407MOL    C7433366   2.996   7.707   5.092 -0.2074 -0.1447 -0.3799
  407MOL    O7533367   3.006   7.598   5.001  0.3146  0.0822 -0.1090
  407MOL    H7633368   2.890   7.733   5.087 -0.2031 -0.3586 -1.8952
  407MOL    H7733369   3.017   7.669   5.191  1.7859  1.5901 -0.1021
  407MOL    C7833370   3.138   7.551   4.996 -0.5516  0.5192 -0.3199
  407MOL    O7933371   3.150   7.456   4.896 -0.0183 -0.8546  0.1790
  407MOL    H8033372   3.153   7.499   5.091 -0.3361 -0.4744 -0.8951
  407MOL    H8133373   3.215   7.628   4.997 -1.2220  1.2036  0.9713
  407MOL    H8233374   3.108   7.496   4.821  1.2519  0.4630  0.1228
  408MOL     C133375   2.697   1.171   0.964  0.0485 -0.0978 -0.2184
  408MOL     O233376   2.688   1.055   1.053  0.0567  0.1229 -0.1207
  408MOL     H333377   2.599   1.182   0.918 -0.8669 -0.6392  1.5668
  408MOL     H433378   2.701   1.258   1.029 -1.5541  1.4330 -2.0915
  408MOL     H533379   2.780   1.157   0.895 -0.0567  3.7148 -1.2196
  408MOL     C633380   2.673   0.940   0.975  0.4573  0.3700  0.0144
  408MOL     O733381   2.797   0.902   0.915 -0.0590  0.1198  0.0226
  408MOL     H833382   2.608   0.955   0.889 -0.6850 -1.5539  0.5031
  408MOL     H933383   2.627   0.861   1.034 -1.6892  1.2988 -0.3625
  408MOL    C1033384   2.875   0.817   0.994  0.6479 -0.3724  0.2220
  408MOL    O1133385   2.825   0.693   1.000 -0.5655  0.9099  0.1852
  408MOL    H1233386   2.885   0.861   1.093  0.6771  0.1215  0.0017
  408MOL    H1333387   2.978   0.823   0.959  0.4644 -1.1230 -0.4637
  408MOL    C1433388   2.841   0.631   0.872 -0.3494 -0.2176  0.5978
  408MOL    O1533389   2.809   0.497   0.869  0.5882 -0.6767 -0.0007
  408MOL    H1633390   2.941   0.634   0.828 -1.1168 -1.3601 -1.2892
  408MOL    H1733391   2.766   0.684   0.812 -0.3064 -1.5649 -0.6814
  408MOL    C1833392   2.821   0.438   0.744 -0.3312 -0.2656  0.3415
  408MOL    O1933393   2.716   0.475   0.664 -0.2323  0.2222  0.0821
  408MOL    H2033394   2.811   0.331   0.761  3.6353 -0.3177  3.0325
  408MOL    H2133395   2.911   0.465   0.689 -0.3717 -3.1670 -1.2781
  408MOL    C2233396   2.585   0.452   0.711  0.0948  0.1972  0.1502
  408MOL    O2333397   2.499   0.445   0.603  0.2826  0.0181  0.6296
  408MOL    H2433398   2.551   0.535   0.774  1.7694  0.5100  0.6730
  408MOL    H2533399   2.585   0.354   0.759 -1.2715 -0.0620 -0.3575
  408MOL    C2633400   2.482   0.570   0.547  0.2693  0.0895  0.2145
  408MOL    O2733401   2.397   0.574   0.439  0.2285 -0.3169  0.0662
  408MOL    H2833402   2.575   0.599   0.499  0.2038 -1.8461 -1.1473
  408MOL    H2933403   2.455   0.655   0.609 -0.6498  0.3282 -0.4950
  408MOL    C3033404   2.260   0.593   0.471 -0.3858  0.6323 -0.4559
  408MOL    O3133405   2.239   0.717   0.520 -0.4431  0.2097  0.1752
  408MOL    H3233406   2.232   0.525   0.552 -2.1632  0.4995 -1.1784
  408MOL    H3333407   2.194   0.567   0.389 -0.6522  0.8648 -0.3183
  408MOL    C3433408   2.125   0.769   0.460  0.6127  0.0461 -0.0194
  408MOL    O3533409   2.006   0.696   0.492 -0.1342  0.0527  0.3380
  408MOL    H3633410   2.124   0.783   0.352  0.1001 -0.4065 -0.0784
  408MOL    H3733411   2.105   0.869   0.497 -0.0655 -0.9833  2.4835
  408MOL    C3833412   1.977   0.700   0.623  0.7873  0.1024 -0.1504
  408MOL    O3933413   1.929   0.823   0.663  0.0012 -0.0014 -0.0896
  408MOL    H4033414   2.062   0.666   0.682 -0.3522 -3.0583 -0.2556
  408MOL    H4133415   1.903   0.620   0.633 -1.2390  2.1610  1.9715
  408MOL    C4233416   1.799   0.850   0.623  0.3147  0.0378  0.7281
  408MOL    O4333417   1.715   0.854   0.733  0.1511 -0.1555  0.1827
  408MOL    H4433418   1.767   0.776   0.549  2.6340 -1.7678  1.4750
  408MOL    H4533419   1.794   0.943   0.566  2.4204 -0.3387 -0.1137
  408MOL    C4633420   1.729   0.972   0.795  0.0102 -0.2060 -0.3490
  408MOL    O4733421   1.663   1.087   0.739 -0.1900 -0.5443  0.1183
  408MOL    H4833422   1.835   0.997   0.800  0.2772 -1.4520  0.3487
  408MOL    H4933423   1.696   0.966   0.899  1.0282 -0.8988 -0.0578
  408MOL    C5033424   1.527   1.092   0.771  0.1472  0.7513  0.3579
  408MOL    O5133425   1.452   1.175   0.696  0.0046  0.3482 -0.1793
  408MOL    H5233426   1.527   1.119   0.877 -1.2751  1.3455  0.2176
  408MOL    H5333427   1.490   0.989   0.765  0.1189  0.7979 -0.3307
  408MOL    C5433428   1.425   1.128   0.569 -0.6073  0.7316 -0.4913
  408MOL    O5533429   1.542   1.101   0.497  0.0266  0.2196  0.9542
  408MOL    H5633430   1.354   1.192   0.518 -0.2854  2.1581  0.7923
  408MOL    H5733431   1.363   1.039   0.578 -0.4025  0.8997  4.4975
  408MOL    C5833432   1.583   1.222   0.438  0.1580 -0.3999  0.3572
  408MOL    O5933433   1.484   1.272   0.347 -0.5768 -0.0262 -0.3434
  408MOL    H6033434   1.670   1.217   0.372  0.0538 -0.2520  0.2064
  408MOL    H6133435   1.596   1.298   0.515  0.5296  0.2871 -0.3683
  408MOL    C6233436   1.453   1.182   0.247  0.6744 -0.2393  0.2476
  408MOL    O6333437   1.337   1.119   0.288 -0.1877  0.4548  0.3715
  408MOL    H6433438   1.540   1.121   0.223  1.2513 -0.2658  2.3079
  408MOL    H6533439   1.442   1.245   0.159 -1.0001  0.7881  1.1683
  408MOL    C6633440   1.284   1.031   0.181 -0.5382  0.0183 -0.0727
  408MOL    O6733441   1.355   0.910   0.175 -0.0992  0.0411  0.2083
  408MOL    H6833442   1.296   1.074   0.081 -1.5318  2.0627  0.6634
  408MOL    H6933443   1.177   1.014   0.187 -0.6960  0.7991 -0.6585
  408MOL    C7033444   1.316   0.819   0.274  0.3223  0.1920  0.3470
  408MOL    O7133445   1.178   0.782   0.259  0.2379 -0.3426  0.1709
  408MOL    H7233446   1.341   0.867   0.369  0.6985  2.1580 -0.7339
  408MOL    H7333447   1.378   0.729   0.268 -0.6942 -0.5345  0.6631
  408MOL    C7433448   1.159   0.710   0.141  0.6319  0.2187 -0.4569
  408MOL    O7533449   1.031   0.656   0.129  0.3840  0.2385  0.2869
  408MOL    H7633450   1.218   0.619   0.152 -3.0513 -2.1355  0.8366
  408MOL    H7733451   1.182   0.770   0.053  2.7984  1.9553  1.2243
  408MOL    C7833452   0.929   0.756   0.121  0.4210  0.5447  0.0974
  408MOL    O7933453   0.807   0.694   0.099 -0.0130 -0.0956  0.2914
  408MOL    H8033454   0.955   0.818   0.036  3.3111  0.7107  1.0450
  408MOL    H8133455   0.929   0.819   0.210 -1.9710  2.1994 -1.0303
  408MOL    H8233456   0.824   0.638   0.025  0.4991  1.2468 -0.6352
  409MOL     C133457   4.787   1.184   4.717 -0.0289 -0.0077 -0.0342
  409MOL     O233458   4.781   1.323   4.755 -0.9078  0.6880 -0.3054
  409MOL     H333459   4.816   1.179   4.612 -0.9989 -1.6051 -0.2449
  409MOL     H433460   4.852   1.117   4.773  0.3571 -0.6359 -1.2177
  409MOL     H533461   4.685   1.146   4.712 -1.2856  3.3541 -2.0398
  409MOL     C633462   4.881   1.412   4.705  0.6650  0.3023  0.0830
  409MOL     O733463   5.009   1.365   4.741 -0.6978 -0.2998 -0.2860
  409MOL     H833464   4.860   1.507   4.755 -0.4265  0.2026 -0.1820
  409MOL     H933465   4.872   1.435   4.599 -0.2087  0.5611  0.2035
  409MOL    C1033466   5.020   1.355   4.878  0.2715  0.5987 -0.4796
  409MOL    O1133467   5.040   1.481   4.931  0.5813  0.0888  0.2072
  409MOL    H1233468   5.095   1.280   4.902 -1.1765 -1.0846 -1.0954
  409MOL    H1333469   4.935   1.303   4.922 -0.0878  1.1685 -0.4868
  409MOL    C1433470   4.982   1.491   5.059 -0.7562 -1.0247 -0.0261
  409MOL    O1533471   4.841   1.487   5.058 -0.1919  0.0019  0.3853
  409MOL    H1633472   5.006   1.589   5.102 -0.6090 -0.3618 -1.5938
  409MOL    H1733473   5.026   1.409   5.114 -4.3776 -2.2212  1.2063
  409MOL    C1833474   4.788   1.615   5.022  0.6633 -0.0946  0.3042
  409MOL    O1933475   4.777   1.702   5.125  0.3945 -0.5477  0.2987
  409MOL    H2033476   4.694   1.600   4.967  1.7865 -1.6154 -1.2809
  409MOL    H2133477   4.846   1.662   4.942 -0.9016  0.5584 -0.4797
  409MOL    C2233478   4.681   1.664   5.220  0.4787 -0.8412  0.3934
  409MOL    O2333479   4.554   1.689   5.167  0.4797 -0.0305 -0.0920
  409MOL    H2433480   4.705   1.706   5.318 -0.8090 -1.7700  1.1304
  409MOL    H2533481   4.685   1.557   5.243 -1.4743 -1.2457 -1.0250
  409MOL    C2633482   4.512   1.819   5.149 -0.2416  0.0567  0.4100
  409MOL    O2733483   4.467   1.872   5.272 -0.4831  0.2778  0.1518
  409MOL    H2833484   4.436   1.814   5.071 -0.2243  0.4789  0.3681
  409MOL    H2933485   4.596   1.880   5.116 -0.6416 -0.6711 -2.0811
  409MOL    C3033486   4.356   1.800   5.323  0.2603  0.0042  0.3784
  409MOL    O3133487   4.245   1.810   5.236 -0.2694  0.2537 -0.0118
  409MOL    H3233488   4.328   1.834   5.423 -1.4690 -3.0412  1.0003
  409MOL    H3333489   4.383   1.694   5.320  1.9504  0.4701 -2.7505
  409MOL    C3433490   4.194   1.934   5.221  0.1103  0.0108  0.1998
  409MOL    O3533491   4.067   1.934   5.169  0.1551  0.7678  0.7583
  409MOL    H3633492   4.274   1.996   5.181 -0.5165 -0.2875 -1.5278
  409MOL    H3733493   4.180   1.983   5.317  2.0464  0.6115  0.2073
  409MOL    C3833494   4.068   1.927   5.033  0.2378 -0.1788  0.0950
  409MOL    O3933495   4.132   2.034   4.975  0.2976  0.5345 -0.2724
  409MOL    H4033496   3.963   1.924   5.002  0.0132 -1.5321  0.9464
  409MOL    H4133497   4.119   1.835   5.005 -0.2357 -0.4978  0.2826
  409MOL    C4233498   4.067   2.157   4.998 -0.0002 -0.2016 -0.0458
  409MOL    O4333499   4.135   2.236   5.092  0.1990  0.6111 -0.0447
  409MOL    H4433500   3.961   2.145   5.020  0.3897 -0.1301  1.9122
  409MOL    H4533501   4.079   2.201   4.898  2.0052 -0.4386  0.0804
  409MOL    C4633502   4.103   2.372   5.082 -0.4670 -0.9563 -0.2511
  409MOL    O4733503   3.966   2.399   5.113 -0.5511 -0.0768 -0.8933
  409MOL    H4833504   4.132   2.398   4.981 -0.0385 -0.4327  0.0073
  409MOL    H4933505   4.167   2.431   5.147  0.9320  1.2247 -3.4662
  409MOL    C5033506   3.933   2.526   5.061  0.7263 -0.0883 -0.1952
  409MOL    O5133507   3.920   2.523   4.927  0.1549  0.3422 -0.0981
  409MOL    H5233508   4.014   2.597   5.080  1.0055 -0.8624  1.5948
  409MOL    H5333509   3.841   2.548   5.115  0.6979 -2.6674  0.8662
  409MOL    C5433510   3.792   2.484   4.886 -0.7366  0.0300 -0.1552
  409MOL    O5533511   3.704   2.585   4.901  0.0107 -0.0587  0.2287
  409MOL    H5633512   3.754   2.392   4.931  0.8285  0.6489  2.5530
  409MOL    H5733513   3.813   2.466   4.780 -2.0450 -0.0954 -0.4011
  409MOL    C5833514   3.613   2.576   4.794  0.0967 -0.0636 -0.1479
  409MOL    O5933515   3.665   2.616   4.677  0.0810 -0.2288  0.5094
  409MOL    H6033516   3.528   2.636   4.824 -0.4100 -0.4045 -0.8958
  409MOL    H6133517   3.583   2.473   4.777  0.0059 -0.0467 -0.0841
  409MOL    C6233518   3.686   2.756   4.664  0.4617 -0.6134  0.4773
  409MOL    O6333519   3.581   2.829   4.706  0.5114 -0.4977  0.4726
  409MOL    H6433520   3.706   2.790   4.563  1.2574 -1.1450  0.4535
  409MOL    H6533521   3.763   2.789   4.735  0.8156 -1.9229  0.7274
  409MOL    C6633522   3.478   2.823   4.612  0.2061 -0.2695 -0.6757
  409MOL    O6733523   3.392   2.925   4.630 -0.6599 -0.1165  0.1067
  409MOL    H6833524   3.425   2.729   4.631 -2.5678  1.1817 -1.0610
  409MOL    H6933525   3.506   2.820   4.506 -0.5468  2.4789 -0.9872
  409MOL    C7033526   3.458   3.041   4.591  0.2628 -0.6129  0.0690
  409MOL    O7133527   3.486   3.042   4.457  0.0507 -0.4765  0.4881
  409MOL    H7233528   3.552   3.054   4.645  1.0568  1.0280 -1.6818
  409MOL    H7333529   3.399   3.128   4.619  1.5939  0.4355 -0.3348
  409MOL    C7433530   3.380   3.037   4.374 -0.8735  0.0148 -0.1452
  409MOL    O7533531   3.416   2.976   4.253  0.0279 -0.6150  0.5255
  409MOL    H7633532   3.337   3.137   4.364  3.1005  1.8286 -0.0661
  409MOL    H7733533   3.313   2.967   4.425 -0.0228  0.2845  1.3794
  409MOL    C7833534   3.519   3.046   4.190  0.5840  0.3536 -0.3862
  409MOL    O7933535   3.548   2.986   4.069 -0.3456 -0.4842  0.0424
  409MOL    H8033536   3.610   3.049   4.252 -0.8646  2.0931  1.7242
  409MOL    H8133537   3.501   3.152   4.175  4.2277  1.3256  1.2801
  409MOL    H8233538   3.575   3.056   4.012 -0.1096  0.4908  1.3391
  410MOL     C133539   4.059   2.253   0.464  0.4076 -0.4111 -0.2991
  410MOL     O233540   4.034   2.152   0.359 -0.0057 -0.1458 -0.0811
  410MOL     H333541   4.088   2.211   0.560  0.8334 -0.2659 -0.3637
  410MOL     H433542   4.146   2.313   0.436  1.3467 -1.1787  0.9348
  410MOL     H533543   3.975   2.320   0.479  1.1331  1.0184 -2.4344
  410MOL     C633544   3.925   2.069   0.384  0.4645  0.0992  0.1399
  410MOL     O733545   3.804   2.140   0.376 -0.7106  0.2579  0.0355
  410MOL     H833546   3.937   2.008   0.474 -0.0270 -2.1602 -1.3097
  410MOL     H933547   3.925   2.001   0.299  1.5992  0.5296 -0.2182
  410MOL    C1033548   3.774   2.187   0.249 -0.0833 -0.1792  0.7193
  410MOL    O1133549   3.656   2.265   0.250 -0.3545  0.0052  0.4658
  410MOL    H1233550   3.743   2.102   0.189 -1.5839  0.4266  0.6163
  410MOL    H1333551   3.854   2.240   0.197 -0.9847 -2.4462 -3.1434
  410MOL    C1433552   3.683   2.382   0.318 -0.1956  0.4634 -0.0229
  410MOL    O1533553   3.586   2.474   0.285  0.0729  0.2202  0.0862
  410MOL    H1633554   3.769   2.436   0.277  0.1183 -1.6321 -2.2082
  410MOL    H1733555   3.697   2.367   0.425 -0.9042  1.4597  0.2196
  410MOL    C1833556   3.468   2.474   0.358 -0.3263  0.1128 -0.6484
  410MOL    O1933557   3.375   2.560   0.303  0.5415 -0.7256 -0.8665
  410MOL    H2033558   3.503   2.500   0.458 -0.9784  2.1814 -0.9430
  410MOL    H2133559   3.434   2.370   0.357  0.9038 -0.3359  1.4142
  410MOL    C2233560   3.420   2.688   0.287  0.0768  0.3502 -0.0882
  410MOL    O2333561   3.316   2.777   0.271  0.0088  0.0751  0.3406
  410MOL    H2433562   3.484   2.699   0.199 -2.0661  0.8163 -1.6059
  410MOL    H2533563   3.483   2.722   0.370 -1.4316  0.9899  0.8135
  410MOL    C2633564   3.273   2.832   0.393 -0.2169  0.3959 -0.1810
  410MOL    O2733565   3.374   2.912   0.441 -0.0851  0.1713 -0.2300
  410MOL    H2833566   3.242   2.758   0.466 -2.7257  0.7796 -0.8061
  410MOL    H2933567   3.183   2.890   0.373  0.0368  0.8437 -0.0271
  410MOL    C3033568   3.350   2.967   0.571 -0.4315  0.8582 -0.1679
  410MOL    O3133569   3.423   2.902   0.666  0.3019  0.2614  0.3832
  410MOL    H3233570   3.246   2.956   0.604 -0.5084 -1.1341 -0.9769
  410MOL    H3333571   3.367   3.074   0.577 -2.8822  1.3038 -0.5632
  410MOL    C3433572   3.558   2.917   0.660 -0.5888  0.3050  0.0001
  410MOL    O3533573   3.624   2.863   0.774  0.5925 -0.0006 -0.1765
  410MOL    H3633574   3.585   3.022   0.658  0.8177 -0.0676 -0.5923
  410MOL    H3733575   3.599   2.870   0.571  0.5421  0.4497  0.4427
  410MOL    C3833576   3.612   2.948   0.881 -0.3992 -0.7835  0.1831
  410MOL    O3933577   3.713   3.048   0.871  0.2351  0.3413  0.1578
  410MOL    H4033578   3.627   2.887   0.970  1.0744 -0.8986 -0.1361
  410MOL    H4133579   3.508   2.979   0.876  0.0741  0.7611 -0.2478
  410MOL    C4233580   3.833   3.011   0.931  0.8267  0.2064  0.2132
  410MOL    O4333581   3.822   3.011   1.067 -0.2716  0.0575 -0.4587
  410MOL    H4433582   3.896   3.088   0.887 -2.9482  2.2270 -1.9193
  410MOL    H4533583   3.856   2.911   0.895 -0.9851 -0.2598  0.3151
  410MOL    C4633584   3.938   2.978   1.136 -0.0293 -0.5280  0.1962
  410MOL    O4733585   3.956   2.841   1.130 -0.4584 -0.0976 -0.4121
  410MOL    H4833586   3.912   3.003   1.238  2.0660 -1.3514  0.9519
  410MOL    H4933587   4.031   3.023   1.103  0.5987 -1.5811  0.5149
  410MOL    C5033588   4.028   2.798   1.241 -0.4158  0.1577 -0.2889
  410MOL    O5133589   4.165   2.815   1.217 -0.2308 -0.0812  0.4008
  410MOL    H5233590   4.006   2.691   1.253 -0.7054 -0.0686 -2.6920
  410MOL    H5333591   3.991   2.840   1.335  0.8787  1.0318 -0.1526
  410MOL    C5433592   4.253   2.777   1.319  0.3615 -0.3240  0.0456
  410MOL    O5533593   4.245   2.864   1.422  0.1873 -0.1966 -0.0158
  410MOL    H5633594   4.355   2.779   1.279  0.8798  0.9494  1.3995
  410MOL    H5733595   4.232   2.680   1.363  2.5534 -1.9944 -2.4756
  410MOL    C5833596   4.321   2.973   1.412 -0.3538 -0.5922  0.2621
  410MOL    O5933597   4.449   2.945   1.455 -0.4805 -0.3109  0.6683
  410MOL    H6033598   4.279   3.048   1.479 -0.6966 -0.5188 -0.0374
  410MOL    H6133599   4.324   3.017   1.312  0.9272  1.8624  1.3400
  410MOL    C6233600   4.525   3.057   1.471  1.0655  0.3359  0.2264
  410MOL    O6333601   4.490   3.116   1.591  0.1559  0.0840 -0.6135
  410MOL    H6433602   4.519   3.118   1.381  1.8043 -0.5175 -0.4094
  410MOL    H6533603   4.627   3.030   1.498  1.2709  1.0326  0.1426
  410MOL    C6633604   4.557   3.232   1.618  0.0952  0.1430 -0.4140
  410MOL    O6733605   4.686   3.217   1.665  0.6679 -0.5630  0.1837
  410MOL    H6833606   4.494   3.264   1.701 -1.4794 -1.0635 -1.1119
  410MOL    H6933607   4.556   3.303   1.537 -1.0485  1.7159  0.9431
  410MOL    C7033608   4.694   3.162   1.793 -0.4808 -0.1093  0.7032
  410MOL    O7133609   4.659   3.027   1.785 -0.2396  0.4112 -0.0309
  410MOL    H7233610   4.638   3.216   1.870 -0.9861 -0.4246  0.5579
  410MOL    H7333611   4.796   3.163   1.831  0.4404  4.9647 -1.5277
  410MOL    C7433612   4.762   2.935   1.739  0.4463 -0.5456  0.1039
  410MOL    O7533613   4.812   2.867   1.851  0.6905  0.2593  0.4000
  410MOL    H7633614   4.831   2.990   1.675  0.4694  0.2448  0.7951
  410MOL    H7733615   4.711   2.864   1.674 -1.8834  1.4280 -0.3099
  410MOL    C7833616   4.735   2.769   1.904  0.8936 -0.8677  0.9919
  410MOL    O7933617   4.799   2.714   2.010  0.0003 -0.0139  0.2669
  410MOL    H8033618   4.699   2.695   1.833 -0.7808  1.6144 -0.8235
  410MOL    H8133619   4.645   2.819   1.941  0.5578  0.1749 -1.1441
  410MOL    H8233620   4.772   2.623   2.007 -0.6609  0.2239 -2.0100
  411MOL     C133621   7.165   7.058   4.397  0.1515  0.4319  0.2908
  411MOL     O233622   7.053   7.036   4.474  0.4825 -0.0180 -0.3450
  411MOL     H333623   7.245   7.101   4.457  1.1836 -2.1118  0.7994
  411MOL     H433624   7.200   6.975   4.336 -1.4102 -1.1282  1.4578
  411MOL     H533625   7.123   7.128   4.325 -1.5184 -0.3634  0.4615
  411MOL     C633626   7.064   6.928   4.569  0.6737 -0.4411  0.2125
  411MOL     O733627   7.106   6.984   4.684  0.6734 -0.8558  0.6795
  411MOL     H833628   7.128   6.846   4.538 -0.0935 -0.2372 -2.0460
  411MOL     H933629   6.964   6.887   4.578  0.2470  0.7057  0.8713
  411MOL    C1033630   7.021   7.081   4.744 -0.6277  0.7454 -0.2785
  411MOL    O1133631   6.899   7.022   4.774 -0.3872  0.4788 -0.6529
  411MOL    H1233632   6.991   7.156   4.671 -2.2816 -1.6760 -2.1471
  411MOL    H1333633   7.060   7.124   4.836 -1.4816 -0.8236  0.8460
  411MOL    C1433634   6.905   6.917   4.867 -0.8149 -0.0768 -0.2149
  411MOL    O1533635   6.924   6.958   5.003  0.4263 -0.0229 -0.0329
  411MOL    H1633636   6.992   6.855   4.845 -1.2743 -1.0818  0.7706
  411MOL    H1733637   6.820   6.849   4.860 -0.5979 -0.6308  2.0589
  411MOL    C1833638   6.832   7.058   5.043  0.5837 -0.1435  0.2651
  411MOL    O1933639   6.701   7.013   5.070  0.3433 -0.0262  0.6057
  411MOL    H2033640   6.830   7.135   4.966 -2.2040  2.0677  2.4335
  411MOL    H2133641   6.880   7.122   5.117 -0.4845  2.9998 -1.6672
  411MOL    C2233642   6.611   7.112   5.097 -0.2200  0.4162  0.4926
  411MOL    O2333643   6.635   7.179   5.212  0.6820  0.0482 -0.5236
  411MOL    H2433644   6.511   7.070   5.099 -0.2985  0.5983  0.3538
  411MOL    H2533645   6.614   7.172   5.006 -1.6224  0.8897  0.7520
  411MOL    C2633646   6.616   7.091   5.319  0.2782 -0.0278 -0.2416
  411MOL    O2733647   6.665   7.149   5.435 -0.5466  0.0287  0.0857
  411MOL    H2833648   6.648   6.990   5.295 -1.6027 -0.8780  0.7160
  411MOL    H2933649   6.511   7.072   5.341 -0.4031  2.1702 -1.4350
  411MOL    C3033650   6.801   7.158   5.430  0.5496 -0.5821 -0.1698
  411MOL    O3133651   6.864   7.034   5.407 -0.0919  0.2196 -0.0527
  411MOL    H3233652   6.840   7.209   5.518  0.4224 -1.6959  0.5449
  411MOL    H3333653   6.835   7.232   5.358 -1.0742  0.7675  0.4387
  411MOL    C3433654   6.884   6.963   5.520 -1.3039  0.3383 -0.2800
  411MOL    O3533655   6.992   7.015   5.594  0.0350 -0.1019  0.4505
  411MOL    H3633656   6.923   6.863   5.502  0.8325  1.2633 -0.9021
  411MOL    H3733657   6.806   6.974   5.596 -0.0304 -1.4851  1.3292
  411MOL    C3833658   7.037   6.929   5.696  0.5047 -0.7713 -0.7513
  411MOL    O3933659   6.936   6.905   5.797  0.8207  0.2873 -0.3637
  411MOL    H4033660   7.123   6.979   5.741 -1.3802  2.3525 -0.4754
  411MOL    H4133661   7.071   6.839   5.643  0.1470 -1.2390 -0.1919
  411MOL    C4233662   6.913   7.006   5.892 -0.2136  0.2219  0.9316
  411MOL    O4333663   7.014   6.996   5.997  0.1392  0.2822  0.3028
  411MOL    H4433664   6.816   6.990   5.938 -0.4525 -1.9804 -0.2769
  411MOL    H4533665   6.922   7.102   5.840 -0.2246 -0.9284 -1.2362
  411MOL    C4633666   6.980   6.893   6.088 -0.1658  0.0053 -0.0998
  411MOL    O4733667   6.903   6.946   6.189 -0.2089 -0.2992 -0.1039
  411MOL    H4833668   7.071   6.840   6.118 -0.3155 -1.2064 -1.6882
  411MOL    H4933669   6.920   6.818   6.036  0.4231  0.4605 -1.4437
  411MOL    C5033670   6.980   7.013   6.285 -0.4145  0.5511  0.0696
  411MOL    O5133671   7.045   6.914   6.356  0.3953 -0.3565 -0.0204
  411MOL    H5233672   6.908   7.061   6.350 -2.0646 -0.6191 -0.8742
  411MOL    H5333673   7.045   7.091   6.244 -1.0408  0.2267 -1.5664
  411MOL    C5433674   7.147   6.964   6.434 -0.0431 -0.9442  0.2423
  411MOL    O5533675   7.113   7.058   6.531  0.3151  0.1286  0.2043
  411MOL    H5633676   7.218   7.008   6.364 -0.2763  1.3198  1.3618
  411MOL    H5733677   7.198   6.879   6.479  1.3991 -1.2386 -1.8546
  411MOL    C5833678   7.050   7.008   6.645 -0.1425  0.6226 -0.1163
  411MOL    O5933679   6.929   6.947   6.608 -0.1744 -0.0571  0.3770
  411MOL    H6033680   7.036   7.087   6.719 -0.0512  0.4403  0.0969
  411MOL    H6133681   7.112   6.930   6.691  0.2176  1.1715  0.3297
  411MOL    C6233682   6.865   6.873   6.710 -0.0485 -0.5140 -0.0045
  411MOL    O6333683   6.834   6.955   6.819  0.0474  0.2100  0.2583
  411MOL    H6433684   6.937   6.798   6.743  0.3026 -0.0905  0.2011
  411MOL    H6533685   6.770   6.829   6.680 -1.4189  0.4217  2.7859
  411MOL    C6633686   6.734   7.052   6.799 -0.0624 -0.5857 -0.7446
  411MOL    O6733687   6.608   6.995   6.765  0.0065 -0.5405  0.3050
  411MOL    H6833688   6.768   7.099   6.707 -0.5253  0.6765 -0.2808
  411MOL    H6933689   6.736   7.123   6.882 -2.3045 -1.0765 -0.2412
  411MOL    C7033690   6.551   6.926   6.872  0.5974  0.1664 -0.4312
  411MOL    O7133691   6.469   7.008   6.939 -0.3477  0.0407  0.2458
  411MOL    H7233692   6.630   6.898   6.942  1.6889  0.7168 -1.4161
  411MOL    H7333693   6.494   6.836   6.846 -0.0081  0.3471  0.2622
  411MOL    C7433694   6.411   6.947   7.045  0.1758  0.1614  0.3582
  411MOL    O7533695   6.491   6.948   7.157 -0.1709 -0.3467  0.6123
  411MOL    H7633696   6.377   6.846   7.025  0.7347 -0.0121  0.2666
  411MOL    H7733697   6.321   7.002   7.073 -1.8417 -0.9146 -3.7873
  411MOL    C7833698   6.526   7.082   7.200 -0.1767  0.6039 -0.3515
  411MOL    O7933699   6.578   7.084   7.331  0.2652 -0.3197 -0.5165
  411MOL    H8033700   6.433   7.139   7.207 -0.0813  0.8507 -1.1381
  411MOL    H8133701   6.602   7.122   7.133  1.0111 -0.1359  0.5504
  411MOL    H8233702   6.662   7.041   7.336  0.1443 -0.4612  0.4690
  412MOL     C133703   5.265   3.716   7.063 -1.2312  0.5358  0.3871
  412MOL     O233704   5.199   3.839   7.094 -0.6852 -0.2800  0.3851
  412MOL     H333705   5.333   3.716   6.978  1.1255  0.3133  2.2132
  412MOL     H433706   5.317   3.662   7.142 -0.2866  1.9961  0.7786
  412MOL     H533707   5.187   3.647   7.032 -1.1736  1.3989 -1.7127
  412MOL     C633708   5.271   3.957   7.075  0.9627  0.4073  0.2005
  412MOL     O733709   5.384   3.963   7.155 -1.1582  0.5165  0.4692
  412MOL     H833710   5.210   4.043   7.101 -0.5171 -0.5877  0.0924
  412MOL     H933711   5.299   3.961   6.969  1.3421 -2.0078  0.1852
  412MOL    C1033712   5.359   3.989   7.284 -0.5646 -0.2453 -0.1860
  412MOL    O1133713   5.480   4.028   7.345  0.3257 -0.1443  0.0773
  412MOL    H1233714   5.305   3.908   7.334  0.5400 -0.6367  0.3990
  412MOL    H1333715   5.280   4.063   7.293 -1.2013 -0.8036 -1.1594
  412MOL    C1433716   5.570   3.925   7.354  0.0594  0.0595  0.2851
  412MOL    O1533717   5.556   3.859   7.480  0.3944  0.4381  0.3957
  412MOL    H1633718   5.671   3.959   7.334  0.1848 -1.0200 -1.0391
  412MOL    H1733719   5.549   3.844   7.284  2.8706 -0.7849  0.3572
  412MOL    C1833720   5.614   3.936   7.580  0.2242 -0.3383 -0.1134
  412MOL    O1933721   5.753   3.920   7.589  0.0422  0.9699  0.0683
  412MOL    H2033722   5.568   3.913   7.676  1.6823  1.5773  1.0871
  412MOL    H2133723   5.584   4.038   7.555 -2.1671 -0.6652  1.2307
  412MOL    C2233724   5.790   3.790   7.635 -0.2802 -0.0590 -0.0354
  412MOL    O2333725   5.773   3.772   7.771  0.0479 -0.5115 -0.0474
  412MOL    H2433726   5.895   3.774   7.611  0.2154  1.1926  1.2186
  412MOL    H2533727   5.737   3.717   7.574 -1.1611  0.8602 -0.3884
  412MOL    C2633728   5.856   3.851   0.066  0.0001  0.8152 -0.4324
  412MOL    O2733729   5.809   3.836   0.206 -0.4631 -0.4963 -0.6175
  412MOL    H2833730   5.857   3.959   0.051  0.4175  0.7076 -1.1661
  412MOL    H2933731   5.958   3.816   0.053  0.0640  1.3300 -1.3650
  412MOL    C3033732   5.706   3.922   0.245  0.0976  0.1767 -0.4786
  412MOL    O3133733   5.744   4.054   0.273  0.3532 -0.4757 -0.0716
  412MOL    H3233734   5.644   3.877   0.322 -0.2012 -1.6609 -1.7461
  412MOL    H3333735   5.648   3.932   0.153 -0.9195  1.2335  0.2730
  412MOL    C3433736   5.826   4.063   0.386  0.1823 -0.7222  0.6533
  412MOL    O3533737   5.752   4.042   0.504 -0.1363 -0.4119  0.9659
  412MOL    H3633738   5.883   4.156   0.377  0.1692 -0.9009 -1.3422
  412MOL    H3733739   5.908   3.991   0.394  1.3680  0.5618  0.3143
  412MOL    C3833740   5.727   4.157   0.579 -0.2581  0.3098 -0.3564
  412MOL    O3933741   5.839   4.232   0.621 -0.3201 -0.1813  0.0426
  412MOL    H4033742   5.690   4.116   0.674  0.9872  0.3170  0.1349
  412MOL    H4133743   5.641   4.212   0.542  0.1434  1.4573  0.3828
  412MOL    C4233744   5.817   4.327   0.714  0.9197 -0.3825  0.9690
  412MOL    O4333745   5.778   4.274   0.836  0.2074 -0.2156  0.4364
  412MOL    H4433746   5.747   4.394   0.664  1.0063 -1.5375 -0.7208
  412MOL    H4533747   5.910   4.384   0.716  1.1700 -0.7931  1.0350
  412MOL    C4633748   5.874   4.207   0.906  0.4115  0.4380 -0.0569
  412MOL    O4733749   5.823   4.149   1.030  0.2646  0.0294 -0.1283
  412MOL    H4833750   5.967   4.259   0.925  0.9341 -0.4637 -0.1403
  412MOL    H4933751   5.905   4.125   0.841  1.2067 -1.0489  2.1465
  412MOL    C5033752   5.849   4.231   1.146  0.4335 -0.6179  0.2823
  412MOL    O5133753   5.986   4.246   1.160  0.2845  0.5455 -0.0524
  412MOL    H5233754   5.798   4.181   1.229 -1.9144 -0.5725 -1.0778
  412MOL    H5333755   5.797   4.324   1.125 -1.7522 -2.4256 -2.8883
  412MOL    C5433756   6.021   4.325   1.266 -0.3597 -0.7627  0.2090
  412MOL    O5533757   6.005   4.461   1.241  0.1210  0.2684  0.7013
  412MOL    H5633758   6.130   4.330   1.260 -0.4805  0.2658 -1.3718
  412MOL    H5733759   5.979   4.284   1.358 -0.4038 -0.4635  0.3206
  412MOL    C5833760   5.960   4.529   1.356 -0.3977  0.2593 -0.1699
  412MOL    O5933761   6.044   4.528   1.461 -0.1047 -0.2541  0.5719
  412MOL    H6033762   5.870   4.479   1.393 -0.7748  1.0106 -0.0764
  412MOL    H6133763   5.928   4.629   1.330 -2.4164 -0.6515 -1.3195
  412MOL    C6233764   6.162   4.598   1.433 -0.0327 -0.3951  0.0709
  412MOL    O6333765   6.129   4.738   1.437  0.9015  0.1737 -0.5220
  412MOL    H6433766   6.200   4.567   1.336 -3.2010 -2.9280 -0.4519
  412MOL    H6533767   6.233   4.573   1.511  0.2002 -1.6324 -0.5199
  412MOL    C6633768   6.191   4.804   1.544  0.6732  0.4968  0.1979
  412MOL    O6733769   6.323   4.790   1.539  0.4829  0.3833  0.3837
  412MOL    H6833770   6.154   4.772   1.641 -0.8030  0.9682 -0.1881
  412MOL    H6933771   6.157   4.906   1.528  2.1873  0.7536 -1.4850
  412MOL    C7033772   6.400   4.853   1.637  0.5526  0.9445 -0.3963
  412MOL    O7133773   6.359   4.987   1.636 -0.0318  0.3925  0.5043
  412MOL    H7233774   6.504   4.847   1.604  0.2127  1.1146 -1.5102
  412MOL    H7333775   6.374   4.801   1.729  1.1729  0.1248 -0.6845
  412MOL    C7433776   6.401   5.060   1.526  0.3756 -0.1606  0.0291
  412MOL    O7533777   6.534   5.084   1.525 -0.0617  0.3383  0.6113
  412MOL    H7633778   6.349   5.156   1.523  1.7233  0.7278  2.9843
  412MOL    H7733779   6.377   5.010   1.432 -0.2457  1.5872 -0.7715
  412MOL    C7833780   6.575   5.164   1.632  0.5797  0.4891 -0.4924
  412MOL    O7933781   6.702   5.214   1.603 -0.4669  0.0918 -0.7597
  412MOL    H8033782   6.568   5.100   1.720 -3.2443  1.3955 -0.0135
  412MOL    H8133783   6.507   5.248   1.644  1.2430  0.8265  0.9828
  412MOL    H8233784   6.696   5.268   1.526  2.5661 -0.3539 -1.3989
  413MOL     C133785   0.171   2.305   4.742  0.5120 -0.3360  0.0092
  413MOL     O233786   0.127   2.243   4.860 -0.4745  0.2989  0.3901
  413MOL     H333787   0.147   2.410   4.732 -0.2579 -0.5587 -0.5173
  413MOL     H433788   0.279   2.298   4.726  0.2150 -2.7048 -1.2508
  413MOL     H533789   0.135   2.249   4.655  2.6810 -3.8171  1.2342
  413MOL     C633790   0.013   2.295   4.922  0.4726 -0.2268 -0.2686
  413MOL     O733791   7.689   2.272   4.835  0.3331  0.0081 -0.3717
  413MOL     H833792   0.017   2.404   4.933 -1.4769 -0.0262 -1.3890
  413MOL     H933793   7.783   2.266   5.026  1.7378  0.5204  0.1222
  413MOL    C1033794   7.630   2.136   4.840 -0.2020  0.0855  0.3827
  413MOL    O1133795   7.565   2.127   4.957 -0.2715  0.9254 -0.0913
  413MOL    H1233796   7.718   2.071   4.832  0.4310  1.1233 -1.4605
  413MOL    H1333797   7.562   2.114   4.758 -2.3510  1.4573  1.7503
  413MOL    C1433798   7.460   2.218   4.980 -0.6420  0.3857  0.0484
  413MOL    O1533799   7.414   2.196   5.113  0.3655 -0.0283  0.0153
  413MOL    H1633800   7.377   2.179   4.921 -0.8397  0.7318  0.0952
  413MOL    H1733801   7.496   2.318   4.954 -0.5177  0.1117 -0.8592
  413MOL    C1833802   7.495   2.236   5.218 -0.0484  0.4895  0.2763
  413MOL    O1933803   7.471   2.372   5.260  0.5537 -0.1850  0.0269
  413MOL    H2033804   7.602   2.223   5.205  0.0045 -0.2929  1.3721
  413MOL    H2133805   7.469   2.173   5.304 -0.4156  0.7447  0.3527
  413MOL    C2233806   7.334   2.405   5.290 -0.1194  0.1229  0.3329
  413MOL    O2333807   7.282   2.318   5.378  0.2317  0.3723  0.1840
  413MOL    H2433808   7.268   2.410   5.203  0.1251  0.4243  0.1637
  413MOL    H2533809   7.324   2.506   5.330 -2.0033 -0.6644  1.9322
  413MOL    C2633810   7.296   2.357   5.512 -0.0089  0.2209  0.2231
  413MOL    O2733811   7.260   2.262   5.604  0.6828  0.0067 -0.3095
  413MOL    H2833812   7.235   2.446   5.524 -1.8401 -0.7060 -1.8933
  413MOL    H2933813   7.401   2.385   5.520  0.7507 -2.4952  0.2474
  413MOL    C3033814   7.344   2.149   5.604  0.3829 -0.3944 -0.6036
  413MOL    O3133815   7.470   2.179   5.664  0.0481  0.4155 -1.4200
  413MOL    H3233816   7.356   2.114   5.502 -0.3488  1.4159 -1.3179
  413MOL    H3333817   7.289   2.071   5.657  2.7890 -0.4240  1.9884
  413MOL    C3433818   7.558   2.087   5.611  0.1030  0.2450  0.0108
  413MOL    O3533819   7.587   2.094   5.473  0.1489  0.5978  0.0106
  413MOL    H3633820   7.542   1.984   5.644 -0.6948  0.7100  1.0855
  413MOL    H3733821   7.651   2.105   5.666 -0.1254 -2.3360  1.3113
  413MOL    C3833822   7.653   1.974   5.428 -0.3303 -0.5016 -0.2103
  413MOL    O3933823   7.778   1.973   5.495 -0.0150 -0.3534  0.2623
  413MOL    H4033824   7.662   1.981   5.320 -0.9902  1.9953 -0.1441
  413MOL    H4133825   7.594   1.886   5.451 -1.9658  0.7042  0.3204
  413MOL    C4233826   0.093   1.900   5.425 -0.1007 -0.2490 -0.2421
  413MOL    O4333827   0.207   1.873   5.494  0.5016  0.1195 -0.1159
  413MOL    H4433828   0.118   1.949   5.331  0.5004 -1.9082 -0.9602
  413MOL    H4533829   0.058   1.798   5.410 -0.2828 -0.2428  0.1326
  413MOL    C4633830   0.247   1.982   5.567 -0.1536  0.0681 -0.6897
  413MOL    O4733831   0.385   1.979   5.610  0.1221 -0.0405  0.0852
  413MOL    H4833832   0.181   2.009   5.650  0.9947  1.5906 -0.2354
  413MOL    H4933833   0.228   2.070   5.506 -0.3947 -0.7403 -1.7815
  413MOL    C5033834   0.409   1.859   5.671 -0.2284  0.0833  0.3917
  413MOL    O5133835   0.532   1.865   5.736 -0.4192  0.4834 -0.1015
  413MOL    H5233836   0.408   1.792   5.585  0.0458 -1.1774  1.3428
  413MOL    H5333837   0.333   1.836   5.746 -0.6623 -1.7383 -0.5680
  413MOL    C5433838   0.647   1.842   5.651  0.3901  0.5293  0.1044
  413MOL    O5533839   0.637   1.713   5.593  0.6332 -0.3034 -0.3670
  413MOL    H5633840   0.739   1.861   5.707  1.4490 -0.7906 -1.1433
  413MOL    H5733841   0.649   1.912   5.567 -0.7796 -0.0518 -0.4146
  413MOL    C5833842   0.759   1.687   5.526  0.8404  0.2296  0.3346
  413MOL    O5933843   0.786   1.775   5.423  0.8134 -0.7537 -0.1454
  413MOL    H6033844   0.772   1.587   5.487 -0.1814 -0.1875  1.0586
  413MOL    H6133845   0.843   1.692   5.595  0.3038 -2.4209  1.1907
  413MOL    C6233846   0.696   1.756   5.315 -0.8443  0.0669  0.3566
  413MOL    O6333847   0.725   1.859   5.220  0.0945 -0.1583 -0.4653
  413MOL    H6433848   0.596   1.760   5.357 -0.6003 -0.7378  1.0338
  413MOL    H6533849   0.704   1.656   5.273 -1.4286  0.1124  0.1398
  413MOL    C6633850   0.617   1.947   5.216 -0.5300  0.1254 -0.1237
  413MOL    O6733851   0.608   2.022   5.337  0.4728  0.2991  0.0527
  413MOL    H6833852   0.523   1.895   5.194 -1.5587  1.8151  0.2071
  413MOL    H6933853   0.632   2.019   5.136 -2.8107 -0.2263 -0.9295
  413MOL    C7033854   0.494   2.097   5.339  0.4250  0.4194 -0.1845
  413MOL    O7133855   0.486   2.198   5.242 -0.2731  0.1220 -0.2640
  413MOL    H7233856   0.473   2.137   5.439  0.6074  2.2968 -0.8850
  413MOL    H7333857   0.406   2.036   5.321  0.0354  0.6242  0.9449
  413MOL    C7433858   0.532   2.325   5.284 -0.0788  0.0605 -0.3194
  413MOL    O7533859   0.435   2.395   5.349 -0.1401 -0.1960  0.1739
  413MOL    H7633860   0.554   2.367   5.185  0.9927 -0.5937 -0.3690
  413MOL    H7733861   0.621   2.316   5.345 -0.2308 -1.2805 -0.2758
  413MOL    C7833862   0.474   2.528   5.363  0.4151  0.1334  0.1546
  413MOL    O7933863   0.586   2.545   5.446 -0.0411 -0.4564 -0.4066
  413MOL    H8033864   0.385   2.577   5.403 -1.7879 -0.4740 -3.7415
  413MOL    H8133865   0.491   2.573   5.265 -2.1866 -0.1802 -0.4934
  413MOL    H8233866   0.550   2.539   5.533 -0.4367 -0.0438 -0.5422
  414MOL     C133867   5.301   7.174   3.124  0.1020 -0.1286  0.7583
  414MOL     O233868   5.262   7.205   3.260 -0.0811 -0.4115 -0.4468
  414MOL     H333869   5.253   7.248   3.061 -0.3833 -0.9219  0.1842
  414MOL     H433870   5.407   7.187   3.105  0.1295 -0.0826  0.9387
  414MOL     H533871   5.264   7.074   3.101  0.0206  0.3856 -1.3542
  414MOL     C633872   5.323   7.319   3.312  0.3462  0.7280 -0.8803
  414MOL     O733873   5.271   7.429   3.244  0.2194 -0.2669  0.2181
  414MOL     H833874   5.429   7.318   3.289  0.6650 -0.5821  0.5512
  414MOL     H933875   5.318   7.324   3.421  1.6036 -1.2565 -0.7148
  414MOL    C1033876   5.159   7.481   3.298 -0.0067 -0.0114  0.0404
  414MOL    O1133877   5.191   7.538   3.420  0.5457  0.0168  0.8693
  414MOL    H1233878   5.084   7.404   3.316 -2.0188  1.1565 -2.9294
  414MOL    H1333879   5.123   7.556   3.228 -0.9312 -1.5932 -1.2107
  414MOL    C1433880   5.278   7.645   3.409  0.1580  0.5901 -0.0056
  414MOL    O1533881   5.217   7.745   3.335 -0.1485 -0.5711  0.0469
  414MOL    H1633882   5.378   7.612   3.383 -0.2147  0.7248 -1.6151
  414MOL    H1733883   5.291   7.671   3.514 -1.3832  1.3539  0.0167
  414MOL    C1833884   5.285   0.080   3.341  0.4753  0.1820  0.2641
  414MOL    O1933885   5.410   0.061   3.276  0.2780  0.3281 -0.4621
  414MOL    H2033886   5.308   0.112   3.443  1.0648 -1.9492  0.8399
  414MOL    H2133887   5.229   0.148   3.277  0.6991 -1.8186 -2.1342
  414MOL    C2233888   5.391   0.050   3.139  0.0486 -0.3395 -0.0465
  414MOL    O2333889   5.360   0.169   3.072  0.5428 -0.0135 -0.7381
  414MOL    H2433890   5.318   7.753   3.133 -1.8689  1.2524  1.4177
  414MOL    H2533891   5.482   0.016   3.089 -1.3485 -0.5844 -2.4490
  414MOL    C2633892   5.471   0.251   3.059 -0.1501  0.5432 -0.0896
  414MOL    O2733893   5.569   0.197   2.975  0.9063 -0.3205  0.7253
  414MOL    H2833894   5.511   0.273   3.158 -0.6616  0.9437  0.0310
  414MOL    H2933895   5.436   0.345   3.016  2.4989  2.9347  2.7815
  414MOL    C3033896   5.522   0.179   2.845 -0.1969  0.3526 -0.2063
  414MOL    O3133897   5.598   0.245   2.750 -0.1945  0.2206  0.6634
  414MOL    H3233898   5.416   0.204   2.840 -0.1969  0.6995  1.2659
  414MOL    H3333899   5.523   0.070   2.839  1.6113  0.3014  0.5909
  414MOL    C3433900   5.548   0.205   2.625 -0.0018  0.1325 -0.0657
  414MOL    O3533901   5.423   0.246   2.602  0.1303 -0.1690 -0.1223
  414MOL    H3633902   5.567   0.100   2.601  0.6862  0.2956 -0.2607
  414MOL    H3733903   5.611   0.265   2.559  1.8351  0.1596  1.6497
  414MOL    C3833904   5.376   0.214   2.480 -0.0848  0.2058 -0.2771
  414MOL    O3933905   5.353   0.076   2.458 -0.6146  0.1639 -0.7210
  414MOL    H4033906   5.433   0.259   2.399 -1.2662  1.7188 -0.2904
  414MOL    H4133907   5.276   0.257   2.476  1.1135  2.9855 -2.0407
  414MOL    C4233908   5.239   0.039   2.380 -0.2845 -0.1289  0.0034
  414MOL    O4333909   5.282   7.742   2.277 -0.1490  0.3348 -0.1535
  414MOL    H4433910   5.200   0.128   2.329  0.8245  0.1163 -0.4370
  414MOL    H4533911   5.160   7.766   2.428 -1.2068  0.7946 -0.3885
  414MOL    C4633912   5.321   7.612   2.318  0.6377 -0.2896  0.0841
  414MOL    O4733913   5.202   7.532   2.333  0.2020 -0.7111  0.3866
  414MOL    H4833914   5.367   7.636   2.414  0.1321  3.1942 -0.4840
  414MOL    H4933915   5.392   7.555   2.259 -0.2305 -0.7674 -0.5140
  414MOL    C5033916   5.229   7.411   2.400 -0.4789 -0.5492 -0.1267
  414MOL    O5133917   5.257   7.446   2.530  0.3719  0.0633 -0.3154
  414MOL    H5233918   5.317   7.370   2.351 -0.4926 -0.5760 -0.1286
  414MOL    H5333919   5.146   7.341   2.391 -0.3297 -0.7359 -0.0480
  414MOL    C5433920   5.142   7.474   2.612 -0.2025 -0.0050 -0.0123
  414MOL    O5533921   5.121   7.604   2.644 -0.1694 -0.6448  0.1390
  414MOL    H5633922   5.157   7.426   2.709 -1.7997  1.3960  0.9610
  414MOL    H5733923   5.050   7.428   2.577 -1.0448  0.1679  1.8779
  414MOL    C5833924   5.215   7.662   2.727 -0.6281 -0.6331 -0.1387
  414MOL    O5933925   5.197   7.619   2.854 -0.2717  0.1054 -0.3783
  414MOL    H6033926   5.216   7.771   2.717  2.5284 -0.7406 -1.6055
  414MOL    H6133927   5.307   7.629   2.679 -0.1930 -2.8008  2.0811
  414MOL    C6233928   5.088   7.687   2.910 -0.0833 -0.2131  0.5953
  414MOL    O6333929   5.103   0.041   2.913  0.3308 -0.4449  0.5878
  414MOL    H6433930   5.073   7.647   3.010 -1.0956 -1.7843 -0.1715
  414MOL    H6533931   4.995   7.668   2.855  0.4410  1.5703 -0.9438
  414MOL    C6633932   5.049   0.094   3.033  0.4067 -0.1885  0.5279
  414MOL    O6733933   4.912   0.075   3.042  0.2651  0.2521 -0.1419
  414MOL    H6833934   5.069   0.201   3.031  2.2722 -0.5143 -0.3816
  414MOL    H6933935   5.108   0.055   3.116  1.2575  1.4628  0.7154
  414MOL    C7033936   4.830   0.145   2.956  0.4032 -0.5558 -0.2320
  414MOL    O7133937   4.707   0.188   3.021  0.2070  0.0447  0.4695
  414MOL    H7233938   4.824   0.107   2.854  0.9034 -0.5023 -0.2805
  414MOL    H7333939   4.873   0.242   2.935  0.4278 -1.2411 -3.6967
  414MOL    C7433940   4.616   0.080   3.039  0.1125  1.0821 -0.0100
  414MOL    O7533941   4.582   0.028   2.911  0.3681 -0.3318  0.2192
  414MOL    H7633942   4.534   0.114   3.102 -1.1875  0.4745 -1.3581
  414MOL    H7733943   4.662   7.777   3.086 -0.9488  0.8892  0.6826
  414MOL    C7833944   4.480   7.716   2.931  0.3841  0.1245 -0.2342
  414MOL    O7933945   4.453   7.658   2.803  0.0658 -0.1225  0.3551
  414MOL    H8033946   4.390   7.769   2.963  1.5049  1.9915 -0.1042
  414MOL    H8133947   4.512   7.629   2.989 -0.2727  0.5648  0.8062
  414MOL    H8233948   4.366   7.683   2.778  0.2330  1.3025  1.1207
  415MOL     C133949   0.229   3.727   2.260 -0.1526  0.2350 -0.0498
  415MOL     O233950   0.268   3.609   2.333  0.7096  0.2957  0.0760
  415MOL     H333951   0.267   3.721   2.158  0.2417  0.5780  0.0789
  415MOL     H433952   0.123   3.746   2.243  0.1387 -0.0644 -2.3245
  415MOL     H533953   0.267   3.822   2.298 -2.0278  2.1393 -2.7506
  415MOL     C633954   0.411   3.617   2.354 -0.3515  0.5414 -0.0559
  415MOL     O733955   0.442   3.731   2.431 -0.4126 -0.5793  0.5316
  415MOL     H833956   0.467   3.604   2.261 -1.0620 -0.3845 -0.3498
  415MOL     H933957   0.438   3.531   2.415 -0.0518 -1.0370 -2.3447
  415MOL    C1033958   0.567   3.724   2.499  0.8978  0.5016  0.1386
  415MOL    O1133959   0.670   3.717   2.402 -0.4261  0.4518 -0.4099
  415MOL    H1233960   0.569   3.643   2.571  2.6926 -0.6914 -1.2054
  415MOL    H1333961   0.571   3.817   2.555  1.3728  0.5524  0.0211
  415MOL    C1433962   0.797   3.674   2.455  0.2567 -0.7408  0.2443
  415MOL    O1533963   0.854   3.771   2.536 -0.3178  0.4466  0.0478
  415MOL    H1633964   0.867   3.668   2.371  1.4229 -1.2768  1.2421
  415MOL    H1733965   0.801   3.580   2.511 -0.7446 -0.5640  0.6181
  415MOL    C1833966   0.869   3.892   2.472 -0.0998 -0.2088  0.2009
  415MOL    O1933967   0.960   3.886   2.368  0.0604 -0.0025 -0.0527
  415MOL    H2033968   0.902   3.966   2.545  3.0303 -1.7381  0.4268
  415MOL    H2133969   0.786   3.927   2.410 -1.9914 -1.7689  1.8190
  415MOL    C2233970   1.092   3.862   2.410  0.8740  0.3830  0.2417
  415MOL    O2333971   1.142   3.964   2.487  0.3707 -0.4415 -0.0347
  415MOL    H2433972   1.158   3.846   2.324 -1.3975 -0.5590 -1.3794
  415MOL    H2533973   1.097   3.771   2.469  2.3378 -1.2141 -2.2210
  415MOL    C2633974   1.174   4.080   2.410 -0.6269  0.2580  0.0710
  415MOL    O2733975   1.294   4.059   2.336  0.9040  0.5882 -0.0162
  415MOL    H2833976   1.178   4.165   2.479  1.6839  0.0070  0.2829
  415MOL    H2933977   1.085   4.091   2.349 -0.5928  2.3651  0.3649
  415MOL    C3033978   1.304   4.168   2.244 -0.5640 -0.1561  0.2081
  415MOL    O3133979   1.305   4.293   2.310 -0.3772 -0.3431 -0.1383
  415MOL    H3233980   1.214   4.162   2.182 -1.3668 -0.6757  1.3954
  415MOL    H3333981   1.394   4.163   2.182  0.6791 -0.5795  2.0229
  415MOL    C3433982   1.415   4.318   2.389 -0.0808 -0.2655 -0.2105
  415MOL    O3533983   1.531   4.344   2.315 -0.3518  1.0800 -0.4617
  415MOL    H3633984   1.438   4.229   2.447  0.6234  1.4534  2.2548
  415MOL    H3733985   1.404   4.404   2.456 -1.8998 -0.1831 -0.5767
  415MOL    C3833986   1.510   4.466   2.244 -0.3243 -0.2841  0.3523
  415MOL    O3933987   1.626   4.515   2.170 -0.2081  0.4640  0.2106
  415MOL    H4033988   1.490   4.548   2.313  0.4755 -1.5358  2.1256
  415MOL    H4133989   1.433   4.463   2.168  1.4008 -0.6035 -1.4252
  415MOL    C4233990   1.651   4.430   2.063  0.1960 -0.5739  0.0361
  415MOL    O4333991   1.548   4.439   1.967  0.1956  0.2534 -0.0890
  415MOL    H4433992   1.645   4.331   2.109  0.5697  1.2569  4.1920
  415MOL    H4533993   1.753   4.446   2.028 -0.4604 -0.8662 -2.1206
  415MOL    C4633994   1.585   4.360   1.858  0.3363  0.1814  0.3782
  415MOL    O4733995   1.537   4.232   1.884  0.1377 -0.3120  0.5314
  415MOL    H4833996   1.688   4.353   1.823  0.3466  0.7073  0.3075
  415MOL    H4933997   1.536   4.402   1.770 -0.1140 -0.7907  0.1555
  415MOL    C5033998   1.529   4.152   1.765  0.7218  0.0577 -0.1118
  415MOL    O5133999   1.649   4.140   1.702 -0.2749 -0.2661  0.1336
  415MOL    H5234000   1.457   4.188   1.692  0.1213 -0.8586  0.0150
  415MOL    H5334001   1.499   4.051   1.793  1.3501 -0.1445 -0.1657
  415MOL    C5434002   1.733   4.059   1.770  0.8180  0.1724 -0.0614
  415MOL    O5534003   1.862   4.059   1.716  0.2549  0.4486  0.7749
  415MOL    H5634004   1.690   3.959   1.770 -1.1407  0.9744 -0.5717
  415MOL    H5734005   1.738   4.094   1.873  0.9709  0.4765 -0.1710
  415MOL    C5834006   1.922   4.181   1.716  0.5196  0.1052 -0.2301
  415MOL    O5934007   2.036   4.162   1.649 -0.1963 -0.2127 -0.3839
  415MOL    H6034008   1.949   4.215   1.816  1.8818  2.4426 -1.3405
  415MOL    H6134009   1.864   4.261   1.669 -0.1766  0.7533  1.6480
  415MOL    C6234010   2.128   4.087   1.726 -0.6460 -0.5869  0.6152
  415MOL    O6334011   2.161   4.148   1.846 -0.0486  0.1120 -0.6892
  415MOL    H6434012   2.218   4.083   1.665 -1.8741 -1.3296 -1.1722
  415MOL    H6534013   2.101   3.981   1.724 -2.0801 -0.1947 -1.6634
  415MOL    C6634014   2.262   4.245   1.837  0.1219  0.6301 -0.5562
  415MOL    O6734015   2.387   4.194   1.836 -0.1791  0.2374  0.5313
  415MOL    H6834016   2.251   4.307   1.926 -0.7278 -0.4879  0.1274
  415MOL    H6934017   2.251   4.319   1.758 -0.3342  0.6140 -0.5122
  415MOL    C7034018   2.482   4.291   1.821  0.3429 -0.1118  0.0081
  415MOL    O7134019   2.497   4.324   1.691 -0.0074  0.4106  0.1935
  415MOL    H7234020   2.576   4.257   1.863  2.3495  3.3002 -1.5725
  415MOL    H7334021   2.455   4.380   1.878  1.3844 -0.2172  0.6769
  415MOL    C7434022   2.580   4.230   1.625  0.5980  0.4888  0.0147
  415MOL    O7534023   2.726   4.243   1.646  0.3138 -0.3355  0.4036
  415MOL    H7634024   2.555   4.249   1.520 -1.6613  1.6793  0.7271
  415MOL    H7734025   2.558   4.126   1.649  0.1239 -0.2623 -3.4341
  415MOL    C7834026   2.779   4.370   1.611 -0.2106  0.5947  0.2860
  415MOL    O7934027   2.914   4.366   1.600 -0.5424  0.3605 -0.0344
  415MOL    H8034028   2.738   4.448   1.675  1.1513  1.0663  0.5917
  415MOL    H8134029   2.741   4.385   1.510 -0.1374  1.7651  0.4295
  415MOL    H8234030   2.947   4.299   1.542 -0.6159  0.7477 -0.5237
  416MOL     C134031   4.900   0.624   7.183 -0.0298 -0.8865  0.6732
  416MOL     O234032   5.034   0.629   7.135 -0.1055 -0.1212  0.2630
  416MOL     H334033   4.910   0.612   7.291 -0.2903 -0.3095  0.7647
  416MOL     H434034   4.860   0.724   7.170 -1.8557 -1.5242  1.2687
  416MOL     H534035   4.828   0.557   7.135 -1.1665  0.2947  0.6926
  416MOL     C634036   5.117   0.729   7.190 -0.0570 -0.2365 -0.2766
  416MOL     O734037   5.160   0.693   7.320 -0.3758  0.2128  0.3865
  416MOL     H834038   5.064   0.823   7.180  1.3118  0.7236  1.2781
  416MOL     H934039   5.200   0.732   7.120 -1.7672 -3.8129 -2.6437
  416MOL    C1034040   5.264   0.604   7.314 -0.2170 -0.0802  0.6660
  416MOL    O1134041   5.382   0.673   7.281 -0.0557 -0.1488  0.7364
  416MOL    H1234042   5.239   0.533   7.235 -4.0670  0.6998  1.0945
  416MOL    H1334043   5.281   0.557   7.411  0.5225  1.2991  1.2281
  416MOL    C1434044   5.487   0.578   7.289  1.3072  0.1822  0.1609
  416MOL    O1534045   5.532   0.553   7.422  0.0641  0.5169  0.2042
  416MOL    H1634046   5.560   0.632   7.228  0.4758 -0.9105 -1.8421
  416MOL    H1734047   5.483   0.483   7.235  0.7327 -0.1430  0.7780
  416MOL    C1834048   5.662   0.597   7.441  0.1043  0.0252 -0.8237
  416MOL    O1934049   5.674   0.739   7.448 -0.2696 -0.2550  0.0862
  416MOL    H2034050   5.732   0.558   7.368  1.6291 -0.4828  0.8810
  416MOL    H2134051   5.701   0.568   7.538  1.4410 -0.0933 -1.3848
  416MOL    C2234052   5.591   0.798   7.548 -0.6624  0.4299 -0.4708
  416MOL    O2334053   5.651   0.798   7.679 -0.2209 -0.4532  0.6762
  416MOL    H2434054   5.494   0.749   7.538 -0.1221 -1.2394  2.0535
  416MOL    H2534055   5.571   0.903   7.524  0.0545  0.9451  1.0585
  416MOL    C2634056   5.747   0.887   7.682  0.3182 -0.4262  0.2715
  416MOL    O2734057   5.701   1.019   7.697  0.5549  0.4307 -0.2551
  416MOL    H2834058   5.810   0.889   7.593 -1.0107 -0.6284 -0.6781
  416MOL    H2934059   5.815   0.862   7.764  1.2434 -0.6287 -0.5596
  416MOL    C3034060   5.676   1.053   0.041 -0.4538  0.0993  0.6117
  416MOL    O3134061   5.791   1.045   0.123  0.3109 -0.1587 -0.0872
  416MOL    H3234062   5.596   0.986   0.072 -0.2142  0.3523  1.8130
  416MOL    H3334063   5.629   1.151   0.047 -0.2790  0.2192  0.0547
  416MOL    C3434064   5.890   1.141   0.082 -0.6460 -0.4549  0.7472
  416MOL    O3534065   5.835   1.275   0.079 -0.4238  0.2887  0.4223
  416MOL    H3634066   5.912   1.105   7.766 -0.0866  1.5431  0.1292
  416MOL    H3734067   5.980   1.128   0.143 -1.2398 -0.2461  1.6800
  416MOL    C3834068   5.852   1.351   0.200  0.3760  0.0789 -0.0065
  416MOL    O3934069   5.985   1.380   0.234  0.8114 -0.6181 -0.1695
  416MOL    H4034070   5.826   1.288   0.285 -0.1765  0.5790  0.1978
  416MOL    H4134071   5.791   1.441   0.208  2.5571  1.6015 -0.2750
  416MOL    C4234072   6.060   1.450   0.136 -0.1259  0.1261  0.3464
  416MOL    O4334073   6.003   1.576   0.100 -0.1085 -0.4767 -0.0491
  416MOL    H4434074   6.063   1.391   0.044 -0.9058 -2.3135  1.8576
  416MOL    H4534075   6.165   1.450   0.164  0.0596 -0.1996 -0.3326
  416MOL    C4634076   6.007   1.661   0.217 -0.6598  0.3947 -0.0448
  416MOL    O4734077   5.969   1.782   0.174 -0.4556  0.6872  0.1446
  416MOL    H4834078   6.108   1.655   0.256 -0.5821  1.6534 -0.0152
  416MOL    H4934079   5.942   1.625   0.297 -0.9631 -2.0154 -1.3530
  416MOL    C5034080   5.975   1.879   0.273  0.2566 -0.3443 -0.9499
  416MOL    O5134081   5.856   1.886   0.339  0.0733  0.4094 -0.2536
  416MOL    H5234082   5.995   1.978   0.231  2.5103  0.1854  1.2198
  416MOL    H5334083   6.052   1.872   0.350  1.1586 -1.5408 -1.9396
  416MOL    C5434084   5.761   1.965   0.272 -0.3500 -0.0935 -0.1286
  416MOL    O5534085   5.790   2.101   0.279 -0.4834  0.2885  0.1853
  416MOL    H5634086   5.662   1.948   0.314 -1.4529  0.2870 -2.4972
  416MOL    H5734087   5.752   1.935   0.167 -1.6287 -2.7579  0.6818
  416MOL    C5834088   5.702   2.171   0.204 -0.2381  0.2311 -0.3186
  416MOL    O5934089   5.727   2.168   0.073  0.0520  0.3189  0.2271
  416MOL    H6034090   5.713   2.273   0.243  2.8451  0.1370 -0.8189
  416MOL    H6134091   5.597   2.151   0.228  0.2102 -3.7589 -1.4454
  416MOL    C6234092   5.844   2.243   0.043  0.5276  1.4399  0.2252
  416MOL    O6334093   5.810   2.380   0.027  0.3213  0.7678  0.1251
  416MOL    H6434094   5.892   2.209   7.735 -1.2081  0.1252 -0.2205
  416MOL    H6534095   5.918   2.234   0.121 -0.5217  1.6901  1.2582
  416MOL    C6634096   5.743   2.405   7.698 -0.1065 -0.5166  0.5254
  416MOL    O6734097   5.808   2.363   7.578  0.0981 -0.2700  0.1958
  416MOL    H6834098   5.724   2.512   7.689  1.6388  0.0960  3.3812
  416MOL    H6934099   5.646   2.356   7.702  0.0629 -0.9109 -0.1147
  416MOL    C7034100   5.910   2.455   7.539 -0.6217 -0.2484  0.5780
  416MOL    O7134101   5.843   2.569   7.481  0.0293 -0.1029  0.1370
  416MOL    H7234102   5.974   2.410   7.464 -1.7209  2.4811 -2.0733
  416MOL    H7334103   5.969   2.486   7.625 -2.2499  0.1060  1.6035
  416MOL    C7434104   5.926   2.652   7.413  0.5351  0.4425 -0.3431
  416MOL    O7534105   5.967   2.616   7.287  0.4282 -0.2536 -0.6599
  416MOL    H7634106   6.015   2.679   7.469  0.7497 -3.0112  1.1129
  416MOL    H7734107   5.873   2.746   7.424  0.9772  0.6168  0.3451
  416MOL    C7834108   5.863   2.622   7.201 -0.6468 -0.6537  0.1058
  416MOL    O7934109   5.914   2.602   7.076  0.4501 -0.1337 -0.0860
  416MOL    H8034110   5.823   2.724   7.205 -2.6613 -1.4278  0.6587
  416MOL    H8134111   5.794   2.542   7.229  1.1573 -2.4660 -0.5325
  416MOL    H8234112   5.970   2.675   7.056  0.8965  0.0830  1.8687
  417MOL     C134113   3.158   1.483   7.632 -0.5976  0.0727  1.1511
  417MOL     O234114   3.171   1.339   7.620 -0.3428  0.0861 -0.4969
  417MOL     H334115   3.107   1.527   7.546 -1.1271 -1.2649  0.7748
  417MOL     H434116   3.090   1.509   7.713 -0.6896 -0.5406  1.2695
  417MOL     H534117   3.255   1.534   7.632  0.0056 -1.0120 -1.5383
  417MOL     C634118   3.252   1.278   7.705 -0.8591 -0.3359  0.5281
  417MOL     O734119   3.384   1.327   7.705 -0.1978 -0.7609  0.0340
  417MOL     H834120   3.240   1.171   7.689 -2.6801  0.1044 -1.1970
  417MOL     H934121   3.216   1.298   0.022 -1.1842  0.9477  0.1649
  417MOL    C1034122   3.451   1.296   7.594 -0.4883  0.0365 -0.1378
  417MOL    O1134123   3.450   1.405   7.507 -0.1410 -0.0378  0.1767
  417MOL    H1234124   3.413   1.208   7.544  2.6022 -1.0647 -0.6677
  417MOL    H1334125   3.556   1.269   7.606 -0.1946  0.9775 -0.4819
  417MOL    C1434126   3.515   1.516   7.554 -0.1032  0.0424  0.4830
  417MOL    O1534127   3.553   1.604   7.451  0.3280  0.3200 -0.6057
  417MOL    H1634128   3.606   1.486   7.607  0.1376  0.7707  0.4925
  417MOL    H1734129   3.449   1.567   7.624  1.2811  0.6447  1.3701
  417MOL    C1834130   3.653   1.539   7.369 -0.4547 -0.0942 -0.1903
  417MOL    O1934131   3.778   1.537   7.430 -0.0346 -0.4653 -0.5660
  417MOL    H2034132   3.670   1.589   7.274  2.2067 -3.1930 -1.4374
  417MOL    H2134133   3.620   1.437   7.348 -3.2698  0.7399 -0.0931
  417MOL    C2234134   3.853   1.663   7.428 -0.7424 -0.2727 -0.5788
  417MOL    O2334135   3.917   1.672   7.301  0.4170 -0.2965 -0.1166
  417MOL    H2434136   3.923   1.674   7.511 -1.3927 -0.8311  0.0460
  417MOL    H2534137   3.788   1.750   7.437  0.1105  0.4009 -0.8343
  417MOL    C2634138   4.028   1.592   7.290  0.0373  0.1534 -0.4340
  417MOL    O2734139   4.135   1.643   7.364 -0.4345  0.2025 -0.2453
  417MOL    H2834140   4.049   1.590   7.183  2.2734 -1.5935  0.0106
  417MOL    H2934141   3.989   1.494   7.315 -0.3309  1.0652  2.6897
  417MOL    C3034142   4.244   1.556   7.373  0.8348 -0.4340 -0.0282
  417MOL    O3134143   4.211   1.440   7.446  0.1882 -0.1635 -0.2943
  417MOL    H3234144   4.331   1.601   7.422  1.5399 -1.1478 -0.5925
  417MOL    H3334145   4.291   1.536   7.277 -0.3290 -0.2012 -0.6468
  417MOL    C3434146   4.198   1.472   7.588 -0.8499  0.0282  0.7553
  417MOL    O3534147   4.321   1.507   7.644  0.4108  0.6791  0.1525
  417MOL    H3634148   4.166   1.381   7.639  2.8587 -0.8637  1.6640
  417MOL    H3734149   4.126   1.551   7.604 -2.7325 -1.9765  2.5909
  417MOL    C3834150   4.421   1.414   7.624 -0.4476  0.1169  1.0096
  417MOL    O3934151   4.417   1.325   7.734 -0.5536 -0.5118 -0.0496
  417MOL    H4034152   4.518   1.460   7.608 -0.1179 -0.5083  1.2217
  417MOL    H4134153   4.406   1.357   7.533  3.7241  1.4911 -0.6393
  417MOL    C4234154   4.495   1.379   0.057 -0.2770  0.0286  0.3921
  417MOL    O4334155   4.632   1.353   0.038 -0.8123 -0.1025 -0.3509
  417MOL    H4434156   4.457   1.359   0.157  0.2554  0.7955  0.7492
  417MOL    H4534157   4.479   1.487   0.055 -0.5022 -0.0162 -1.2162
  417MOL    C4634158   4.654   1.210   0.046  0.3127 -0.3255 -0.1977
  417MOL    O4734159   4.670   1.174   0.180 -0.2530  0.1813 -0.1225
  417MOL    H4834160   4.740   1.184   7.767 -1.3563  1.5001 -3.3847
  417MOL    H4934161   4.575   1.155   7.779  1.6396 -2.2320 -0.2658
  417MOL    C5034162   4.780   1.230   0.248 -0.3994 -0.3560  0.1756
  417MOL    O5134163   4.775   1.207   0.383  0.5185  0.2943 -0.5003
  417MOL    H5234164   4.780   1.338   0.237 -1.5372 -0.4230 -0.5240
  417MOL    H5334165   4.874   1.187   0.213 -0.9152 -1.6275  0.3420
  417MOL    C5434166   4.759   1.074   0.418 -0.0726 -0.1753 -0.3194
  417MOL    O5534167   4.872   0.980   0.393 -0.1903 -0.3367  0.2645
  417MOL    H5634168   4.670   1.034   0.369  0.8831 -1.9644 -0.6352
  417MOL    H5734169   4.743   1.074   0.526  1.2549 -1.8651 -0.0920
  417MOL    C5834170   4.859   0.862   0.447 -0.1234  0.6103 -0.8783
  417MOL    O5934171   4.748   0.790   0.405 -1.0323  0.5215  0.0602
  417MOL    H6034172   4.856   0.872   0.555  1.4570 -1.1354 -0.6585
  417MOL    H6134173   4.950   0.808   0.421  0.0849 -0.4043  1.7916
  417MOL    C6234174   4.736   0.774   0.273 -0.1148  0.9049  0.6211
  417MOL    O6334175   4.830   0.681   0.223 -0.3333 -0.2486  0.2666
  417MOL    H6434176   4.741   0.872   0.226 -0.4162  0.3819 -0.5133
  417MOL    H6534177   4.634   0.741   0.253  0.4574 -0.9207  0.5944
  417MOL    C6634178   4.826   0.554   0.289 -1.2206  0.5151 -0.1712
  417MOL    O6734179   4.702   0.483   0.273  0.0403  0.0931  0.3982
  417MOL    H6834180   4.856   0.571   0.393 -0.6102  0.1037 -0.2764
  417MOL    H6934181   4.909   0.490   0.259 -1.8390 -0.8758  1.0529
  417MOL    C7034182   4.689   0.432   0.150  0.5159 -1.0634  0.8045
  417MOL    O7134183   4.769   0.313   0.142  0.6764  0.1030  0.2605
  417MOL    H7234184   4.709   0.518   0.086  1.9719 -1.3339  0.8874
  417MOL    H7334185   4.582   0.408   0.143  0.3911  0.1612 -2.7166
  417MOL    C7434186   4.712   0.204   0.196  0.1856 -0.2537  0.0708
  417MOL    O7534187   4.599   0.164   0.133  0.2250 -0.0470 -0.4375
  417MOL    H7634188   4.688   0.225   0.301 -0.9885 -1.5675  0.0684
  417MOL    H7734189   4.783   0.121   0.197  1.2726  0.6575  0.3966
  417MOL    C7834190   4.630   0.098   0.011  0.2049  0.7530 -0.1121
  417MOL    O7934191   4.514   0.087   7.708 -0.2928  0.0386 -0.3607
  417MOL    H8034192   4.672   7.783   0.033  1.3861  0.2153 -4.3910
  417MOL    H8134193   4.701   0.155   7.735 -0.2361 -0.6778 -2.0367
  417MOL    H8234194   4.524   0.154   7.641 -2.0003 -0.9644 -1.6913
  418MOL     C134195   3.877   4.683   0.933 -0.8303 -0.3659  0.7546
  418MOL     O234196   3.775   4.752   1.009 -0.4499  0.4734 -0.4237
  418MOL     H334197   3.881   4.739   0.840  0.4782 -1.2950  0.2386
  418MOL     H434198   3.974   4.682   0.983 -0.4484  1.3913  0.0906
  418MOL     H534199   3.847   4.581   0.912  2.8310 -1.2100 -0.6202
  418MOL     C634200   3.647   4.709   0.997 -0.2780  0.0631 -0.2433
  418MOL     O734201   3.639   4.582   1.046 -0.3002  0.1859  0.1291
  418MOL     H834202   3.605   4.716   0.897 -0.4619  1.8395 -0.0642
  418MOL     H934203   3.594   4.781   1.059 -1.2188 -0.9275  0.1264
  418MOL    C1034204   3.662   4.567   1.181 -0.9481  0.2356 -0.4109
  418MOL    O1134205   3.551   4.615   1.255  0.5941 -0.1208  0.4614
  418MOL    H1234206   3.746   4.622   1.222 -0.1688 -1.3079  0.1241
  418MOL    H1334207   3.688   4.464   1.209  0.7520  0.1098 -2.3635
  418MOL    C1434208   3.445   4.527   1.256  0.1498 -1.7529 -0.2543
  418MOL    O1534209   3.465   4.442   1.362  0.2932  0.1975  0.1785
  418MOL    H1634210   3.435   4.476   1.160 -1.8656  1.3633 -1.7756
  418MOL    H1734211   3.355   4.587   1.267  1.1906 -0.2063 -0.0952
  418MOL    C1834212   3.417   4.501   1.477  0.1115  0.0503 -0.1272
  418MOL    O1934213   3.281   4.486   1.486  0.4886  0.2311  0.1455
  418MOL    H2034214   3.439   4.608   1.477 -2.5833  0.6345 -1.6293
  418MOL    H2134215   3.457   4.445   1.561  0.4360 -0.9849 -0.9668
  418MOL    C2234216   3.229   4.592   1.562 -0.5239 -0.3230  0.1668
  418MOL    O2334217   3.215   4.715   1.495 -0.2588  0.2571  0.1063
  418MOL    H2434218   3.292   4.613   1.648  0.4935 -0.2232 -0.5875
  418MOL    H2534219   3.132   4.562   1.601 -0.2366 -0.5540  0.7136
  418MOL    C2634220   3.124   4.704   1.385  0.0744  0.2783  0.2601
  418MOL    O2734221   2.988   4.708   1.428  0.1828 -0.3982  0.0095
  418MOL    H2834222   3.150   4.616   1.327  0.4135  0.9030 -0.5627
  418MOL    H2934223   3.142   4.790   1.320 -1.1506  1.6240  1.6647
  418MOL    C3034224   2.949   4.836   1.456  0.6594 -0.0242  0.2565
  418MOL    O3134225   2.924   4.900   1.333  0.3233  0.0784  0.3645
  418MOL    H3234226   3.015   4.895   1.519  0.2597  1.7342 -0.9411
  418MOL    H3334227   2.853   4.831   1.508  0.2542 -0.1229 -0.4945
  418MOL    C3434228   2.843   5.016   1.344 -0.2590  0.2526 -0.0834
  418MOL    O3534229   2.711   4.992   1.371 -0.1670  0.6853  0.1649
  418MOL    H3634230   2.848   5.071   1.250  3.8926  0.0232 -0.0715
  418MOL    H3734231   2.884   5.078   1.423 -1.8495  0.8287  0.3115
  418MOL    C3834232   2.649   4.896   1.280 -0.3296 -0.2251 -0.6617
  418MOL    O3934233   2.514   4.859   1.316  0.3793 -0.5614 -0.2173
  418MOL    H4034234   2.708   4.804   1.277  0.4188  0.2912 -2.6117
  418MOL    H4134235   2.656   4.938   1.180  0.7174  2.3310  0.4466
  418MOL    C4234236   2.472   4.752   1.241  0.4503  0.3142  0.4288
  418MOL    O4334237   2.441   4.788   1.112  0.0172  0.2627  0.1503
  418MOL    H4434238   2.381   4.721   1.290 -1.1203 -0.2584 -2.7164
  418MOL    H4534239   2.544   4.670   1.242  0.0789 -0.0031  0.7080
  418MOL    C4634240   2.322   4.863   1.098  0.1509  0.3073  0.3531
  418MOL    O4734241   2.207   4.787   1.116 -0.3098 -0.1023  0.1332
  418MOL    H4834242   2.332   4.892   0.993 -0.6799  0.2639  0.2594
  418MOL    H4934243   2.326   4.942   1.172  1.2702  1.3967 -0.8267
  418MOL    C5034244   2.193   4.691   1.022 -0.1581  0.5490  0.4986
  418MOL    O5134245   2.061   4.661   1.003  0.5439 -0.0127  0.3005
  418MOL    H5234246   2.249   4.599   1.041 -1.8406 -0.4978  0.5437
  418MOL    H5334247   2.231   4.735   0.930 -0.1735  0.5386  0.4875
  418MOL    C5434248   2.030   4.582   0.893 -0.7716  0.0369 -0.0299
  418MOL    O5534249   2.065   4.444   0.916 -0.6584 -0.1545  0.1062
  418MOL    H5634250   2.091   4.604   0.805 -1.2340 -1.6702 -0.7931
  418MOL    H5734251   1.923   4.590   0.872 -0.3793 -0.0402 -2.1931
  418MOL    C5834252   1.997   4.403   1.033 -0.5695 -0.0624  0.3190
  418MOL    O5934253   1.865   4.395   0.999  0.9699 -0.2444 -0.4680
  418MOL    H6034254   2.018   4.479   1.109 -1.2640  0.8927 -0.4390
  418MOL    H6134255   2.034   4.307   1.069 -0.2015  0.0512  0.2419
  418MOL    C6234256   1.789   4.361   1.112 -0.4740 -0.0174  0.8724
  418MOL    O6334257   1.818   4.243   1.181  0.8015 -0.0451  0.5473
  418MOL    H6434258   1.684   4.375   1.089 -0.3281 -1.5977 -0.9632
  418MOL    H6534259   1.815   4.446   1.174  2.5809 -0.5199  0.3668
  418MOL    C6634260   1.736   4.137   1.148  0.6859  0.5696  0.9385
  418MOL    O6734261   1.625   4.126   1.235 -0.0782 -0.3328  0.0889
  418MOL    H6834262   1.799   4.048   1.139  0.2800  0.4585 -1.0771
  418MOL    H6934263   1.692   4.150   1.049  0.4921 -3.2462  0.4136
  418MOL    C7034264   1.673   4.080   1.358  0.8757 -0.1808 -0.1209
  418MOL    O7134265   1.713   3.943   1.354  0.0977  0.3396  0.0339
  418MOL    H7234266   1.593   4.088   1.433  3.5401  0.2001  2.8001
  418MOL    H7334267   1.753   4.141   1.400 -0.6830  0.9609  1.2991
  418MOL    C7434268   1.612   3.846   1.330  0.8604 -0.3784  0.7221
  418MOL    O7534269   1.537   3.831   1.450 -0.7727 -0.2587  0.6467
  418MOL    H7634270   1.655   3.749   1.305  2.0169  0.5899 -1.1708
  418MOL    H7734271   1.546   3.884   1.253  0.7106  0.4531  1.2602
  418MOL    C7834272   1.606   3.768   1.549  0.8996  0.0190 -0.0833
  418MOL    O7934273   1.523   3.771   1.663  0.4673 -0.3818  0.0552
  418MOL    H8034274   1.698   3.823   1.572  1.3597 -1.5225  1.8859
  418MOL    H8134275   1.627   3.666   1.517 -3.1037 -1.3883  1.4707
  418MOL    H8234276   1.444   3.725   1.639  0.6969 -1.3557  1.1622
  419MOL     C134277   7.323   0.672   2.462  0.0705  0.2509 -0.1064
  419MOL     O234278   7.260   0.634   2.338 -0.3536 -0.2113 -0.3962
  419MOL     H334279   7.405   0.741   2.442  0.4622 -0.1383  0.1543
  419MOL     H434280   7.257   0.720   2.533 -0.1633 -0.6540  0.2980
  419MOL     H534281   7.364   0.589   2.520 -2.0864 -1.0369 -0.3505
  419MOL     C634282   7.136   0.581   2.362 -0.7339 -0.0854  0.1900
  419MOL     O734283   7.138   0.442   2.400  0.3786 -0.8396  0.1237
  419MOL     H834284   7.082   0.593   2.268  0.3612 -0.6431 -0.5188
  419MOL     H934285   7.071   0.633   2.433 -1.9952  0.0200 -1.0309
  419MOL    C1034286   7.172   0.359   2.293 -0.2758  0.0982  0.3252
  419MOL    O1134287   7.068   0.353   2.204  0.3918  0.2121 -0.1826
  419MOL    H1234288   7.199   0.260   2.329 -1.2572 -0.6041 -0.8403
  419MOL    H1334289   7.248   0.410   2.235 -0.4162 -2.3158 -2.0749
  419MOL    C1434290   6.958   0.280   2.254  0.1456 -0.1412  0.2691
  419MOL    O1534291   6.984   0.146   2.252 -0.1071 -0.4054  0.4241
  419MOL    H1634292   6.869   0.307   2.196  0.5095  0.7168  0.1032
  419MOL    H1734293   6.925   0.302   2.355 -0.5470  0.7797 -0.1485
  419MOL    C1834294   6.879   0.056   2.277 -0.2812 -0.5024  0.1327
  419MOL    O1934295   6.832   0.079   2.407 -0.1839  0.1591 -0.0714
  419MOL    H2034296   6.921   7.740   2.257  0.9530 -0.2618  1.4427
  419MOL    H2134297   6.795   0.082   2.214  0.0020  0.3954  0.1259
  419MOL    C2234298   6.900   0.011   2.510  0.3525 -0.5403  0.1703
  419MOL    O2334299   6.879   7.659   2.503 -0.0374 -0.2635 -0.6470
  419MOL    H2434300   6.866   0.047   2.607 -0.8096  2.8685 -1.3951
  419MOL    H2534301   7.005   0.032   2.489  0.4306  0.0791  1.1700
  419MOL    C2634302   6.753   7.616   2.547  0.7589  0.2088  0.2561
  419MOL    O2734303   6.652   7.645   2.461 -0.2074  0.7567  0.2930
  419MOL    H2834304   6.724   7.654   2.645  1.8527 -1.9196  1.4314
  419MOL    H2934305   6.758   7.510   2.568 -0.8430  0.4284  1.8437
  419MOL    C3034306   6.660   7.578   2.338  0.5006 -0.2576 -0.0356
  419MOL    O3134307   6.617   7.448   2.347 -0.0875 -0.6482  0.0348
  419MOL    H3234308   6.757   7.583   2.287  0.8880 -0.7915  0.6437
  419MOL    H3334309   6.590   7.631   2.273 -1.5996 -1.4383  1.2051
  419MOL    C3434310   6.488   7.437   2.399  0.2577 -0.4286 -0.3900
  419MOL    O3534311   6.392   7.437   2.299  0.1988 -0.4581 -0.3464
  419MOL    H3634312   6.457   7.519   2.463  0.4716 -1.8086  1.5193
  419MOL    H3734313   6.488   7.358   2.474 -0.4446  1.8567  2.0624
  419MOL    C3834314   6.372   7.315   2.240  0.6285 -0.2824  0.1881
  419MOL    O3934315   6.316   7.227   2.331 -0.1094  0.4974  0.6618
  419MOL    H4034316   6.469   7.281   2.202  0.7068 -0.1281  0.2508
  419MOL    H4134317   6.305   7.313   2.154  0.7576 -1.9129  0.1033
  419MOL    C4234318   6.305   7.097   2.277 -0.0288  0.4321 -0.2004
  419MOL    O4334319   6.419   7.024   2.264 -0.1953 -0.0563 -0.3668
  419MOL    H4434320   6.254   7.093   2.181 -3.2443  1.7929  1.3976
  419MOL    H4534321   6.235   7.039   2.338  0.7109 -1.9338 -1.5023
  419MOL    C4634322   6.477   6.995   2.381  0.6704  0.6750 -0.6460
  419MOL    O4734323   6.396   6.917   2.462 -0.0512  0.2193  0.3541
  419MOL    H4834324   6.486   7.088   2.437  2.3365 -0.7925  1.6341
  419MOL    H4934325   6.574   6.954   2.356  0.2403 -0.7104 -0.0888
  419MOL    C5034326   6.381   6.789   2.412 -0.6132  0.3813 -0.8960
  419MOL    O5134327   6.494   6.722   2.420 -0.0142 -0.1346  0.5410
  419MOL    H5234328   6.355   6.794   2.307  0.3264 -2.0189 -1.2688
  419MOL    H5334329   6.303   6.742   2.472  1.5418  0.2931  1.9190
  419MOL    C5434330   6.528   6.684   2.549 -0.0693  0.4109  0.0657
  419MOL    O5534331   6.622   6.573   2.543  0.0101 -0.2105  0.8089
  419MOL    H5634332   6.435   6.655   2.597 -0.1913  1.7135  0.6558
  419MOL    H5734333   6.565   6.774   2.598  1.3110 -0.9857  1.6902
  419MOL    C5834334   6.743   6.617   2.490  0.6416 -0.4925 -0.3597
  419MOL    O5934335   6.828   6.503   2.472  0.1133  0.0638  0.4139
  419MOL    H6034336   6.800   6.695   2.541  0.9928 -1.2998  0.4766
  419MOL    H6134337   6.728   6.657   2.389 -0.3510 -0.5002 -0.2254
  419MOL    C6234338   6.879   6.456   2.591 -0.1240 -0.3143 -0.2357
  419MOL    O6334339   6.976   6.540   2.651  0.2463 -0.4528  0.2821
  419MOL    H6434340   6.922   6.360   2.558 -0.7126 -0.3684 -0.8644
  419MOL    H6534341   6.798   6.439   2.662 -0.6658  0.0677 -0.7639
  419MOL    C6634342   7.091   6.542   2.582  0.4672  0.3842 -0.4755
  419MOL    O6734343   7.167   6.429   2.594  0.0516  0.2957  0.0266
  419MOL    H6834344   7.148   6.621   2.631 -1.7038  2.1002 -0.6562
  419MOL    H6934345   7.079   6.584   2.483  1.1963  1.8582  0.0389
  419MOL    C7034346   7.284   6.434   2.518  0.8324 -0.0765  0.3109
  419MOL    O7134347   7.360   6.546   2.550  0.2536 -0.6866 -0.2807
  419MOL    H7234348   7.263   6.442   2.411  4.2038 -0.0241 -0.4131
  419MOL    H7334349   7.342   6.343   2.533  2.3758  0.6940 -0.8383
  419MOL    C7434350   7.479   6.511   2.616  0.3088  0.2479 -0.4609
  419MOL    O7534351   7.558   6.613   2.655 -0.1092  0.0225 -0.7415
  419MOL    H7634352   7.537   6.452   2.546  0.2895 -1.9027  1.2647
  419MOL    H7734353   7.447   6.449   2.701  0.3012  1.9007  0.7625
  419MOL    C7834354   7.531   6.654   2.790  0.2407  0.8316  0.3907
  419MOL    O7934355   7.613   6.761   2.819 -0.7008 -0.2009  0.6465
  419MOL    H8034356   7.561   6.577   2.861  1.3392  1.5158  0.6895
  419MOL    H8134357   7.431   6.684   2.819 -0.5532 -0.4307 -0.9365
  419MOL    H8234358   7.560   6.838   2.805 -0.3630  0.2118  1.6229
  420MOL     C134359   7.543   3.084   0.812 -0.2300  0.2076  0.0730
  420MOL     O234360   7.580   3.223   0.804 -0.5031 -0.0390 -0.1064
  420MOL     H334361   7.604   3.029   0.883  2.2153 -0.9782 -2.8520
  420MOL     H434362   7.436   3.070   0.830 -0.4493  0.3360 -1.0493
  420MOL     H534363   7.560   3.039   0.714  0.3434  0.8253 -0.1112
  420MOL     C634364   7.709   3.241   0.753 -0.0027  0.0224  0.1468
  420MOL     O734365   0.017   3.164   0.826  0.3231  0.3089 -0.2506
  420MOL     H834366   7.729   3.348   0.762 -1.2945  0.1980  1.1200
  420MOL     H934367   7.716   3.213   0.648  0.3427  1.4055 -0.2090
  420MOL    C1034368   0.119   3.239   0.876  0.4489  0.4765 -0.3161
  420MOL    O1134369   0.198   3.292   0.777  0.5213  0.5179  0.4764
  420MOL    H1234370   0.181   3.176   0.939 -1.6233 -1.4511 -0.1457
  420MOL    H1334371   0.084   3.324   0.935  0.7369  1.7044 -1.8780
  420MOL    C1434372   0.278   3.191   0.717  0.0971 -0.7902 -0.0330
  420MOL    O1534373   0.364   3.243   0.617  0.0556 -0.2723  0.4401
  420MOL    H1634374   0.214   3.120   0.666  1.1019 -1.0400 -0.9625
  420MOL    H1734375   0.323   3.117   0.784  1.4669 -0.6579 -0.7979
  420MOL    C1834376   0.485   3.284   0.659  0.4803  0.3031 -0.0169
  420MOL    O1934377   0.571   3.186   0.705  0.5689  0.2987 -0.5964
  420MOL    H2034378   0.473   3.348   0.747 -0.6169  1.4659 -0.9897
  420MOL    H2134379   0.543   3.339   0.585  0.2602  0.2267 -0.2466
  420MOL    C2234380   0.599   3.087   0.610 -0.7035 -0.0301  0.3081
  420MOL    O2334381   0.683   3.125   0.510 -0.4511  0.0488  0.0595
  420MOL    H2434382   0.507   3.046   0.569  0.4961  0.1114 -2.6508
  420MOL    H2534383   0.649   3.009   0.666  1.1937  1.5909  0.9150
  420MOL    C2634384   0.730   3.022   0.436 -0.5047  0.1443  0.1820
  420MOL    O2734385   0.825   2.950   0.504  0.3792  0.0019 -0.0253
  420MOL    H2834386   0.770   3.063   0.343 -0.0947 -1.8268 -0.5215
  420MOL    H2934387   0.643   2.962   0.412 -0.4388  1.1368 -2.6185
  420MOL    C3034388   0.870   2.833   0.442  0.2803 -0.3017  0.0482
  420MOL    O3134389   0.967   2.871   0.350  0.6946 -0.0457 -0.3015
  420MOL    H3234390   0.789   2.779   0.393 -1.3336  0.6570  1.5620
  420MOL    H3334391   0.914   2.767   0.517 -0.4925 -1.1142 -0.2048
  420MOL    C3434392   1.066   2.966   0.397 -0.8368 -0.4169  0.6338
  420MOL    O3534393   1.153   2.908   0.488 -0.6202 -0.1495  0.5321
  420MOL    H3634394   1.019   3.056   0.435 -0.2608  1.1329 -2.1597
  420MOL    H3734395   1.120   3.007   0.312  0.0830  0.0453  1.4288
  420MOL    C3834396   1.287   2.939   0.484 -0.1218 -0.2611  0.0794
  420MOL    O3934397   1.324   3.071   0.498  0.9054 -0.5170  0.0699
  420MOL    H4034398   1.318   2.913   0.383 -1.1947 -1.0057 -0.0600
  420MOL    H4134399   1.344   2.877   0.553 -1.1629 -0.4767  0.7542
  420MOL    C4234400   1.465   3.092   0.519  0.3226 -0.4180  0.0612
  420MOL    O4334401   1.538   3.063   0.399 -0.4178 -0.5282 -0.2471
  420MOL    H4434402   1.501   3.030   0.601  2.2096 -0.8656 -1.0914
  420MOL    H4534403   1.489   3.197   0.536  1.8393 -0.8116  0.4246
  420MOL    C4634404   1.540   3.159   0.299 -0.2961  0.5004 -0.3116
  420MOL    O4734405   1.618   3.262   0.341  0.4477  0.1163  0.2442
  420MOL    H4834406   1.440   3.193   0.273 -0.7235 -0.6347 -0.1601
  420MOL    H4934407   1.581   3.120   0.206 -1.2845  0.4041 -0.7056
  420MOL    C5034408   1.756   3.234   0.349 -0.3024 -0.5167 -0.1099
  420MOL    O5134409   1.818   3.222   0.223 -0.2741  0.0405 -0.5268
  420MOL    H5234410   1.776   3.143   0.405  1.1483 -0.3117 -0.2648
  420MOL    H5334411   1.796   3.314   0.410 -0.3272 -1.1368  0.7237
  420MOL    C5434412   1.859   3.347   0.167 -0.3349  0.1803  0.0754
  420MOL    O5534413   1.749   3.410   0.110  0.1027 -0.6264  0.2314
  420MOL    H5634414   1.937   3.330   0.092  0.1404  0.0146  0.6052
  420MOL    H5734415   1.908   3.413   0.239 -0.3992 -0.8304  1.0552
  420MOL    C5834416   1.697   3.347   7.781  0.6035 -0.2450  0.0943
  420MOL    O5934417   1.575   3.412   7.744  0.6038 -0.0406 -0.2859
  420MOL    H6034418   1.684   3.241   0.017  0.7207 -0.1763  0.5409
  420MOL    H6134419   1.766   3.349   7.697 -0.2377 -0.7468 -0.6150
  420MOL    C6234420   1.473   3.399   0.046  0.6185 -0.4093  0.0233
  420MOL    O6334421   1.425   3.277   0.067  0.1578  0.5219 -0.4482
  420MOL    H6434422   1.403   3.460   7.772 -0.6493 -0.6205  1.3082
  420MOL    H6534423   1.499   3.440   0.143 -0.1535  3.8750 -1.4446
  420MOL    C6634424   1.354   3.214   7.746 -0.4055  0.0924  0.3882
  420MOL    O6734425   1.226   3.268   7.734 -0.6784  0.5050 -0.1039
  420MOL    H6834426   1.350   3.106   7.761  0.9174  0.1558  1.2789
  420MOL    H6934427   1.399   3.234   7.649 -0.1241 -1.2798  0.2192
  420MOL    C7034428   1.146   3.248   0.056 -0.2154 -0.2029 -0.5874
  420MOL    O7134429   1.098   3.117   0.051  0.1894 -0.1835 -0.5003
  420MOL    H7234430   1.059   3.314   0.059  1.5011  2.1859 -1.6251
  420MOL    H7334431   1.195   3.265   0.152 -0.0300 -2.7325 -0.2009
  420MOL    C7434432   1.003   3.108   7.735  0.2745  0.2643 -0.1798
  420MOL    O7534433   0.889   3.193   7.771  0.0261 -0.9662 -0.4875
  420MOL    H7634434   0.972   3.006   7.711  0.6922  0.1003 -0.0322
  420MOL    H7734435   1.058   3.140   7.647  0.2374  0.9588  0.0455
  420MOL    C7834436   0.831   3.147   0.107 -0.3490 -0.2021 -0.3798
  420MOL    O7934437   0.707   3.205   0.144  0.4372  0.4507  0.5347
  420MOL    H8034438   0.893   3.157   0.196  2.0811  0.5495 -2.1054
  420MOL    H8134439   0.805   3.042   0.092 -1.2267 -0.3760  2.0451
  420MOL    H8234440   0.714   3.298   0.160  0.4572  0.9772 -2.2700
  421MOL     C134441   4.207   2.038   0.114 -0.0541 -0.4107 -0.8892
  421MOL     O234442   4.293   1.951   0.035 -0.1407  0.2276  0.7179
  421MOL     H334443   4.121   1.983   0.152 -1.4900  0.1494 -3.2508
  421MOL     H434444   4.266   2.070   0.200 -1.8129 -0.8760  0.5158
  421MOL     H534445   4.160   2.122   0.064 -1.3117  0.3771  1.5332
  421MOL     C634446   4.386   2.014   7.731 -0.5000  0.8131  0.1460
  421MOL     O734447   4.332   2.054   7.616 -0.3329  0.0592  0.1239
  421MOL     H834448   4.453   1.930   7.711 -1.5498 -0.0159  0.0833
  421MOL     H934449   4.442   2.095   7.778  2.1050  1.1469 -3.3535
  421MOL    C1034450   4.312   1.952   7.527 -0.0673  0.0830  1.2078
  421MOL    O1134451   4.432   1.908   7.466 -0.1418 -0.2171 -0.5470
  421MOL    H1234452   4.246   1.971   7.442  2.0533  1.5258 -0.1731
  421MOL    H1334453   4.260   1.870   7.575  1.6411 -1.8722 -0.1810
  421MOL    C1434454   4.470   1.980   7.359 -0.1379 -0.5327 -0.9544
  421MOL    O1534455   4.600   1.939   7.325 -0.0796 -0.3075  0.3249
  421MOL    H1634456   4.472   2.086   7.385  1.6045 -0.3403 -1.8123
  421MOL    H1734457   4.396   1.963   7.281  1.7546 -2.5946 -2.3629
  421MOL    C1834458   4.600   1.813   7.259 -0.4940  0.4666 -0.1602
  421MOL    O1934459   4.641   1.834   7.130 -0.2724 -0.5925 -0.8059
  421MOL    H2034460   4.502   1.765   7.257  0.6614 -2.0174  0.7700
  421MOL    H2134461   4.676   1.752   7.308 -1.0659  0.4086  0.6827
  421MOL    C2234462   4.701   1.717   7.075  0.3476 -0.3323  0.1784
  421MOL    O2334463   4.601   1.625   7.060 -0.2789  0.1999 -0.4326
  421MOL    H2434464   4.781   1.684   7.141  0.7165  1.3766  0.6078
  421MOL    H2534465   4.744   1.742   6.978 -1.5161  0.4209 -0.4793
  421MOL    C2634466   4.627   1.538   6.962  0.0046 -0.2889 -0.1109
  421MOL    O2734467   4.747   1.468   6.978  0.5533  0.1443 -0.2561
  421MOL    H2834468   4.631   1.581   6.862 -0.9408 -0.6818 -0.3170
  421MOL    H2934469   4.547   1.466   6.950 -1.4895  1.0331  1.6536
  421MOL    C3034470   4.724   1.350   7.057  0.0195 -0.3481  1.1396
  421MOL    O3134471   4.667   1.243   6.982 -0.2306 -0.3015 -0.3261
  421MOL    H3234472   4.660   1.381   7.139 -0.9129  1.8847 -0.3939
  421MOL    H3334473   4.817   1.328   7.111  0.5029 -3.0849 -0.6663
  421MOL    C3434474   4.755   1.174   6.891 -0.0505 -0.0826 -0.2953
  421MOL    O3534475   4.795   1.049   6.945  0.0767 -0.3452 -0.1262
  421MOL    H3634476   4.847   1.231   6.881  0.2269 -0.5032 -0.1641
  421MOL    H3734477   4.702   1.149   6.799  0.9218 -3.6510  0.0253
  421MOL    C3834478   4.682   0.972   6.973 -0.0808 -0.0033  0.4996
  421MOL    O3934479   4.618   0.935   6.856  0.1883  0.1333  0.0313
  421MOL    H4034480   4.620   1.023   7.047  1.2626  1.1019  0.8907
  421MOL    H4134481   4.724   0.882   7.017 -0.2891 -0.4091 -0.1225
  421MOL    C4234482   4.685   0.838   6.786 -0.1556  1.1518  0.1964
  421MOL    O4334483   4.639   0.709   6.818  0.6859  0.2790  0.2656
  421MOL    H4434484   4.793   0.847   6.795 -0.0804  0.5182 -0.0353
  421MOL    H4534485   4.662   0.863   6.682  1.1517  0.0160 -0.3840
  421MOL    C4634486   4.671   0.611   6.726  0.2586 -0.5649  0.4014
  421MOL    O4734487   4.805   0.596   6.698  0.2087  0.8399 -0.0723
  421MOL    H4834488   4.621   0.648   6.637  1.4578 -2.1518 -0.9574
  421MOL    H4934489   4.630   0.517   6.761 -1.4604 -1.3218 -3.3914
  421MOL    C5034490   4.834   0.475   6.635  0.3253  0.2798  0.3456
  421MOL    O5134491   4.835   0.368   6.716  0.4549 -0.2709 -0.1990
  421MOL    H5234492   4.935   0.475   6.595  0.5112  0.2604  0.8145
  421MOL    H5334493   4.772   0.463   6.546  1.4815  0.0498 -0.4274
  421MOL    C5434494   4.942   0.368   6.808  0.4168  0.0827 -0.1390
  421MOL    O5534495   5.057   0.319   6.744 -0.7599  0.1983  0.1114
  421MOL    H5634496   4.920   0.305   6.893 -0.9853  1.0026  0.1967
  421MOL    H5734497   4.969   0.466   6.848  0.3726  1.1605 -2.5924
  421MOL    C5834498   5.069   0.178   6.747  0.1539 -0.0677  0.6033
  421MOL    O5934499   5.101   0.130   6.872 -0.3106 -0.1621  0.0172
  421MOL    H6034500   5.134   0.142   6.667  1.6930 -1.1927  2.2961
  421MOL    H6134501   4.974   0.130   6.726  0.5145 -0.0934 -1.0334
  421MOL    C6234502   5.228   0.165   6.916  0.4473 -0.0677  0.2461
  421MOL    O6334503   5.221   0.273   6.996 -0.2159  0.1332  0.5616
  421MOL    H6434504   5.291   0.184   6.829  0.0067 -1.7872 -0.4620
  421MOL    H6534505   5.273   0.084   6.974  0.4361  0.1269  0.5249
  421MOL    C6634506   5.154   0.254   7.121  0.6255  0.4915 -0.2949
  421MOL    O6734507   5.209   0.151   7.200 -0.4797  0.1242  0.7934
  421MOL    H6834508   5.052   0.217   7.111  1.1023 -1.2990  1.1045
  421MOL    H6934509   5.141   0.348   7.174  1.3046  0.5217 -0.1674
  421MOL    C7034510   5.327   0.185   7.252 -0.5568 -0.5916  0.5853
  421MOL    O7134511   5.309   0.292   7.349  0.2227 -0.0992 -0.1710
  421MOL    H7234512   5.407   0.202   7.181 -1.0847 -0.6075 -0.0216
  421MOL    H7334513   5.366   0.113   7.323 -0.2877 -1.1007 -0.0733
  421MOL    C7434514   5.234   0.253   7.465  0.2998 -0.4430 -0.1360
  421MOL    O7534515   5.309   0.198   7.573 -0.1191  0.3752  0.2028
  421MOL    H7634516   5.163   0.174   7.441 -0.4027 -0.3868  1.7302
  421MOL    H7734517   5.175   0.336   7.504 -2.1423 -0.6638 -3.1154
  421MOL    C7834518   5.372   0.303   7.633 -0.3011 -0.2607 -0.1652
  421MOL    O7934519   5.412   0.260   7.761 -0.1069 -0.3287 -0.5492
  421MOL    H8034520   5.321   0.397   7.656  1.2319  1.3555 -3.0005
  421MOL    H8134521   5.466   0.325   7.582  0.2946 -0.2360  0.9258
  421MOL    H8234522   5.499   0.223   7.753  0.8008  2.2853 -4.1437
  422MOL     C134523   3.247   6.061   7.005 -0.0185 -0.1415 -0.2838
  422MOL     O234524   3.245   6.021   7.144  0.0849 -0.0152  0.4640
  422MOL     H334525   3.345   6.062   6.959 -0.4195  1.7739 -1.1625
  422MOL     H434526   3.170   6.009   6.948 -1.5645  0.8246  0.8630
  422MOL     H534527   3.207   6.163   7.010  0.4588 -0.0254  1.5782
  422MOL     C634528   3.310   5.907   7.175  0.5622 -0.0203  0.3903
  422MOL     O734529   3.444   5.907   7.129 -0.2200  0.1772  0.1606
  422MOL     H834530   3.256   5.838   7.110  1.3466  1.5547 -2.0269
  422MOL     H934531   3.295   5.900   7.282  0.4490 -0.2775  0.3575
  422MOL    C1034532   3.536   5.917   7.233 -0.1766  0.2846  0.1703
  422MOL    O1134533   3.539   5.801   7.306 -0.0604  0.0621 -0.4609
  422MOL    H1234534   3.521   6.004   7.297 -0.0700 -0.0974  0.7178
  422MOL    H1334535   3.636   5.934   7.194  0.8876 -2.6823  1.4221
  422MOL    C1434536   3.645   5.803   7.394 -0.1635  0.1284 -0.1950
  422MOL    O1534537   3.626   5.893   7.496 -0.1326  0.2259 -0.3131
  422MOL    H1634538   3.740   5.821   7.343  0.4616  0.2794  1.0026
  422MOL    H1734539   3.646   5.699   7.426 -0.6471 -0.0386 -0.7171
  422MOL    C1834540   3.511   5.871   7.569 -0.0691 -0.5441  0.1686
  422MOL    O1934541   3.411   5.959   7.525 -0.2653  0.3260  0.0454
  422MOL    H2034542   3.538   5.891   7.673  0.0678 -0.7011  0.1627
  422MOL    H2134543   3.485   5.766   7.553  0.7580 -0.5301 -1.2941
  422MOL    C2234544   3.437   6.087   7.539  0.2277  1.1655 -0.7530
  422MOL    O2334545   3.421   6.128   7.672 -0.1964 -0.7415  0.1617
  422MOL    H2434546   3.374   6.146   7.474 -3.0570 -2.0363 -0.6666
  422MOL    H2534547   3.541   6.106   7.514  0.7432  0.9509  1.1386
  422MOL    C2634548   3.300   6.103   7.726 -0.5026 -0.2096  0.2207
  422MOL    O2734549   3.277   6.197   0.044  0.4957  0.1128  0.3617
  422MOL    H2834550   3.303   6.005   7.774 -0.0969  0.4797  1.6116
  422MOL    H2934551   3.218   6.114   7.655  0.0514  3.2112  0.0439
  422MOL    C3034552   3.313   6.165   0.173  0.7406  0.1304 -0.3986
  422MOL    O3134553   3.225   6.082   0.227 -0.2511  0.2583 -0.2875
  422MOL    H3234554   3.311   6.255   0.235 -1.6790  1.1608 -1.9299
  422MOL    H3334555   3.409   6.114   0.178 -0.4297 -2.2018 -1.1889
  422MOL    C3434556   3.094   6.135   0.258  0.0855  0.2874  0.1671
  422MOL    O3534557   3.011   6.034   0.305  0.0474  0.5941 -0.0573
  422MOL    H3634558   3.050   6.175   0.166  1.0592 -0.4307 -0.6258
  422MOL    H3734559   3.092   6.209   0.337  1.2229  0.3576  0.1336
  422MOL    C3834560   2.961   5.946   0.209  0.1110 -0.1649  0.0435
  422MOL    O3934561   2.848   5.998   0.138  0.3353 -0.0823  0.0039
  422MOL    H4034562   2.922   5.859   0.261  1.5041 -0.7450  0.1527
  422MOL    H4134563   3.036   5.915   0.136  2.8173  0.8607  2.3045
  422MOL    C4234564   2.728   5.989   0.204 -0.6573 -0.7643 -0.8626
  422MOL    O4334565   2.693   5.860   0.238  0.4947  0.0608 -0.0831
  422MOL    H4434566   2.646   6.023   0.141 -1.9635 -0.8922  0.7234
  422MOL    H4534567   2.740   6.057   0.288  1.6673 -0.9191 -1.0612
  422MOL    C4634568   2.662   5.777   0.132  0.8543 -0.0035 -0.9515
  422MOL    O4734569   2.540   5.815   0.072  0.2032 -0.2231  0.3135
  422MOL    H4834570   2.659   5.671   0.158 -1.2697  0.2517 -0.0669
  422MOL    H4934571   2.734   5.800   0.053  1.1728 -1.2190 -1.0312
  422MOL    C5034572   2.445   5.720   0.083 -0.5489 -0.1454 -0.1573
  422MOL    O5134573   2.473   5.605   7.784 -0.3472  0.0762 -0.4873
  422MOL    H5234574   2.345   5.751   0.056 -0.0043  1.3083 -0.5559
  422MOL    H5334575   2.436   5.681   0.185  2.2825 -2.1151 -0.5994
  422MOL    C5434576   2.462   5.629   7.649 -0.8820  0.4069 -0.4597
  422MOL    O5534577   2.325   5.612   7.607 -0.5968  0.1002 -0.3045
  422MOL    H5634578   2.524   5.564   7.587  0.4315  1.2280 -0.0193
  422MOL    H5734579   2.494   5.729   7.619  2.8624 -0.8126 -0.8088
  422MOL    C5834580   2.310   5.515   7.510 -0.2215 -0.3913  0.3935
  422MOL    O5934581   2.386   5.539   7.399 -1.0227  0.3821 -0.2910
  422MOL    H6034582   2.211   5.501   7.465 -0.6966 -1.2008  1.6481
  422MOL    H6134583   2.348   5.422   7.552  0.6525  0.3560  1.2871
  422MOL    C6234584   2.354   5.663   7.341  0.1977 -0.4538  0.0847
  422MOL    O6334585   2.228   5.670   7.292 -0.0265 -0.1097 -0.1026
  422MOL    H6434586   2.425   5.686   7.261 -1.0307 -1.0284 -1.1959
  422MOL    H6534587   2.363   5.740   7.417  1.0668  0.5414 -1.0121
  422MOL    C6634588   2.200   5.788   7.230  0.5306  0.2368 -0.3620
  422MOL    O6734589   2.200   5.899   7.307  0.0444 -0.6985 -0.5017
  422MOL    H6834590   2.104   5.778   7.178  0.8824  0.6069 -1.1013
  422MOL    H6934591   2.277   5.813   7.157 -0.5330  0.1823 -1.5225
  422MOL    C7034592   2.106   5.909   7.413 -0.8076 -0.3029 -0.3602
  422MOL    O7134593   1.981   5.874   7.363 -0.2950  0.0103 -0.3495
  422MOL    H7234594   2.111   6.007   7.461 -0.9092  0.5427 -2.0521
  422MOL    H7334595   2.138   5.839   7.490 -1.2614  0.1350  0.2311
  422MOL    C7434596   1.902   5.985   7.344 -0.0060  0.0218 -0.4925
  422MOL    O7534597   1.860   6.034   7.465  0.1409 -0.2352  0.1021
  422MOL    H7634598   1.830   5.962   7.265  0.2277 -1.4603 -0.2909
  422MOL    H7734599   1.980   6.049   7.303  2.4674 -2.4569  0.1868
  422MOL    C7834600   1.752   5.962   7.521  0.8358 -0.3058  0.1491
  422MOL    O7934601   1.723   6.015   7.649  0.1043  0.0122  0.1586
  422MOL    H8034602   1.764   5.854   7.525  0.6089 -0.3712 -0.8535
  422MOL    H8134603   1.659   5.977   7.467  1.4730  1.0008 -0.6171
  422MOL    H8234604   1.788   5.985   7.711 -0.3491 -1.2114  0.0473
  423MOL     C134605   7.492   0.168   1.543  0.4071 -0.2309  0.6797
  423MOL     O234606   7.572   0.271   1.590 -0.8153  0.1632  0.1094
  423MOL     H334607   7.458   0.170   1.440  1.9793 -0.3452  0.1451
  423MOL     H434608   7.539   0.072   1.564  2.1395  0.7292  1.2110
  423MOL     H534609   7.395   0.169   1.593  0.0397  2.6510  0.0131
  423MOL     C634610   7.702   0.270   1.541 -0.1241 -0.7387  0.5255
  423MOL     O734611   7.700   0.300   1.405  0.4351 -0.1070  0.1049
  423MOL     H834612   7.742   0.169   1.544 -3.1089 -1.9207  2.2053
  423MOL     H934613   7.773   0.340   1.587  1.7249 -1.8778 -0.5136
  423MOL    C1034614   7.682   0.436   1.376 -0.2773 -0.0410  0.4359
  423MOL    O1134615   7.597   0.442   1.265 -0.1417  0.1422  0.0704
  423MOL    H1234616   7.782   0.474   1.359  0.4117 -2.6672 -1.8427
  423MOL    H1334617   7.640   0.485   1.464  0.3022  1.2082  0.0351
  423MOL    C1434618   7.465   0.411   1.290  0.0072  0.4833  0.0272
  423MOL    O1534619   7.383   0.464   1.193 -0.4584 -0.5233 -0.5856
  423MOL    H1634620   7.438   0.458   1.384 -0.0867  2.0352 -0.7662
  423MOL    H1734621   7.464   0.302   1.292 -0.8716  0.4801 -0.5509
  423MOL    C1834622   7.399   0.400   1.063  0.1179 -0.7190 -0.0599
  423MOL    O1934623   7.323   0.289   1.050  0.1185  0.4328  0.1201
  423MOL    H2034624   7.505   0.385   1.043  0.4319  0.3221  0.7254
  423MOL    H2134625   7.364   0.476   0.994  0.2266  0.8241  1.5362
  423MOL    C2234626   7.183   0.307   1.063 -0.0066  0.6566  0.3429
  423MOL    O2334627   7.117   0.365   0.951  0.2395 -0.8049 -0.8130
  423MOL    H2434628   7.159   0.357   1.157 -1.1628 -1.2197  1.0846
  423MOL    H2534629   7.136   0.209   1.074 -0.6844  0.7872 -1.1926
  423MOL    C2634630   7.150   0.302   0.826 -0.0303 -0.1781 -0.4493
  423MOL    O2734631   7.096   0.377   0.723 -0.0043  0.7200  0.1343
  423MOL    H2834632   7.127   0.196   0.823 -0.7328 -0.0630  0.8172
  423MOL    H2934633   7.258   0.317   0.822 -0.0806  1.4087  2.8382
  423MOL    C3034634   6.962   0.346   0.697 -0.0279 -0.5012  0.6265
  423MOL    O3134635   6.944   0.227   0.624 -0.0154  0.0429  0.5791
  423MOL    H3234636   6.906   0.426   0.648  0.7327 -0.6320 -0.4773
  423MOL    H3334637   6.896   0.336   0.784  0.3893  1.2577  1.1712
  423MOL    C3434638   6.974   0.245   0.489  0.7102 -0.5320 -0.0692
  423MOL    O3534639   6.869   0.312   0.418 -0.0297 -0.4484 -0.1542
  423MOL    H3634640   7.004   0.151   0.442  1.7120 -1.6003  2.5529
  423MOL    H3734641   7.068   0.297   0.473  2.6663 -3.7558  0.3684
  423MOL    C3834642   6.769   0.222   0.389 -0.0398 -0.4268  0.3802
  423MOL    O3934643   6.811   0.130   0.293 -0.0369  0.4135  0.3247
  423MOL    H4034644   6.681   0.265   0.341 -1.0440 -1.1574  1.5594
  423MOL    H4134645   6.730   0.172   0.477 -0.0679  2.5018  2.0995
  423MOL    C4234646   6.707   0.046   0.252  0.5465  0.2251  0.0431
  423MOL    O4334647   6.595   0.104   0.190  0.0160  0.0309 -0.7785
  423MOL    H4434648   6.671   0.008   0.348 -0.8633 -0.7146 -0.8303
  423MOL    H4534649   6.742   7.738   0.205  1.6073  1.0788 -0.8407
  423MOL    C4634650   6.616   0.117   0.052 -0.8290 -0.3076 -0.4507
  423MOL    O4734651   6.639   7.781   7.773 -0.2670 -0.2374  0.1638
  423MOL    H4834652   6.707   0.175   0.043 -0.4676 -0.5478  1.3948
  423MOL    H4934653   6.546   0.179   7.780  0.3335  1.1324 -0.3375
  423MOL    C5034654   6.529   7.693   7.772  0.7462 -0.0703 -0.4790
  423MOL    O5134655   6.433   7.723   7.681 -0.0682  0.0601 -0.4296
  423MOL    H5234656   6.483   7.667   0.084 -2.2468 -0.4790 -1.9530
  423MOL    H5334657   6.583   7.603   7.747 -0.3335 -1.2269  1.2306
  423MOL    C5434658   6.470   7.699   7.551  0.9283  0.6912  0.3862
  423MOL    O5534659   6.438   7.565   7.504 -0.0263  0.1382 -0.0608
  423MOL    H5634660   6.571   7.735   7.532  0.5264  1.2283 -0.7938
  423MOL    H5734661   6.409   7.769   7.494  2.4631  1.8372  0.1042
  423MOL    C5834662   6.462   7.548   7.368  0.7600  0.2511  0.3608
  423MOL    O5934663   6.597   7.537   7.322 -0.4221  0.0992 -0.2180
  423MOL    H6034664   6.411   7.626   7.312 -1.4326 -0.8506  0.7565
  423MOL    H6134665   6.419   7.450   7.347 -1.5198  1.7768 -2.3449
  423MOL    C6234666   6.664   7.417   7.331  0.2657 -0.2604  0.1647
  423MOL    O6334667   6.671   7.369   7.462 -0.4908  0.5982 -0.3064
  423MOL    H6434668   6.761   7.427   7.284  0.5262 -2.4652  0.1734
  423MOL    H6534669   6.600   7.358   7.265  0.4337 -0.6357  0.3318
  423MOL    C6634670   6.748   7.436   7.551  0.2030  0.0719 -0.2504
  423MOL    O6734671   6.882   7.401   7.522 -0.1320  0.1419 -0.3284
  423MOL    H6834672   6.719   7.392   7.646  5.4816 -1.2908  0.9078
  423MOL    H6934673   6.735   7.544   7.542 -0.5746 -0.0392 -0.4824
  423MOL    C7034674   6.972   7.490   7.591 -0.4041  0.0412 -0.0725
  423MOL    O7134675   6.960   7.625   7.533  0.3199 -0.1035 -0.5411
  423MOL    H7234676   7.072   7.448   7.590 -1.1734 -1.9185  1.1330
  423MOL    H7334677   6.946   7.477   7.696 -1.5553 -0.7681 -0.4425
  423MOL    C7434678   7.059   7.707   7.581  0.1704 -0.0358  0.0548
  423MOL    O7534679   7.018   0.058   7.562  0.0390  0.2812 -0.4300
  423MOL    H7634680   7.156   7.689   7.535  0.1992  1.6033 -0.5648
  423MOL    H7734681   7.075   7.696   7.688  0.0905 -0.3618  0.0320
  423MOL    C7834682   6.890   0.076   7.612  0.2599  0.4578 -0.1532
  423MOL    O7934683   6.844   0.209   7.600  0.1322  0.2050 -0.1351
  423MOL    H8034684   6.880   0.051   7.718 -0.9959 -1.6390 -0.7361
  423MOL    H8134685   6.819   0.019   7.553  1.2183 -0.4068 -0.4887
  423MOL    H8234686   6.800   0.214   7.517 -1.5545  0.3084  0.7416
  424MOL     C134687   4.235   3.427   4.658 -0.2362 -0.1808  0.3240
  424MOL     O234688   4.103   3.470   4.643  0.4040 -0.8331  0.0631
  424MOL     H334689   4.301   3.514   4.651 -2.2887  1.1859 -2.9755
  424MOL     H434690   4.266   3.375   4.749 -1.0021  0.6525  1.0737
  424MOL     H534691   4.254   3.369   4.568 -1.0669  0.2853 -0.1525
  424MOL     C634692   4.078   3.595   4.712  0.8512 -0.0197 -0.0348
  424MOL     O734693   4.050   3.566   4.847  0.2500  0.2583  0.0038
  424MOL     H834694   3.985   3.641   4.679  1.6712  0.7622 -1.3403
  424MOL     H934695   4.158   3.669   4.704  1.9160 -1.1298  0.1491
  424MOL    C1034696   3.923   3.504   4.862 -0.1453 -0.8277  0.4377
  424MOL    O1134697   3.821   3.593   4.862  0.4152  0.1495 -0.3643
  424MOL    H1234698   3.919   3.452   4.957  2.2171  0.5051  1.2994
  424MOL    H1334699   3.892   3.432   4.786 -2.9634 -1.0007  1.6902
  424MOL    C1434700   3.818   3.670   4.978 -0.0762  0.9791  0.2980
  424MOL    O1534701   3.743   3.605   5.075  0.2332  0.7882 -0.4613
  424MOL    H1634702   3.770   3.762   4.945  0.0575  0.9786  0.1017
  424MOL    H1734703   3.917   3.700   5.012  0.3603 -0.0210 -0.0448
  424MOL    C1834704   3.604   3.616   5.064 -0.2610 -0.0641 -0.1261
  424MOL    O1934705   3.564   3.751   5.075 -0.2727  0.0890  0.2100
  424MOL    H2034706   3.555   3.556   5.141 -0.8176  1.3627  0.6457
  424MOL    H2134707   3.573   3.587   4.964 -0.5354  0.3071 -0.1488
  424MOL    C2234708   3.610   3.815   5.187  0.4085  0.2450  0.1237
  424MOL    O2334709   3.570   3.753   5.309 -0.3152 -0.4203 -0.5298
  424MOL    H2434710   3.587   3.921   5.180 -0.2503  0.0750 -0.3443
  424MOL    H2534711   3.719   3.818   5.181  0.5409 -1.7282  1.0549
  424MOL    C2634712   3.464   3.818   5.363 -0.0289 -0.5869 -0.0121
  424MOL    O2734713   3.406   3.741   5.464 -0.1743  0.3558  0.3090
  424MOL    H2834714   3.387   3.847   5.291  1.2748 -0.6617 -1.4704
  424MOL    H2934715   3.501   3.908   5.410 -2.6316  0.0173  0.9561
  424MOL    C3034716   3.333   3.630   5.412 -0.0500 -0.6224  0.2058
  424MOL    O3134717   3.297   3.540   5.518 -0.0633  0.4936 -0.3622
  424MOL    H3234718   3.389   3.568   5.342 -2.0205 -0.7970 -1.2434
  424MOL    H3334719   3.245   3.664   5.359  0.9174 -0.8918 -1.5963
  424MOL    C3434720   3.189   3.585   5.599 -0.6587  0.1231 -0.4484
  424MOL    O3534721   3.169   3.492   5.704  0.2845  0.3740 -0.4677
  424MOL    H3634722   3.103   3.575   5.532 -1.4481 -0.8123  0.6732
  424MOL    H3734723   3.199   3.690   5.624  0.0251 -0.5328  2.1677
  424MOL    C3834724   3.240   3.516   5.824 -0.6436  0.5525 -0.0958
  424MOL    O3934725   3.216   3.651   5.868  0.7010  0.3334  0.1479
  424MOL    H4034726   3.346   3.491   5.813 -0.1813  1.4069  2.0640
  424MOL    H4134727   3.203   3.443   5.896  0.6071 -0.0047 -0.0063
  424MOL    C4234728   3.095   3.672   5.911 -0.0447  0.1886 -0.1144
  424MOL    O4334729   3.079   3.605   6.034  0.2520  0.0076  0.1181
  424MOL    H4434730   3.013   3.632   5.850 -0.3346  1.6203 -0.6671
  424MOL    H4534731   3.083   3.780   5.910  0.3085  0.2224 -0.6693
  424MOL    C4634732   3.114   3.680   6.149  0.0710 -0.8023 -0.3793
  424MOL    O4734733   3.048   3.802   6.153  0.2095  0.0109  0.2042
  424MOL    H4834734   3.221   3.700   6.138 -0.3796  1.3018 -1.2230
  424MOL    H4934735   3.094   3.633   6.245  0.9938  0.6410  0.5464
  424MOL    C5034736   2.913   3.791   6.177 -0.8512  0.9884 -0.3488
  424MOL    O5134737   2.890   3.775   6.316  0.2355 -0.0075  0.8433
  424MOL    H5234738   2.858   3.710   6.130  1.2514 -1.5646  1.4555
  424MOL    H5334739   2.866   3.881   6.136 -1.2259  0.3521 -1.3224
  424MOL    C5434740   2.753   3.770   6.339 -0.3274  0.2742 -0.1763
  424MOL    O5534741   2.687   3.653   6.301  0.6799 -0.0283 -0.1418
  424MOL    H5634742   2.697   3.856   6.303 -0.3977  0.2351 -0.1583
  424MOL    H5734743   2.749   3.772   6.448  1.3639 -0.6048 -0.0853
  424MOL    C5834744   2.746   3.542   6.364  0.5493  0.6643 -0.3620
  424MOL    O5934745   2.699   3.425   6.312  0.0806  0.5749 -0.4003
  424MOL    H6034746   2.704   3.532   6.464  0.2219  1.6101 -0.3985
  424MOL    H6134747   2.854   3.555   6.374  0.6356 -0.4502  0.1955
  424MOL    C6234748   2.751   3.389   6.193 -0.3902  0.1337 -0.2273
  424MOL    O6334749   2.875   3.336   6.221  0.0479 -0.2105  0.1134
  424MOL    H6434750   2.743   3.473   6.124  0.0266 -0.2489 -0.7478
  424MOL    H6534751   2.688   3.313   6.147 -2.0113  1.8162 -0.8028
  424MOL    C6634752   2.959   3.325   6.111 -0.5728 -0.2557  0.0535
  424MOL    O6734753   2.939   3.209   6.032 -0.0542  0.4595  0.3044
  424MOL    H6834754   3.063   3.318   6.141  0.2642  3.4949 -1.6347
  424MOL    H6934755   2.943   3.419   6.058 -4.1415  0.4832  2.2714
  424MOL    C7034756   2.948   3.086   6.095 -0.0686 -0.4957  0.1412
  424MOL    O7134757   3.079   3.059   6.145  0.2856 -0.0379  0.2917
  424MOL    H7234758   2.923   3.016   6.016 -2.6944  0.1306  0.3903
  424MOL    H7334759   2.861   3.074   6.160 -0.1921 -0.6906 -0.0577
  424MOL    C7434760   3.080   3.001   6.274  0.4453 -0.6286 -0.1169
  424MOL    O7534761   3.038   2.867   6.272  0.6891 -0.1946  0.2946
  424MOL    H7634762   3.020   3.062   6.342 -1.3818 -3.0674  0.4862
  424MOL    H7734763   3.181   3.023   6.310  0.9432  1.2098 -2.4812
  424MOL    C7834764   3.130   2.780   6.210  0.4389 -0.0135 -0.2945
  424MOL    O7934765   3.106   2.644   6.239 -0.2783 -0.7572  0.3572
  424MOL    H8034766   3.229   2.806   6.245  0.3678  1.6197 -1.2331
  424MOL    H8134767   3.129   2.785   6.101  1.4809 -1.1493 -0.3665
  424MOL    H8234768   3.034   2.621   6.182 -0.3915  0.6318 -0.0647
  425MOL     C134769   5.717   4.169   7.144  0.0682 -0.3426 -0.4794
  425MOL     O234770   5.783   4.054   7.089  0.1012  0.1685  0.0822
  425MOL     H334771   5.709   4.162   7.252  0.2052 -0.0347 -0.4471
  425MOL     H434772   5.762   4.267   7.125  0.1665 -0.1851  0.5302
  425MOL     H534773   5.613   4.179   7.114 -0.4255 -0.5174  1.1173
  425MOL     C634774   5.821   4.046   6.954 -0.2329  0.6379 -0.1131
  425MOL     O734775   5.706   4.014   6.879  0.4963 -0.1377  0.2779
  425MOL     H834776   5.910   3.983   6.945 -1.2195 -0.6114 -1.3485
  425MOL     H934777   5.846   4.145   6.917 -3.6481  1.0359 -1.4944
  425MOL    C1034778   5.649   3.894   6.907  0.6939  0.6353 -0.3700
  425MOL    O1134779   5.547   3.864   6.817  0.0163  0.0653  0.1141
  425MOL    H1234780   5.590   3.911   6.997 -1.5607  0.7962 -1.8087
  425MOL    H1334781   5.713   3.807   6.922  3.6144  2.7110 -0.3865
  425MOL    C1434782   5.601   3.827   6.693 -0.0009  0.1041 -0.4206
  425MOL    O1534783   5.670   3.711   6.709 -0.3145 -0.1490 -0.2429
  425MOL    H1634784   5.673   3.899   6.655  0.3478 -0.7601 -1.4092
  425MOL    H1734785   5.519   3.825   6.620 -0.5943  0.3328  0.2304
  425MOL    C1834786   5.586   3.603   6.714 -0.1550 -0.0691  0.3962
  425MOL    O1934787   5.535   3.565   6.596  0.0371 -0.4892  0.2793
  425MOL    H2034788   5.509   3.620   6.789 -0.8161  0.2142 -0.3488
  425MOL    H2134789   5.645   3.522   6.759  1.3235  0.3124 -0.8122
  425MOL    C2234790   5.615   3.470   6.523  0.5513  0.8320 -0.1113
  425MOL    O2334791   5.608   3.340   6.576 -0.1015 -0.3648  0.5000
  425MOL    H2434792   5.717   3.508   6.520 -0.5503  4.0213  0.0478
  425MOL    H2534793   5.576   3.466   6.422 -1.7060 -0.4948  0.7823
  425MOL    C2634794   5.479   3.291   6.566 -0.0482  0.1806 -0.3681
  425MOL    O2734795   5.473   3.162   6.609 -0.8652  0.1420  0.2375
  425MOL    H2834796   5.449   3.284   6.461 -0.1490  1.3609 -0.4145
  425MOL    H2934797   5.410   3.341   6.633  0.2659  1.4873 -1.0171
  425MOL    C3034798   5.530   3.068   6.519  0.4773  0.4775  0.5296
  425MOL    O3134799   5.469   3.061   6.392 -0.3672  0.0741  0.2723
  425MOL    H3234800   5.515   2.970   6.565  3.0841  0.4024  1.3055
  425MOL    H3334801   5.638   3.084   6.517  0.5029  0.1983 -0.3766
  425MOL    C3434802   5.336   3.045   6.401 -0.0431 -0.4257  0.2234
  425MOL    O3534803   5.293   2.936   6.323  1.0589 -0.0932  0.8955
  425MOL    H3634804   5.292   3.133   6.353 -0.9325 -1.9293 -1.8005
  425MOL    H3734805   5.291   3.028   6.499  0.4779  0.2552  0.5836
  425MOL    C3834806   5.293   2.813   6.378  0.2218  0.0983 -0.9297
  425MOL    O3934807   5.161   2.785   6.426 -0.0277 -0.0103 -0.1249
  425MOL    H4034808   5.375   2.781   6.442 -0.3037  0.2667 -0.1765
  425MOL    H4134809   5.307   2.755   6.286  2.7167  0.6931 -0.9690
  425MOL    C4234810   5.140   2.793   6.563 -0.2845 -0.3708  0.8474
  425MOL    O4334811   5.226   2.721   6.645 -0.5097  0.1093  0.4217
  425MOL    H4434812   5.041   2.749   6.579  1.1750 -4.2180 -0.0606
  425MOL    H4534813   5.134   2.900   6.579  0.1980  0.5006 -4.2027
  425MOL    C4634814   5.198   2.584   6.642 -0.2319 -0.4541 -0.5951
  425MOL    O4734815   5.103   2.547   6.739  0.5012 -0.1831  0.4071
  425MOL    H4834816   5.282   2.514   6.645 -0.8770 -1.2047  0.0792
  425MOL    H4934817   5.157   2.552   6.546  1.1480  1.9157 -2.0233
  425MOL    C5034818   5.171   2.541   6.863  0.6766 -0.8869  0.5833
  425MOL    O5134819   5.079   2.516   6.970 -0.7454  0.4361  0.0336
  425MOL    H5234820   5.221   2.636   6.883 -1.4670 -0.2251  3.0298
  425MOL    H5334821   5.244   2.460   6.859  1.6467 -0.0872  1.7770
  425MOL    C5434822   5.000   2.621   7.013  0.4653 -0.0593 -0.4006
  425MOL    O5534823   5.079   2.713   7.077 -0.1690 -0.7770 -0.1836
  425MOL    H5634824   4.901   2.598   7.053 -0.3881  2.7498 -0.7381
  425MOL    H5734825   4.976   2.674   6.921  1.0205 -0.0851 -0.5633
  425MOL    C5834826   5.056   2.706   7.215 -0.2684 -0.5633  0.2315
  425MOL    O5934827   4.949   2.788   7.253  0.5450 -0.3470 -0.2069
  425MOL    H6034828   5.147   2.750   7.255 -0.1805 -0.3095 -0.2412
  425MOL    H6134829   5.048   2.604   7.253 -1.8261 -0.9198 -1.0168
  425MOL    C6234830   4.965   2.923   7.208  0.1187  0.1989 -0.1554
  425MOL    O6334831   5.060   2.988   7.284  0.2860  0.0723 -0.2806
  425MOL    H6434832   4.876   2.982   7.189 -0.7629  0.3986  3.9742
  425MOL    H6534833   5.020   2.940   7.115  1.1880  0.3905  0.4929
  425MOL    C6634834   5.018   3.014   7.410  0.6889  0.5680  0.2465
  425MOL    O6734835   5.104   3.087   7.485  0.5055 -0.1512  0.0403
  425MOL    H6834836   5.001   2.920   7.462 -0.1556  0.4080 -0.3110
  425MOL    H6934837   4.933   3.081   7.402  0.4578  0.7038  3.3765
  425MOL    C7034838   5.234   3.027   7.485 -0.3641 -0.2580  0.1551
  425MOL    O7134839   5.242   2.900   7.546 -0.6540  0.4548  0.1082
  425MOL    H7234840   5.289   3.104   7.540 -1.5827  0.2867  0.6301
  425MOL    H7334841   5.280   3.024   7.386 -0.4172  1.3556  0.0626
  425MOL    C7434842   5.233   2.917   7.684  0.4903 -0.1942  0.1294
  425MOL    O7534843   5.346   2.967   7.749 -0.2614  0.1930 -0.4207
  425MOL    H7634844   5.197   2.826   7.731  1.7019 -0.7374  0.0238
  425MOL    H7734845   5.151   2.987   7.700  0.5909 -0.6481  2.7427
  425MOL    C7834846   5.453   2.876   7.764 -0.4358  0.7775  0.8925
  425MOL    O7934847   5.562   2.936   0.040 -0.2726 -0.3391 -0.2102
  425MOL    H8034848   5.480   2.841   7.665 -0.7385  1.6573  0.5025
  425MOL    H8134849   5.424   2.789   0.039 -3.3867  1.9134  1.1662
  425MOL    H8234850   5.531   2.959   0.126 -3.2837  0.0483 -1.3291
  426MOL     C134851   4.385   1.430   4.383  0.2820 -0.1675 -0.2949
  426MOL     O234852   4.419   1.425   4.249 -0.0699  0.0749  0.2423
  426MOL     H334853   4.388   1.533   4.418  4.3713 -0.3679  0.2103
  426MOL     H434854   4.281   1.399   4.381 -0.7449  2.8341  2.7604
  426MOL     H534855   4.438   1.369   4.457  0.7700 -1.5082 -1.7182
  426MOL     C634856   4.341   1.505   4.170 -0.2751  0.4545  0.0255
  426MOL     O734857   4.367   1.643   4.196 -0.0631  0.5565 -0.4703
  426MOL     H834858   4.236   1.488   4.190  0.3667 -2.8202  0.8173
  426MOL     H934859   4.353   1.489   4.063 -0.4954  0.3631  0.0149
  426MOL    C1034860   4.477   1.683   4.120  0.6207  0.7660  1.0824
  426MOL    O1134861   4.439   1.748   4.002 -0.2210  0.5981  0.6263
  426MOL    H1234862   4.542   1.599   4.096 -1.6339 -1.0632  1.2434
  426MOL    H1334863   4.539   1.745   4.186  2.9083  0.4152 -0.6915
  426MOL    C1434864   4.379   1.866   4.029 -0.2229  0.1312  0.0015
  426MOL    O1534865   4.470   1.959   4.068  0.1323  0.6467 -0.0765
  426MOL    H1634866   4.289   1.850   4.089  0.2819  0.5006  0.8691
  426MOL    H1734867   4.333   1.900   3.936  0.7504  2.4996  0.3499
  426MOL    C1834868   4.420   2.090   4.082 -0.5714 -0.0802 -0.1471
  426MOL    O1934869   4.324   2.100   4.185 -0.9416 -0.2559 -0.2696
  426MOL    H2034870   4.378   2.118   3.985 -0.2517  1.9547  0.2747
  426MOL    H2134871   4.513   2.142   4.107  0.0273 -0.7240 -0.9689
  426MOL    C2234872   4.379   2.067   4.309 -0.7877  0.6143 -0.3703
  426MOL    O2334873   4.449   2.183   4.358 -0.4087  0.4072  0.0996
  426MOL    H2434874   4.439   1.976   4.310 -1.4581  0.1743 -0.5811
  426MOL    H2534875   4.293   2.037   4.369  0.0516 -0.7695  0.1568
  426MOL    C2634876   4.505   2.170   4.488 -0.1107  0.0727  0.1740
  426MOL    O2734877   4.632   2.110   4.487 -0.6132  0.0215  0.4590
  426MOL    H2834878   4.435   2.116   4.550 -0.3435  0.6606  0.4206
  426MOL    H2934879   4.523   2.274   4.518  0.5919  1.1067 -3.5413
  426MOL    C3034880   4.720   2.172   4.400  0.1435  0.1451  0.4923
  426MOL    O3134881   4.834   2.089   4.398  0.0389  0.2021  0.2414
  426MOL    H3234882   4.732   2.273   4.437 -0.6675  1.1135 -1.7640
  426MOL    H3334883   4.686   2.168   4.296  1.0449  1.5381  0.1231
  426MOL    C3434884   4.927   2.132   4.483  0.2128  0.2815  0.2832
  426MOL    O3534885   5.013   2.220   4.421 -0.1103  0.0315  0.4191
  426MOL    H3634886   4.963   2.031   4.501 -0.4347 -0.0192 -0.1008
  426MOL    H3734887   4.891   2.169   4.579 -0.8050 -0.9102  0.3689
  426MOL    C3834888   5.150   2.208   4.468  0.2130 -0.5001 -0.1505
  426MOL    O3934889   5.222   2.097   4.419 -0.2357 -0.5094  0.0785
  426MOL    H4034890   5.147   2.216   4.576  1.1165  1.6051 -0.2650
  426MOL    H4134891   5.198   2.302   4.442 -2.7660  0.9782 -0.5141
  426MOL    C4234892   5.258   2.094   4.288 -0.5201  0.1879 -0.6747
  426MOL    O4334893   5.349   2.200   4.264 -0.3735 -0.2352  0.7700
  426MOL    H4434894   5.169   2.098   4.225 -2.3660 -0.8589  1.7805
  426MOL    H4534895   5.306   1.998   4.271  0.3687  0.3052  1.0313
  426MOL    C4634896   5.484   2.160   4.283  0.0412  0.2228 -0.1317
  426MOL    O4734897   5.525   2.078   4.173 -0.2104  0.3406  0.0416
  426MOL    H4834898   5.502   2.106   4.376 -1.3387 -0.6743 -0.3605
  426MOL    H4934899   5.547   2.248   4.291  0.6433  0.0414 -2.4661
  426MOL    C5034900   5.614   2.142   4.087 -0.3197 -0.1672 -0.0183
  426MOL    O5134901   5.745   2.152   4.149 -0.0213  0.5644 -0.8632
  426MOL    H5234902   5.580   2.243   4.069  0.5735  0.0954 -0.2735
  426MOL    H5334903   5.605   2.093   3.991  1.2645 -0.0727 -0.2240
  426MOL    C5434904   5.813   2.036   4.166  0.0237 -0.2364 -1.0568
  426MOL    O5534905   5.893   2.019   4.055 -0.1110 -0.1854 -0.0053
  426MOL    H5634906   5.748   1.949   4.175 -0.3172  0.1972  1.0100
  426MOL    H5734907   5.879   2.050   4.252 -0.5897  1.1213 -0.8007
  426MOL    C5834908   6.009   2.102   4.058 -0.1193 -0.0386  0.1926
  426MOL    O5934909   6.115   2.059   4.140  0.0237  0.2728 -0.0577
  426MOL    H6034910   5.993   2.203   4.096  0.6230 -0.1554  0.8333
  426MOL    H6134911   6.048   2.119   3.958  0.5529 -0.6034  0.3524
  426MOL    C6234912   6.195   1.962   4.078 -0.2134 -0.6418 -0.3348
  426MOL    O6334913   6.253   2.008   3.958  0.1968  0.3489 -0.1665
  426MOL    H6434914   6.124   1.884   4.048 -0.5029  0.2848 -2.0944
  426MOL    H6534915   6.273   1.937   4.150  0.4910  2.0654 -0.1228
  426MOL    C6634916   6.323   2.126   3.979 -0.2808 -0.3194 -0.3103
  426MOL    O6734917   6.427   2.108   4.066  0.5002  0.0903 -0.5667
  426MOL    H6834918   6.267   2.213   4.014  1.8156  0.8233  0.2833
  426MOL    H6934919   6.355   2.159   3.881  0.6361 -1.7157 -0.4893
  426MOL    C7034920   6.530   2.028   4.013 -0.5601  0.0017  0.3357
  426MOL    O7134921   6.583   2.085   3.896 -0.5659  0.6360  0.3090
  426MOL    H7234922   6.490   1.936   3.971 -0.4626 -0.2541  0.8005
  426MOL    H7334923   6.605   2.011   4.090  0.5138 -1.5718 -1.0202
  426MOL    C7434924   6.676   2.183   3.927  0.9619  0.2459  0.1063
  426MOL    O7534925   6.803   2.133   3.966 -0.0767 -0.2309  0.0355
  426MOL    H7634926   6.644   2.248   4.009  0.5476 -1.3121  1.2107
  426MOL    H7734927   6.666   2.244   3.837  1.3756 -0.0496 -0.1374
  426MOL    C7834928   6.882   2.097   3.854 -0.2539  0.3492  0.2905
  426MOL    O7934929   7.008   2.038   3.892  0.1461 -0.1182 -0.2174
  426MOL    H8034930   6.909   2.182   3.790  0.0081 -1.7307 -2.4319
  426MOL    H8134931   6.838   2.023   3.788  0.3026 -1.0942  1.5011
  426MOL    H8234932   7.067   2.108   3.917  0.1921  0.5786 -2.1931
  427MOL     C134933   7.250   2.631   5.968  0.1831 -0.2185  0.0161
  427MOL     O234934   7.374   2.569   5.922  0.7083 -0.3997  0.0615
  427MOL     H334935   7.269   2.679   6.064 -1.0830 -0.8751  0.6010
  427MOL     H434936   7.207   2.707   5.904  1.1673 -1.2363 -1.8944
  427MOL     H534937   7.174   2.554   5.981  1.1402 -0.4178  5.9174
  427MOL     C634938   7.369   2.498   5.807 -0.2492 -1.1001  0.6612
  427MOL     O734939   7.335   2.577   5.701 -0.7832 -0.7835  0.0603
  427MOL     H834940   7.301   2.417   5.834 -3.0592  1.4213  1.5429
  427MOL     H934941   7.465   2.448   5.801  0.7187  0.8493 -0.6639
  427MOL    C1034942   7.427   2.675   5.673 -0.5691  0.0166  0.1409
  427MOL    O1134943   7.419   2.702   5.539 -0.0999  0.2718 -0.1209
  427MOL    H1234944   7.522   2.637   5.711 -0.5922 -0.5899 -0.3934
  427MOL    H1334945   7.409   2.764   5.733 -0.8835 -0.3672  0.6144
  427MOL    C1434946   7.347   2.816   5.510  0.5950  0.2798 -0.0582
  427MOL    O1534947   7.427   2.925   5.556 -0.4910  0.5437 -0.9390
  427MOL    H1634948   7.251   2.805   5.560  1.1540 -0.0647  0.9508
  427MOL    H1734949   7.354   2.818   5.401  0.8993  0.1005 -0.0441
  427MOL    C1834950   7.356   3.046   5.578 -0.5035  0.0061  0.5146
  427MOL    O1934951   7.281   3.086   5.465 -0.4164 -0.2279  0.2945
  427MOL    H2034952   7.425   3.125   5.608  1.7380 -1.5558 -0.3987
  427MOL    H2134953   7.294   3.021   5.665  0.7661 -0.5678  1.2697
  427MOL    C2234954   7.361   3.122   5.353  0.0382  0.5927  0.8838
  427MOL    O2334955   7.277   3.149   5.243 -0.1851  0.2858  0.0455
  427MOL    H2434956   7.425   3.045   5.312 -0.6057  0.7201 -0.3757
  427MOL    H2534957   7.434   3.201   5.368 -0.5814  0.8345  2.8448
  427MOL    C2634958   7.225   3.276   5.243 -0.0941 -0.8644 -0.0002
  427MOL    O2734959   7.308   3.366   5.172  0.0486  0.1061  0.2875
  427MOL    H2834960   7.204   3.324   5.338 -0.6011 -1.6273  0.2726
  427MOL    H2934961   7.132   3.290   5.188  0.0011 -1.3515 -0.2892
  427MOL    C3034962   7.349   3.329   5.039 -0.5407 -0.2918  0.3197
  427MOL    O3134963   7.291   3.417   4.954 -0.4754 -0.2075  0.0058
  427MOL    H3234964   7.312   3.229   5.018 -0.0045 -0.2512 -0.8642
  427MOL    H3334965   7.457   3.338   5.028 -0.6578  1.6351  0.5124
  427MOL    C3434966   7.274   3.371   4.827  0.2472  0.1981  0.7293
  427MOL    O3534967   7.169   3.280   4.823 -0.5699  0.1095  0.1836
  427MOL    H3634968   7.359   3.327   4.776 -1.7726 -0.7688 -1.9036
  427MOL    H3734969   7.248   3.450   4.756 -2.7588 -0.3427  1.1697
  427MOL    C3834970   7.047   3.331   4.873 -0.0349 -0.8641 -0.3083
  427MOL    O3934971   6.973   3.232   4.931  0.3842 -0.0275 -0.1080
  427MOL    H4034972   6.987   3.372   4.792 -1.0056  0.1653  0.9264
  427MOL    H4134973   7.060   3.403   4.953  0.1390 -2.8623  1.5078
  427MOL    C4234974   6.884   3.170   4.834 -0.4985  0.0627  0.6769
  427MOL    O4334975   6.768   3.245   4.818 -0.8609 -0.1104  0.2051
  427MOL    H4434976   6.856   3.070   4.868  1.5359 -0.5335  0.6202
  427MOL    H4534977   6.928   3.169   4.734 -0.3299  2.2480  0.7199
  427MOL    C4634978   6.681   3.229   4.922  0.1468  0.6529 -0.5361
  427MOL    O4734979   6.627   3.100   4.918  0.2153  0.2259 -0.0819
  427MOL    H4834980   6.603   3.305   4.920 -0.2874  0.2014 -0.7878
  427MOL    H4934981   6.727   3.237   5.021  1.2635 -0.6264 -0.9540
  427MOL    C5034982   6.504   3.096   4.856 -0.3824 -0.5494 -0.3260
  427MOL    O5134983   6.396   3.129   4.937 -0.5493  1.2311 -0.1245
  427MOL    H5234984   6.486   2.998   4.813  0.9672 -0.9475 -0.0068
  427MOL    H5334985   6.499   3.163   4.770  0.2876 -1.2173 -0.8766
  427MOL    C5434986   6.381   3.043   5.040  0.1083  0.2845  0.0245
  427MOL    O5534987   6.264   3.063   5.106  0.0059  0.5399 -0.0375
  427MOL    H5634988   6.470   3.052   5.102  1.2651 -1.1677 -1.3937
  427MOL    H5734989   6.380   2.938   5.011  0.1159 -0.0851  1.3514
  427MOL    C5834990   6.275   3.170   5.185  0.1177 -0.1326  0.2347
  427MOL    O5934991   6.356   3.150   5.292 -0.6797  0.2820 -0.6472
  427MOL    H6034992   6.178   3.197   5.227  0.1832 -1.2854  1.1578
  427MOL    H6134993   6.306   3.256   5.126 -1.6025  0.2984 -0.0629
  427MOL    C6234994   6.370   3.264   5.377  0.5233 -1.0082  0.3499
  427MOL    O6334995   6.406   3.383   5.316  0.4822 -0.7216 -0.4475
  427MOL    H6434996   6.441   3.240   5.455  0.2729 -0.5552  0.7193
  427MOL    H6534997   6.269   3.271   5.418  0.2216 -0.0307 -0.5217
  427MOL    C6634998   6.533   3.382   5.268 -1.1692  0.4012 -0.0563
  427MOL    O6734999   6.632   3.373   5.367  0.2198  0.3913  0.2126
  427MOL    H6835000   6.563   3.473   5.215  0.4285 -0.1158 -0.0620
  427MOL    H6935001   6.539   3.308   5.189  0.2519 -0.2244  0.6205
  427MOL    C7035002   6.754   3.331   5.316  0.2214 -0.2488  0.6502
  427MOL    O7135003   6.737   3.204   5.269 -0.2757  0.0993  0.5855
  427MOL    H7235004   6.832   3.341   5.391  0.4847  3.0615  0.0078
  427MOL    H7335005   6.785   3.397   5.235  1.3215  2.0295  2.8624
  427MOL    C7435006   6.726   3.105   5.377  0.3196  0.4145 -0.4218
  427MOL    O7535007   6.860   3.080   5.409 -0.2811  0.4112 -0.1429
  427MOL    H7635008   6.669   3.018   5.346  2.0623 -1.3012  1.1190
  427MOL    H7735009   6.668   3.148   5.458  1.9159  0.3953  0.7640
  427MOL    C7835010   6.938   3.025   5.303  0.3611  0.0051  0.0824
  427MOL    O7935011   7.059   2.980   5.344 -0.1893  0.3577  0.0301
  427MOL    H8035012   6.955   3.104   5.230 -1.9580 -1.5024 -2.1933
  427MOL    H8135013   6.877   2.951   5.251 -0.4132  1.1653 -0.7049
  427MOL    H8235014   7.123   3.049   5.335  0.6895 -0.4246  0.1207
  428MOL     C135015   2.961   0.186   3.201 -0.4149  0.4989 -0.1204
  428MOL     O235016   3.039   0.091   3.268  0.3312  0.1921  0.7013
  428MOL     H335017   2.868   0.191   3.258  0.2244 -2.0378  1.2636
  428MOL     H435018   3.000   0.286   3.182 -2.6786  1.0755 -2.0762
  428MOL     H535019   2.934   0.138   3.106  1.7894 -0.2783 -0.3770
  428MOL     C635020   3.178   0.116   3.256 -0.3135  0.3546 -0.3375
  428MOL     O735021   3.213   0.103   3.125  0.0808  0.4173 -0.1078
  428MOL     H835022   3.237   0.053   3.323 -1.5722  1.0630  1.4696
  428MOL     H935023   3.216   0.213   3.290 -1.1656  0.2883  0.8663
  428MOL    C1035024   3.234   7.757   3.068  0.6021 -0.8309 -0.3092
  428MOL    O1135025   3.356   7.699   3.106  0.5946  0.4587  0.4906
  428MOL    H1235026   3.236   7.764   2.959 -0.4556 -1.0491 -0.3509
  428MOL    H1335027   3.151   7.692   3.095 -0.9511  1.2063 -0.0322
  428MOL    C1435028   3.464   7.765   3.054  0.7529  0.2005 -0.2066
  428MOL    O1535029   3.479   7.724   2.926  0.3701 -0.4506  0.1830
  428MOL    H1635030   3.547   7.729   3.116  0.0985 -0.5067  0.2690
  428MOL    H1735031   3.475   0.090   3.063  0.1404  0.1671  1.1058
  428MOL    C1835032   3.590   0.001   2.861  0.0260  0.1972 -0.5746
  428MOL    O1935033   3.570   0.137   2.844 -0.2599  0.3856  0.0165
  428MOL    H2035034   3.609   7.727   2.772 -0.0896  0.9152 -1.0708
  428MOL    H2135035   3.680   7.755   2.914 -0.5954 -2.0572 -0.7560
  428MOL    C2235036   3.460   0.171   2.763 -0.3314  0.3926 -0.2904
  428MOL    O2335037   3.504   0.239   2.646 -0.5074  0.1285 -0.4796
  428MOL    H2435038   3.394   0.225   2.832  0.6549 -0.1539  1.1098
  428MOL    H2535039   3.404   0.082   2.732  0.9404 -1.0545  1.3951
  428MOL    C2635040   3.556   0.158   2.554  0.1948 -0.2879 -0.3393
  428MOL    O2735041   3.452   0.100   2.475 -0.2472  0.3152  0.3419
  428MOL    H2835042   3.633   0.093   2.597  0.0824  0.8862  1.7193
  428MOL    H2935043   3.609   0.223   2.485 -0.1155  2.0805  1.5894
  428MOL    C3035044   3.365   0.193   2.413 -0.4897  0.1593 -0.2601
  428MOL    O3135045   3.415   0.267   2.303 -0.7972 -0.5285 -0.1795
  428MOL    H3235046   3.325   0.276   2.471 -2.7765 -0.5869 -0.7268
  428MOL    H3335047   3.272   0.144   2.385 -0.5554  0.7825 -1.1504
  428MOL    C3435048   3.356   0.212   2.187  0.7130  0.4390  0.0273
  428MOL    O3535049   3.392   0.084   2.167  0.4348 -0.3613  0.1888
  428MOL    H3635050   3.390   0.277   2.105  0.4094  0.2561 -0.2457
  428MOL    H3735051   3.247   0.223   2.187  0.5552 -0.8889  2.0174
  428MOL    C3835052   3.525   0.056   2.140 -0.2268 -0.1994  0.4512
  428MOL    O3935053   3.555   0.094   2.005  0.1049  0.6216 -0.2649
  428MOL    H4035054   3.540   7.732   2.146  0.8615 -0.1776 -1.5859
  428MOL    H4135055   3.591   0.109   2.208  0.7936  0.4814 -1.0544
  428MOL    C4235056   3.477   0.019   1.914 -0.2581  0.2487  0.5484
  428MOL    O4335057   3.514   7.662   1.907  0.2091 -0.1116  0.2938
  428MOL    H4435058   3.492   0.062   1.815  1.1853  0.8883  1.0199
  428MOL    H4535059   3.370   0.034   1.930 -0.5440  1.3073 -2.0576
  428MOL    C4635060   3.648   7.645   1.862  0.0371  1.7907  0.6411
  428MOL    O4735061   3.675   7.703   1.735  0.0751  0.0971 -0.1824
  428MOL    H4835062   3.677   7.540   1.859 -0.4106  1.7146 -1.8188
  428MOL    H4935063   3.713   7.689   1.938  0.2983  0.3856  1.2435
  428MOL    C5035064   3.662   7.610   1.631 -0.6078 -0.7675  0.2950
  428MOL    O5135065   3.762   7.511   1.620 -0.2337 -0.0572 -0.2086
  428MOL    H5235066   3.660   7.663   1.535 -3.2253 -0.1430  0.6611
  428MOL    H5335067   3.564   7.565   1.648 -0.8159  0.5361  2.7580
  428MOL    C5435068   3.886   7.567   1.596 -0.0674 -0.1405  0.3930
  428MOL    O5535069   3.978   7.484   1.543  0.9513 -0.3098  0.1217
  428MOL    H5635070   3.925   7.591   1.696 -1.7443 -0.5895  1.1749
  428MOL    H5735071   3.884   7.652   1.528 -0.8080  0.0389  0.6356
  428MOL    C5835072   3.969   7.476   1.402  0.2150  0.1601 -0.1096
  428MOL    O5935073   4.001   7.598   1.347 -0.1734  0.3130 -0.1293
  428MOL    H6035074   3.865   7.464   1.373  0.6022  1.6041 -2.1883
  428MOL    H6135075   4.028   7.394   1.360  1.0129 -0.1341  1.5598
  428MOL    C6235076   4.134   7.623   1.339  0.4401 -0.2593 -0.3999
  428MOL    O6335077   4.189   7.609   1.214 -0.1689  0.1545  0.1813
  428MOL    H6435078   4.186   7.561   1.412 -2.4025 -1.0593  1.0179
  428MOL    H6535079   4.160   7.727   1.360 -0.0061 -0.4850  1.3440
  428MOL    C6635080   4.114   7.662   1.110  0.0348  0.1040  0.1891
  428MOL    O6735081   4.174   7.636   0.995  0.2053 -0.5196  0.8024
  428MOL    H6835082   4.090   7.767   1.127  1.3017  0.6625 -1.3237
  428MOL    H6935083   4.019   7.608   1.106 -0.0573  0.2411  0.5437
  428MOL    C7035084   4.275   7.724   0.953  0.2788 -0.0664  0.1673
  428MOL    O7135085   4.239   0.045   0.866  0.7710 -0.4460  0.4416
  428MOL    H7235086   4.357   7.674   0.902 -2.9420 -2.9764 -2.3991
  428MOL    H7335087   4.310   7.779   1.041 -0.3182 -0.3327  0.5716
  428MOL    C7435088   4.188   0.002   0.742  0.1271 -0.1795 -0.3636
  428MOL    O7535089   4.294   0.010   0.645  0.9945  0.7401 -0.5317
  428MOL    H7635090   4.119   0.084   0.722 -0.5606 -0.9441 -1.1681
  428MOL    H7735091   4.115   7.705   0.751 -1.7750  1.1634 -3.0619
  428MOL    C7835092   4.350   7.666   0.621 -0.1220  0.7450 -0.0740
  428MOL    O7935093   4.413   7.653   0.492  0.0376 -0.3708 -0.1521
  428MOL    H8035094   4.284   7.580   0.631 -0.2000  1.1183  3.0987
  428MOL    H8135095   4.426   7.641   0.695 -1.7438 -0.0793  1.3349
  428MOL    H8235096   4.348   7.668   0.425 -1.0188 -2.8879  0.2689
  429MOL     C135097   6.802   2.580   4.306  0.6619  0.8816 -0.1940
  429MOL     O235098   6.715   2.486   4.365  0.6375 -0.5134 -0.0393
  429MOL     H335099   6.871   2.538   4.232  0.5375  0.3804 -0.0259
  429MOL     H435100   6.746   2.645   4.238  0.0617  0.5448 -0.0274
  429MOL     H535101   6.864   2.641   4.372  2.8105 -1.4893  0.0601
  429MOL     C635102   6.624   2.421   4.282 -0.8202  0.1061  0.0477
  429MOL     O735103   6.521   2.509   4.226  0.1734  0.0642 -0.1969
  429MOL     H835104   6.570   2.334   4.320 -2.2627  1.5531  1.3742
  429MOL     H935105   6.685   2.376   4.204  0.8239  0.2185  1.2393
  429MOL    C1035106   6.432   2.533   4.329  0.2361 -0.1812  0.8613
  429MOL    O1135107   6.353   2.422   4.375  0.5645  0.5440 -0.5712
  429MOL    H1235108   6.359   2.602   4.287 -0.7612 -0.7611  1.6199
  429MOL    H1335109   6.476   2.582   4.416  0.8385  1.6930 -0.4623
  429MOL    C1435110   6.271   2.350   4.281  0.1889  0.1747  0.2526
  429MOL    O1535111   6.168   2.441   4.245  0.1947 -0.4660 -0.3859
  429MOL    H1635112   6.218   2.264   4.321 -1.1891  0.7728 -0.2714
  429MOL    H1735113   6.343   2.321   4.204 -0.1158 -0.4311  0.2007
  429MOL    C1835114   6.095   2.476   4.362 -0.2743 -0.2966 -0.3339
  429MOL    O1935115   6.010   2.372   4.408 -0.3657  0.2099  0.0393
  429MOL    H2035116   6.034   2.565   4.345 -0.6461 -0.7032 -1.1687
  429MOL    H2135117   6.163   2.506   4.441 -0.0909 -0.6689 -0.3497
  429MOL    C2235118   5.896   2.358   4.328  0.0593  0.1048  0.3639
  429MOL    O2335119   5.810   2.463   4.353 -0.0590  0.0301  0.2140
  429MOL    H2435120   5.844   2.265   4.354 -0.4037  0.1681 -0.3212
  429MOL    H2535121   5.909   2.340   4.221  0.0143 -1.3000  0.5820
  429MOL    C2635122   5.758   2.457   4.487  0.1677 -0.0393  0.1041
  429MOL    O2735123   5.641   2.537   4.494  0.0706 -0.2784 -0.2682
  429MOL    H2835124   5.822   2.497   4.566 -1.4919  1.2289  0.8426
  429MOL    H2935125   5.719   2.358   4.510 -2.4092  0.8188 -0.3563
  429MOL    C3035126   5.523   2.502   4.427  0.3382  0.0081  0.6255
  429MOL    O3135127   5.443   2.416   4.502 -0.0817 -0.3691 -0.0256
  429MOL    H3235128   5.542   2.466   4.326 -1.8792 -1.5690  0.7157
  429MOL    H3335129   5.464   2.593   4.414 -0.4529 -0.6264 -0.3035
  429MOL    C3435130   5.368   2.486   4.603 -0.0154  0.5523 -0.0692
  429MOL    O3535131   5.238   2.516   4.567  0.0375 -0.7216 -0.2689
  429MOL    H3635132   5.424   2.577   4.624  1.9580 -0.6412 -0.0284
  429MOL    H3735133   5.373   2.433   4.699  1.0501  1.2192  0.2584
  429MOL    C3835134   5.175   2.598   4.656 -0.0621 -0.2423  0.7716
  429MOL    O3935135   5.114   2.525   4.761 -0.2706 -0.1396 -0.4565
  429MOL    H4035136   5.097   2.651   4.603  1.4259 -0.7127 -1.9684
  429MOL    H4135137   5.241   2.672   4.703  0.7091 -0.5851  0.2439
  429MOL    C4235138   5.001   2.456   4.711 -0.3860 -0.9638  0.6717
  429MOL    O4335139   4.889   2.540   4.684  0.5590 -0.1325 -0.5566
  429MOL    H4435140   4.986   2.383   4.791 -0.7148 -2.7750 -1.0278
  429MOL    H4535141   5.021   2.397   4.622  3.1395 -0.6832  1.2196
  429MOL    C4635142   4.816   2.562   4.803  0.1462  0.0238 -1.0049
  429MOL    O4735143   4.729   2.458   4.833  0.5871 -0.6280  0.3331
  429MOL    H4835144   4.764   2.658   4.806 -0.3178 -0.2557  1.6903
  429MOL    H4935145   4.879   2.588   4.888  1.2487 -1.4376 -1.3608
  429MOL    C5035146   4.639   2.448   4.732  0.4914 -0.3361  0.1929
  429MOL    O5135147   4.545   2.335   4.743 -0.0902 -0.0843  0.4009
  429MOL    H5235148   4.687   2.435   4.635 -1.2274 -1.0987 -0.5609
  429MOL    H5335149   4.573   2.535   4.732 -0.5110 -1.0866  0.5532
  429MOL    C5435150   4.463   2.357   4.848  0.2651  1.0527 -0.0864
  429MOL    O5535151   4.353   2.426   4.818  0.8377 -0.5579 -0.1436
  429MOL    H5635152   4.515   2.402   4.932  1.1702  1.3125 -0.7742
  429MOL    H5735153   4.440   2.258   4.888  0.3759  0.8073 -0.6188
  429MOL    C5835154   4.275   2.363   4.719 -0.4520  0.7658  0.0650
  429MOL    O5935155   4.148   2.416   4.716 -0.5501  0.5741  0.3880
  429MOL    H6035156   4.253   2.258   4.739 -1.7666  0.4998 -2.5249
  429MOL    H6135157   4.323   2.356   4.621 -1.1125 -2.3018 -0.1041
  429MOL    C6235158   4.140   2.553   4.687 -0.2178  0.1484  0.7889
  429MOL    O6335159   4.174   2.576   4.549 -0.1766 -0.2197 -0.3071
  429MOL    H6435160   4.182   2.628   4.753  4.2377 -2.5679  1.1874
  429MOL    H6535161   4.032   2.571   4.685 -0.2050  0.3645  1.9991
  429MOL    C6635162   4.307   2.621   4.519 -0.3670 -0.0269  0.0335
  429MOL    O6735163   4.344   2.727   4.601  0.1871 -0.5173  0.5874
  429MOL    H6835164   4.323   2.655   4.416  1.8675  0.4965  0.5230
  429MOL    H6935165   4.387   2.548   4.533 -0.5164 -0.6288 -2.0407
  429MOL    C7035166   4.286   2.848   4.563 -0.3935  0.0380 -0.2751
  429MOL    O7135167   4.358   2.911   4.458 -0.7024  0.0803  0.4951
  429MOL    H7235168   4.276   2.915   4.648  0.6838  0.2120 -0.2771
  429MOL    H7335169   4.183   2.843   4.530  0.1902 -0.7742 -2.0310
  429MOL    C7435170   4.427   3.026   4.501  0.0669  0.0244  0.1136
  429MOL    O7535171   4.514   2.996   4.598 -1.2373 -0.1115 -0.8176
  429MOL    H7635172   4.364   3.106   4.540  0.6222  1.1619 -1.2534
  429MOL    H7735173   4.483   3.073   4.420  1.9247  1.0931  1.9989
  429MOL    C7835174   4.616   2.909   4.553  0.4006 -0.0548  0.3855
  429MOL    O7935175   4.718   2.905   4.651  0.2618  0.1416  0.1485
  429MOL    H8035176   4.666   2.921   4.457  1.4185  0.3302  0.9617
  429MOL    H8135177   4.573   2.809   4.542 -2.0051  1.0452 -0.5994
  429MOL    H8235178   4.754   2.992   4.653 -0.6218  0.7096 -4.0026
  430MOL     C135179   6.389   0.863   3.375 -0.4361 -0.7799 -0.1527
  430MOL     O235180   6.345   0.825   3.244 -0.6267 -0.4207 -0.1120
  430MOL     H335181   6.378   0.781   3.445 -0.9579 -1.8851 -1.4989
  430MOL     H435182   6.494   0.894   3.371 -0.0439 -2.1366 -0.7824
  430MOL     H535183   6.330   0.947   3.412 -1.1349 -0.9991 -0.7710
  430MOL     C635184   6.211   0.841   3.214 -0.9207 -0.0432 -0.1372
  430MOL     O735185   6.128   0.795   3.312 -0.1852  0.1078 -0.0491
  430MOL     H835186   6.191   0.797   3.117  3.1691 -0.5535 -0.8068
  430MOL     H935187   6.197   0.949   3.215  2.8099  0.4990  1.2917
  430MOL    C1035188   6.134   0.662   3.333 -0.1105 -0.4131  0.6788
  430MOL    O1135189   6.071   0.584   3.233  0.5412  0.3945  0.1604
  430MOL    H1235190   6.077   0.640   3.423 -1.2459 -0.4037 -0.0267
  430MOL    H1335191   6.235   0.624   3.351 -1.1499 -4.4177 -1.4891
  430MOL    C1435192   6.108   0.449   3.230  0.2867  0.5701 -0.3687
  430MOL    O1535193   6.201   0.429   3.132 -0.4854  0.8403  0.4029
  430MOL    H1635194   6.017   0.394   3.204  1.1186 -1.0145  0.0343
  430MOL    H1735195   6.134   0.405   3.326 -0.8894 -1.6732 -1.0189
  430MOL    C1835196   6.179   0.312   3.063  0.6911 -0.3260 -0.2444
  430MOL    O1935197   6.058   0.318   2.996  0.1921 -0.7816 -0.2067
  430MOL    H2035198   6.179   0.224   3.126 -0.2524  0.1253  0.4104
  430MOL    H2135199   6.251   0.302   2.982  1.6658 -1.2791  0.7278
  430MOL    C2235200   6.042   0.433   2.911 -0.6896  0.2691  0.4353
  430MOL    O2335201   5.924   0.417   2.852  0.0387  0.1015  0.8254
  430MOL    H2435202   6.108   0.435   2.824  1.4049 -2.0141  1.9079
  430MOL    H2535203   6.048   0.527   2.966 -0.2586  0.2766  0.3777
  430MOL    C2635204   5.814   0.427   2.929 -0.3811  0.5319  0.2996
  430MOL    O2735205   5.831   0.538   3.018 -0.4476 -0.7716 -0.1437
  430MOL    H2835206   5.785   0.338   2.984  1.5711 -1.6188 -2.0474
  430MOL    H2935207   5.733   0.443   2.858  1.1443  0.8846 -1.3963
  430MOL    C3035208   5.734   0.547   3.120  0.2649 -1.0601 -0.4950
  430MOL    O3135209   5.610   0.546   3.077 -0.6742 -0.0076  0.7104
  430MOL    H3235210   5.758   0.628   3.189 -1.8351  1.3542 -2.4927
  430MOL    H3335211   5.755   0.461   3.185  1.1608 -2.6916 -2.8704
  430MOL    C3435212   5.587   0.662   3.004 -1.0930 -0.3430 -0.4350
  430MOL    O3535213   5.461   0.675   2.962 -0.1335  0.7379 -0.5529
  430MOL    H3635214   5.665   0.678   2.929  0.7333 -1.3629  1.2167
  430MOL    H3735215   5.595   0.744   3.075 -0.0482 -0.1210 -0.8012
  430MOL    C3835216   5.425   0.605   2.845 -0.3089  0.3540 -0.0825
  430MOL    O3935217   5.295   0.619   2.802  0.0260 -0.1703 -0.6192
  430MOL    H4035218   5.455   0.500   2.852 -0.9991 -0.0266 -2.3641
  430MOL    H4135219   5.485   0.651   2.766  0.9129 -0.2712  0.4619
  430MOL    C4235220   5.212   0.545   2.881  0.3371 -0.1059  0.0400
  430MOL    O4335221   5.224   0.413   2.850  0.4277 -0.0514  1.0288
  430MOL    H4435222   5.110   0.584   2.876  0.1691 -0.6806 -1.2810
  430MOL    H4535223   5.249   0.550   2.983  1.2333 -1.5979 -0.1939
  430MOL    C4635224   5.168   0.375   2.731 -0.7310 -0.3733 -0.1223
  430MOL    O4735225   5.034   0.388   2.720  0.4069 -0.2861 -0.5660
  430MOL    H4835226   5.194   0.270   2.714 -1.8616 -0.6085 -0.4505
  430MOL    H4935227   5.223   0.423   2.650  1.5511  0.2849  1.7888
  430MOL    C5035228   4.989   0.388   2.589 -0.1142  0.6109 -0.2596
  430MOL    O5135229   4.996   0.261   2.529  0.0153 -0.4247 -0.6304
  430MOL    H5235230   5.058   0.443   2.524 -1.0887 -0.5040 -2.2901
  430MOL    H5335231   4.892   0.434   2.572 -0.9234 -0.7879  0.5171
  430MOL    C5435232   4.923   0.165   2.593 -0.3256 -0.7447 -0.0573
  430MOL    O5535233   4.812   0.130   2.518 -0.1699  0.4261 -0.2435
  430MOL    H5635234   4.899   0.196   2.694  0.3102  3.4902 -1.1170
  430MOL    H5735235   4.978   0.071   2.601 -0.2389 -0.5654  1.4979
  430MOL    C5835236   4.724   0.227   2.490 -0.8055 -0.0704 -0.2265
  430MOL    O5935237   4.680   0.290   2.604  0.2492 -0.2244  0.0112
  430MOL    H6035238   4.642   0.183   2.433 -0.6986 -2.0419  1.0899
  430MOL    H6135239   4.774   0.302   2.429  0.7602 -0.1013  0.9818
  430MOL    C6235240   4.581   0.222   2.664 -0.1477 -0.3912  0.7547
  430MOL    O6335241   4.464   0.241   2.594  0.1816 -0.0322  0.1291
  430MOL    H6435242   4.578   0.241   2.771  0.3998  0.1376  0.6755
  430MOL    H6535243   4.607   0.116   2.659  0.7203 -0.0801 -2.2231
  430MOL    C6635244   4.420   0.371   2.605 -0.6033 -0.3432 -0.8502
  430MOL    O6735245   4.300   0.374   2.536 -0.3084  0.2843 -0.2402
  430MOL    H6835246   4.490   0.444   2.563  2.4444 -2.7692 -0.2222
  430MOL    H6935247   4.398   0.393   2.709 -2.7634  1.7670 -1.7114
  430MOL    C7035248   4.307   0.376   2.399 -0.1329 -0.6981  0.7253
  430MOL    O7135249   4.307   0.508   2.359  0.2496  0.0590  0.6413
  430MOL    H7235250   4.214   0.336   2.357 -1.5593  2.6373  0.5763
  430MOL    H7335251   4.397   0.328   2.360 -0.8942 -2.0657  0.5967
  430MOL    C7435252   4.179   0.572   2.375 -0.6972 -0.3949 -0.7762
  430MOL    O7535253   4.145   0.665   2.281  0.1486 -0.2426  0.5517
  430MOL    H7635254   4.183   0.619   2.473 -0.8599  0.9697 -1.4110
  430MOL    H7735255   4.103   0.495   2.385 -0.7007 -0.1288  1.3404
  430MOL    C7835256   4.163   0.621   2.153  1.0308  0.6439  0.4283
  430MOL    O7935257   4.137   0.730   2.065  0.3461 -0.6216  0.1650
  430MOL    H8035258   4.087   0.549   2.125  0.1133  1.6215  0.3604
  430MOL    H8135259   4.264   0.590   2.127  0.6996  1.6560 -2.2733
  430MOL    H8235260   4.198   0.801   2.080 -0.7774  0.5972 -0.8427
  431MOL     C135261   3.256   0.560   4.267 -0.5408 -0.3637  0.3254
  431MOL     O235262   3.291   0.523   4.397 -0.2790 -0.4622 -0.1856
  431MOL     H335263   3.158   0.607   4.258 -0.2631  0.7560  2.5942
  431MOL     H435264   3.331   0.621   4.216  0.3529 -1.1912  0.6362
  431MOL     H535265   3.270   0.466   4.214 -1.5572 -0.8770  0.9534
  431MOL     C635266   3.271   0.630   4.484  0.1970 -0.0544 -0.6206
  431MOL     O735267   3.138   0.675   4.487 -0.0534 -0.0971  0.5843
  431MOL     H835268   3.338   0.706   4.447  1.7215 -0.9691  0.2172
  431MOL     H935269   3.295   0.605   4.588 -0.9659  1.0425 -0.0754
  431MOL    C1035270   3.135   0.807   4.523 -0.0357  0.0364  0.1553
  431MOL    O1135271   3.206   0.894   4.433 -0.3258  0.1012  0.6678
  431MOL    H1235272   3.175   0.811   4.624  0.6270 -0.7280 -0.0740
  431MOL    H1335273   3.040   0.855   4.547 -0.9390 -0.7901 -1.6769
  431MOL    C1435274   3.122   0.935   4.330 -0.4238  0.5005 -0.0559
  431MOL    O1535275   3.038   1.038   4.383  0.0195  0.7265 -0.2252
  431MOL    H1635276   3.066   0.850   4.293  1.0587  0.6834 -2.8290
  431MOL    H1735277   3.176   0.981   4.248  2.3269  0.1724  1.4996
  431MOL    C1835278   2.931   1.076   4.287  0.3225 -0.4457  0.8786
  431MOL    O1935279   2.852   0.970   4.249  0.7450  0.3202 -0.5785
  431MOL    H2035280   2.987   1.117   4.203  0.2091 -3.4227 -0.7250
  431MOL    H2135281   2.878   1.165   4.319  1.4633  0.5020  0.1700
  431MOL    C2235282   2.747   0.944   4.335  0.8185  0.2238 -0.5718
  431MOL    O2335283   2.671   0.833   4.301  0.0846  0.2397  0.6232
  431MOL    H2435284   2.687   1.034   4.348  0.7063  0.5785 -3.2896
  431MOL    H2535285   2.798   0.925   4.429 -0.4759 -0.7947 -0.0604
  431MOL    C2635286   2.736   0.716   4.315 -0.2480 -0.1589 -0.6557
  431MOL    O2735287   2.755   0.684   4.451  0.1040  0.0524  0.0460
  431MOL    H2835288   2.830   0.731   4.261 -0.1558  0.5798 -0.3064
  431MOL    H2935289   2.684   0.632   4.270 -0.8518 -1.0744  1.6639
  431MOL    C3035290   2.794   0.552   4.469 -0.9079  0.3182 -0.1454
  431MOL    O3135291   2.682   0.474   4.501 -0.2712 -0.4537  0.4484
  431MOL    H3235292   2.862   0.560   4.554 -0.9588 -1.0196  0.0316
  431MOL    H3335293   2.853   0.520   4.383  0.1569 -0.5554  0.9075
  431MOL    C3435294   2.718   0.341   4.507 -0.1332  0.0872  0.1294
  431MOL    O3535295   2.798   0.302   4.610 -0.3016 -0.9987  0.1020
  431MOL    H3635296   2.768   0.321   4.412 -1.2823  2.2479 -0.9818
  431MOL    H3735297   2.625   0.286   4.514 -0.0436  0.0131  0.8160
  431MOL    C3835298   2.741   0.330   4.732 -0.5699 -0.3315 -0.0642
  431MOL    O3935299   2.794   0.255   4.841 -0.1054  0.3246  0.0977
  431MOL    H4035300   2.633   0.318   4.736 -0.7667  1.6914  1.5613
  431MOL    H4135301   2.753   0.435   4.757 -0.4991 -0.4855  0.5542
  431MOL    C4235302   2.745   0.124   4.848 -0.6255 -0.3810 -0.0296
  431MOL    O4335303   2.623   0.117   4.908 -0.2668 -0.2373  0.0419
  431MOL    H4435304   2.817   0.053   4.888  0.9986  1.0839 -0.2831
  431MOL    H4535305   2.732   0.089   4.746 -3.5213 -0.9837  0.5155
  431MOL    C4635306   2.623   0.169   5.035 -0.4239 -0.2226  0.4131
  431MOL    O4735307   2.678   0.066   5.119 -0.3464  0.2689  0.1354
  431MOL    H4835308   2.518   0.185   5.064 -0.1663 -2.1507  2.5805
  431MOL    H4935309   2.673   0.265   5.047  0.7613 -0.9034  0.9401
  431MOL    C5035310   2.678   0.099   5.253  0.3283 -0.5530  0.0500
  431MOL    O5135311   2.789   0.039   5.318 -0.1544 -0.4858 -0.0436
  431MOL    H5235312   2.585   0.069   5.301  0.2187 -0.9820 -0.4331
  431MOL    H5335313   2.680   0.203   5.284  1.3609 -1.3635  2.8790
  431MOL    C5435314   2.766   7.685   5.342  0.4534 -0.5148  0.0146
  431MOL    O5535315   2.682   7.666   5.450  0.5314  0.1236 -0.4334
  431MOL    H5635316   2.861   7.640   5.369  1.7283  1.4751 -1.0125
  431MOL    H5735317   2.717   7.647   5.252  0.2333  3.4596 -1.6636
  431MOL    C5835318   2.735   7.694   5.575 -0.6129 -0.7985  0.6658
  431MOL    O5935319   2.832   7.601   5.616  0.2376 -0.0513  0.0875
  431MOL    H6035320   2.653   7.702   5.647 -0.6168 -0.2640  0.6031
  431MOL    H6135321   2.781   0.009   5.574 -1.5573 -0.3084 -4.2209
  431MOL    C6235322   2.924   7.650   5.713  0.4214  0.6847  0.0032
  431MOL    O6335323   2.853   7.667   5.835  0.1249 -0.3253 -0.0092
  431MOL    H6435324   2.973   7.739   5.674  0.3778  0.7376  0.0676
  431MOL    H6535325   3.012   7.586   5.720  1.1257  1.4533 -1.6003
  431MOL    C6635326   2.818   7.555   5.895  0.0456  0.9959 -0.4731
  431MOL    O6735327   2.932   7.489   5.926 -0.3545 -0.1730  0.1687
  431MOL    H6835328   2.760   7.491   5.829  0.1142 -0.2135  0.6145
  431MOL    H6935329   2.755   7.579   5.981  0.7855 -1.1954  0.7205
  431MOL    C7035330   2.915   7.379   6.008  0.3404  0.8200 -0.5594
  431MOL    O7135331   2.820   7.291   5.954  0.5556 -0.5640 -0.0185
  431MOL    H7235332   2.866   7.408   6.101 -0.0447  1.6948 -1.0275
  431MOL    H7335333   3.007   7.330   6.040 -0.9434 -1.5108 -0.3750
  431MOL    C7435334   2.882   7.186   5.890 -0.5440  0.2369 -0.0386
  431MOL    O7535335   2.790   7.077   5.876  0.2022 -0.5683  0.7577
  431MOL    H7635336   2.951   7.145   5.964  1.2251  1.3369 -1.0279
  431MOL    H7735337   2.937   7.216   5.801  1.5818  0.4874  1.3288
  431MOL    C7835338   2.685   7.107   5.797 -0.0074 -0.1701 -0.0272
  431MOL    O7935339   2.607   6.999   5.774 -0.3924 -0.5091 -0.4969
  431MOL    H8035340   2.729   7.141   5.703  1.3858 -1.1666  0.2428
  431MOL    H8135341   2.630   7.186   5.848  0.2958 -0.5044  0.8393
  431MOL    H8235342   2.658   6.948   5.713 -0.2974 -0.4123 -0.4985
  432MOL     C135343   6.379   4.373   1.078  0.2246  0.2753  1.0195
  432MOL     O235344   6.434   4.497   1.046 -1.0289  0.2631 -0.4355
  432MOL     H335345   6.271   4.379   1.090  0.0361  0.7262 -0.8556
  432MOL     H435346   6.394   4.297   1.001  1.7568  1.3989  0.2037
  432MOL     H535347   6.412   4.326   1.171  1.1350 -1.3258 -0.0820
  432MOL     C635348   6.574   4.488   1.058  0.8571 -0.1689  0.2374
  432MOL     O735349   6.624   4.615   1.042 -0.1664  0.9153 -0.1229
  432MOL     H835350   6.614   4.414   0.989 -0.7232  0.1901 -1.1077
  432MOL     H935351   6.588   4.447   1.158  1.8732  0.7309  0.4721
  432MOL    C1035352   6.742   4.638   1.120  0.2719  0.4089 -0.0995
  432MOL    O1135353   6.713   4.676   1.255  0.0906 -0.4911 -0.2219
  432MOL    H1235354   6.790   4.727   1.078 -0.9019  0.9813 -0.2783
  432MOL    H1335355   6.804   4.549   1.111  0.0768  0.2782 -0.1714
  432MOL    C1435356   6.661   4.802   1.256 -0.2684 -0.0819  0.0522
  432MOL    O1535357   6.758   4.898   1.241  0.5280  0.2742 -0.4242
  432MOL    H1635358   6.600   4.811   1.346 -0.2743  1.2497 -0.0833
  432MOL    H1735359   6.595   4.803   1.169 -0.3959 -2.3488  0.0875
  432MOL    C1835360   6.843   4.927   1.352  0.0568  0.0704  0.1276
  432MOL    O1935361   6.931   5.015   1.306  0.4172  0.3965 -0.1652
  432MOL    H2035362   6.884   4.832   1.387  0.7935  1.1164  2.1699
  432MOL    H2135363   6.790   4.969   1.437 -1.0351  0.8692 -0.9360
  432MOL    C2235364   7.031   5.050   1.397 -0.3498 -0.2980 -0.3735
  432MOL    O2335365   7.097   4.934   1.441 -0.3141  0.3592  0.2932
  432MOL    H2435366   6.999   5.100   1.488  0.8558 -1.3666  0.6621
  432MOL    H2535367   7.091   5.124   1.345 -0.4166 -0.7701 -1.1369
  432MOL    C2635368   7.224   4.974   1.480  0.0393  0.5714  0.6028
  432MOL    O2735369   7.300   5.009   1.370  0.6807  0.6948 -0.3407
  432MOL    H2835370   7.278   4.900   1.539  1.7814  1.6829  0.4318
  432MOL    H2935371   7.210   5.053   1.554  1.4310  0.4848  0.9793
  432MOL    C3035372   7.422   5.057   1.410  0.2287  0.2027  0.0319
  432MOL    O3135373   7.514   4.955   1.413 -0.1777  0.4118  0.4956
  432MOL    H3235374   7.415   5.120   1.499  0.0883  1.6951 -1.0131
  432MOL    H3335375   7.450   5.123   1.328  3.0343  0.9801  1.5519
  432MOL    C3435376   7.635   5.004   1.468 -0.2577 -0.5638 -0.4598
  432MOL    O3535377   7.689   5.112   1.404 -0.6362 -0.0537 -0.4852
  432MOL    H3635378   7.704   4.920   1.468 -1.5601 -1.7059 -3.5183
  432MOL    H3735379   7.619   5.019   1.575 -0.7578 -1.4462 -0.4128
  432MOL    C3835380   7.743   5.060   1.289  0.3563 -0.3052  0.3312
  432MOL    O3935381   0.070   4.977   1.313 -0.7265 -0.4546 -0.3690
  432MOL    H4035382   7.781   5.146   1.235 -0.3562 -1.1483 -1.5470
  432MOL    H4135383   7.668   5.015   1.225  1.4308 -2.5437  0.5828
  432MOL    C4235384   0.157   4.969   1.208  0.2724 -0.3668  0.7488
  432MOL    O4335385   0.246   5.077   1.225  0.5336 -0.0987 -0.4312
  432MOL    H4435386   0.102   4.962   1.113 -0.4242  1.7191  0.9678
  432MOL    H4535387   0.208   4.874   1.212  1.5493  0.3416  1.3976
  432MOL    C4635388   0.348   5.042   1.306  0.0786 -0.6875  0.0226
  432MOL    O4735389   0.420   4.938   1.257  0.0985 -0.0023 -0.1364
  432MOL    H4835390   0.306   5.016   1.403  0.0210  0.6788  0.3623
  432MOL    H4935391   0.410   5.130   1.320  0.6580 -1.2018  0.7029
  432MOL    C5035392   0.517   4.971   1.164 -0.5627 -0.2643  0.6577
  432MOL    O5135393   0.635   4.973   1.230 -0.1284 -0.0909  0.2734
  432MOL    H5235394   0.490   5.070   1.127  1.6033  0.4752  1.0014
  432MOL    H5335395   0.521   4.907   1.076 -2.1005 -1.6980  1.5838
  432MOL    C5435396   0.690   4.849   1.248 -1.0599  0.4033 -0.1127
  432MOL    O5535397   0.808   4.857   1.328  0.6287  0.0153 -0.6429
  432MOL    H5635398   0.720   4.800   1.155  1.0130  1.0880  0.1677
  432MOL    H5735399   0.629   4.779   1.304  1.3033  0.2910  2.4366
  432MOL    C5835400   0.919   4.917   1.274 -0.2132  0.0136 -0.0858
  432MOL    O5935401   0.986   4.843   1.171  0.1305 -0.0141  0.1273
  432MOL    H6035402   0.992   4.933   1.353  1.2857  0.4839 -1.5407
  432MOL    H6135403   0.901   5.020   1.242 -0.5511 -0.3838 -1.2221
  432MOL    C6235404   1.038   4.726   1.223  0.1266  0.7119  0.2056
  432MOL    O6335405   1.050   4.635   1.117  0.1535 -0.2423 -0.4275
  432MOL    H6435406   0.980   4.676   1.301 -2.3915  0.9222 -1.4655
  432MOL    H6535407   1.139   4.738   1.264  0.7419 -2.0500 -0.3987
  432MOL    C6635408   1.150   4.667   1.031 -0.7661  0.2847  0.0119
  432MOL    O6735409   1.274   4.626   1.088  0.4308  0.0479  0.2590
  432MOL    H6835410   1.151   4.774   1.012 -4.6163  0.4504  0.2398
  432MOL    H6935411   1.140   4.616   0.935 -2.2535 -0.2745  0.4438
  432MOL    C7035412   1.299   4.491   1.094 -1.0503  0.4020  0.3249
  432MOL    O7135413   1.415   4.469   1.172 -0.4589 -0.2619 -0.2145
  432MOL    H7235414   1.317   4.449   0.995 -1.0657  0.3503  0.3446
  432MOL    H7335415   1.213   4.436   1.133 -1.0523 -0.8661 -1.4320
  432MOL    C7435416   1.413   4.527   1.299  0.3719 -0.5119  0.0051
  432MOL    O7535417   1.545   4.534   1.354  0.4249 -0.1905 -0.7264
  432MOL    H7635418   1.349   4.471   1.367  0.1174  0.7779  0.8324
  432MOL    H7735419   1.379   4.630   1.293  0.0551 -0.4033  3.0826
  432MOL    C7835420   1.591   4.412   1.397 -0.0813 -0.1594 -0.1559
  432MOL    O7935421   1.705   4.426   1.472  0.4332 -0.0800 -0.2028
  432MOL    H8035422   1.626   4.356   1.311  1.7736  0.6329  0.0686
  432MOL    H8135423   1.521   4.363   1.465  1.1554  1.2067  2.1830
  432MOL    H8235424   1.743   4.507   1.439 -0.1040  1.3616  2.5760
  433MOL     C135425   4.905   4.997   5.915  0.0396 -0.1195  0.1120
  433MOL     O235426   4.850   4.917   5.815 -0.5297  0.0104 -0.2227
  433MOL     H335427   4.820   5.018   5.981  0.8356 -1.9940  1.8168
  433MOL     H435428   4.978   4.934   5.966  1.3709  0.1762 -1.4307
  433MOL     H535429   4.944   5.091   5.879  0.7950 -0.6389 -0.4229
  433MOL     C635430   4.757   4.989   5.734 -0.0422  0.4281  0.1715
  433MOL     O735431   4.805   5.112   5.692  0.4011  0.5464  0.2809
  433MOL     H835432   4.675   5.019   5.799  0.3538  2.8566 -0.4070
  433MOL     H935433   4.709   4.927   5.658  0.3436  2.5174 -1.8531
  433MOL    C1035434   4.917   5.094   5.604 -0.6087  0.2113  0.5853
  433MOL    O1135435   4.871   5.069   5.475  0.0115 -0.0954  0.0850
  433MOL    H1235436   4.982   5.014   5.640 -0.7322 -0.5592 -0.8557
  433MOL    H1335437   4.977   5.185   5.605 -3.0383  1.9765 -2.4237
  433MOL    C1435438   4.975   5.040   5.386  0.5755  0.4604 -0.4689
  433MOL    O1535439   5.073   5.138   5.382  0.5821  0.2492 -0.4661
  433MOL    H1635440   4.927   5.019   5.290  1.4209 -0.3595 -0.7138
  433MOL    H1735441   5.025   4.948   5.415  0.7826  1.1220  1.3307
  433MOL    C1835442   5.026   5.249   5.310  0.2771  0.2590 -0.0781
  433MOL    O1935443   5.064   5.243   5.173  0.6579  0.3765 -0.2390
  433MOL    H2035444   5.060   5.338   5.361  1.3977  0.0397 -0.4373
  433MOL    H2135445   4.917   5.260   5.311  0.5032  3.1633 -1.5181
  433MOL    C2235446   5.194   5.284   5.158 -0.0786  0.4560  0.1131
  433MOL    O2335447   5.216   5.417   5.199  0.0211 -0.1223  0.1570
  433MOL    H2435448   5.209   5.259   5.053 -0.9827  0.3172  0.0079
  433MOL    H2535449   5.265   5.217   5.205 -1.3300 -0.2343  1.0641
  433MOL    C2635450   5.337   5.467   5.167  0.2046  0.8151 -0.1806
  433MOL    O2735451   5.351   5.482   5.027 -0.2198 -0.5319 -0.1407
  433MOL    H2835452   5.411   5.395   5.203 -1.8337 -1.6689 -0.8406
  433MOL    H2935453   5.356   5.561   5.220 -1.7962  1.2220 -0.1565
  433MOL    C3035454   5.251   5.569   4.974 -0.1158 -0.2909 -1.1149
  433MOL    O3135455   5.270   5.705   4.993  0.0458  0.2616 -0.0635
  433MOL    H3235456   5.156   5.542   5.021 -0.9931  1.1173 -2.0525
  433MOL    H3335457   5.236   5.563   4.867 -0.2731  0.2813 -1.1252
  433MOL    C3435458   5.385   5.762   4.937  0.0373 -0.5698  0.5508
  433MOL    O3535459   5.364   5.823   4.811 -0.8472  0.3541 -0.5378
  433MOL    H3635460   5.462   5.688   4.920  1.8789  1.0845  1.5090
  433MOL    H3735461   5.431   5.843   4.994  2.4821 -1.3520 -0.2752
  433MOL    C3835462   5.288   5.933   4.819 -0.4166 -0.5465 -0.2934
  433MOL    O3935463   5.355   6.047   4.866  0.6112 -0.3360 -0.7474
  433MOL    H4035464   5.196   5.934   4.877 -1.1612  0.8893 -1.4763
  433MOL    H4135465   5.253   5.959   4.719  1.8906 -2.4217 -1.6371
  433MOL    C4235466   5.452   6.101   4.783 -0.0839 -0.2803 -0.9110
  433MOL    O4335467   5.402   6.138   4.658  0.4986 -0.0875  0.0488
  433MOL    H4435468   5.531   6.028   4.770 -0.5955 -0.8199 -1.0503
  433MOL    H4535469   5.489   6.186   4.840  0.9394 -0.2362 -1.6295
  433MOL    C4635470   5.328   6.261   4.666  1.2914  0.2931  0.1392
  433MOL    O4735471   5.411   6.373   4.657  0.3010  0.3367 -0.5006
  433MOL    H4835472   5.257   6.269   4.748 -0.9052 -1.1521 -1.5554
  433MOL    H4935473   5.273   6.248   4.572 -0.0924  1.2880  0.7901
  433MOL    C5035474   5.340   6.494   4.642  0.0207  0.4382 -0.3464
  433MOL    O5135475   5.294   6.549   4.765 -0.4824  0.3090 -0.0688
  433MOL    H5235476   5.250   6.486   4.582 -1.1778  1.6335  1.2369
  433MOL    H5335477   5.413   6.552   4.585  0.3533  0.7021  0.3407
  433MOL    C5435478   5.233   6.674   4.744 -0.0624 -0.2249 -0.1182
  433MOL    O5535479   5.117   6.652   4.671  0.1497  0.0089  0.6328
  433MOL    H5635480   5.301   6.741   4.692 -0.7044 -0.2910 -1.0598
  433MOL    H5735481   5.211   6.718   4.841 -0.0412 -1.2291  0.3567
  433MOL    C5835482   5.027   6.574   4.740 -0.1050 -0.6299  0.3111
  433MOL    O5935483   4.974   6.652   4.842  0.1606 -0.7098  0.5981
  433MOL    H6035484   5.077   6.493   4.794  0.3143 -2.6449 -3.0076
  433MOL    H6135485   4.953   6.531   4.674 -0.3549  2.5708 -1.5976
  433MOL    C6235486   4.876   6.737   4.791  0.9489 -0.6823 -0.4839
  433MOL    O6335487   4.746   6.682   4.790 -0.7058  0.0832  0.1312
  433MOL    H6435488   4.906   6.778   4.695 -0.6814 -0.7512 -1.0262
  433MOL    H6535489   4.867   6.833   4.842  0.0903 -1.0256  0.0219
  433MOL    C6635490   4.700   6.667   4.920  0.4732 -0.4656 -0.2648
  433MOL    O6735491   4.669   6.789   4.975  0.2034 -0.5111 -1.0345
  433MOL    H6835492   4.775   6.617   4.982  3.3315  1.5803 -1.9635
  433MOL    H6935493   4.614   6.600   4.910 -0.4694  0.3301  2.0432
  433MOL    C7035494   4.572   6.863   4.910  0.5167  0.1068  0.1049
  433MOL    O7135495   4.453   6.790   4.918  0.1515  0.0148  0.7656
  433MOL    H7235496   4.603   6.875   4.806 -0.6426  1.6639 -0.0803
  433MOL    H7335497   4.551   6.959   4.956 -0.7464 -0.7305  1.3025
  433MOL    C7435498   4.373   6.824   5.025 -0.7508  0.5909 -0.6945
  433MOL    O7535499   4.248   6.766   5.024  0.5345 -0.2046 -0.3315
  433MOL    H7635500   4.353   6.931   5.030  0.3026  0.7430  0.7080
  433MOL    H7735501   4.430   6.808   5.116 -1.9179  3.2162  0.5690
  433MOL    C7835502   4.245   6.631   5.062  0.2333  0.5709  0.3034
  433MOL    O7935503   4.275   6.610   5.194 -0.0696 -0.0754  0.0203
  433MOL    H8035504   4.322   6.582   5.001  0.7782  1.1780  0.5003
  433MOL    H8135505   4.148   6.593   5.031  1.5164 -2.3892 -0.3337
  433MOL    H8235506   4.291   6.516   5.192  2.0117  0.2712 -1.4867
  434MOL     C135507   1.698   2.046   6.615  0.6678 -0.0707  0.0405
  434MOL     O235508   1.784   1.952   6.672  0.3145 -0.3291 -0.5997
  434MOL     H335509   1.653   2.016   6.520  0.6988 -0.0870  0.0306
  434MOL     H435510   1.614   2.077   6.678 -0.4497 -0.0156 -1.4483
  434MOL     H535511   1.759   2.132   6.589 -1.3449  0.7193 -2.2690
  434MOL     C635512   1.801   1.969   6.805  0.5248  1.2210  0.5010
  434MOL     O735513   1.687   1.931   6.877 -0.6831 -0.0874  0.4054
  434MOL     H835514   1.822   2.075   6.822 -1.3364  1.5189  0.9863
  434MOL     H935515   1.894   1.917   6.830  0.2987 -0.2288 -1.5542
  434MOL    C1035516   1.657   1.796   6.870 -0.4403  0.3168  0.2589
  434MOL    O1135517   1.585   1.763   6.984 -0.3879  0.4349  0.2579
  434MOL    H1235518   1.751   1.740   6.870 -0.8534 -0.3825 -0.2618
  434MOL    H1335519   1.613   1.768   6.774 -0.0658  0.2660  0.1015
  434MOL    C1435520   1.666   1.708   7.080  0.7157 -0.1297  0.0681
  434MOL    O1535521   1.686   1.577   7.051 -0.2002 -0.0430 -0.4391
  434MOL    H1635522   1.627   1.711   7.182  0.7532 -0.6142  0.0988
  434MOL    H1735523   1.762   1.758   7.083  0.6167  0.0236  0.7175
  434MOL    C1835524   1.726   1.503   7.167 -0.5447 -0.1591 -0.1247
  434MOL    O1935525   1.609   1.471   7.240  0.2298 -0.0374 -0.4485
  434MOL    H2035526   1.793   1.564   7.227  0.3025 -0.9774 -0.2324
  434MOL    H2135527   1.781   1.416   7.131 -1.3995 -1.0019  0.5827
  434MOL    C2235528   1.527   1.385   7.172  0.0661  0.2086  0.5672
  434MOL    O2335529   1.429   1.332   7.257 -0.2737 -0.1460 -0.1282
  434MOL    H2435530   1.581   1.294   7.144 -1.6903 -1.6596  2.9699
  434MOL    H2535531   1.482   1.429   7.082 -1.0028  0.0263  0.9977
  434MOL    C2635532   1.341   1.434   7.297  0.5198 -0.2513 -0.4598
  434MOL    O2735533   1.249   1.393   7.386  0.0396  0.2005 -0.2015
  434MOL    H2835534   1.280   1.486   7.223 -0.4286  0.4340  0.7892
  434MOL    H2935535   1.409   1.509   7.338  0.8712 -0.1587 -1.1917
  434MOL    C3035536   1.306   1.369   7.508  0.6204  0.4940 -0.7772
  434MOL    O3135537   1.334   1.486   7.585  0.3496  0.2994 -0.1958
  434MOL    H3235538   1.396   1.307   7.503  1.0689  1.0403  0.2712
  434MOL    H3335539   1.231   1.307   7.558 -0.4878  1.7325 -0.8742
  434MOL    C3435540   1.227   1.537   7.657  0.2729 -0.0131  0.6905
  434MOL    O3535541   1.162   1.447   7.740  0.0483 -0.2274 -0.1447
  434MOL    H3635542   1.149   1.572   7.589 -0.4382 -1.3298  0.7977
  434MOL    H3735543   1.274   1.615   7.716 -0.8780  0.2704  1.2419
  434MOL    C3835544   1.236   1.412   0.067  0.0102 -0.6150 -0.1184
  434MOL    O3935545   1.247   1.519   0.163 -0.1161  0.5593 -0.5398
  434MOL    H4035546   1.339   1.387   0.041  0.8190  0.6261  1.7340
  434MOL    H4135547   1.192   1.327   0.118 -0.0164 -0.7192 -0.3149
  434MOL    C4235548   1.123   1.541   0.223 -0.0367  0.2491  0.3400
  434MOL    O4335549   1.028   1.593   0.131  0.1596  0.0288 -0.1104
  434MOL    H4435550   1.127   1.592   0.319  1.0529  1.1793 -0.1946
  434MOL    H4535551   1.073   1.450   0.257  1.0969 -0.1230  1.0447
  434MOL    C4635552   1.041   1.741   0.108  0.5397 -0.1120  0.3645
  434MOL    O4735553   0.933   1.784   0.031 -0.1304  0.7783  0.1726
  434MOL    H4835554   1.135   1.765   0.059  1.3736 -2.1946  0.8986
  434MOL    H4935555   1.050   1.807   0.195  0.2836  1.0484 -0.4809
  434MOL    C5035556   0.930   1.923   0.010 -0.5607 -0.0734  0.5492
  434MOL    O5135557   0.916   1.989   0.129 -0.0906  0.2267  0.5581
  434MOL    H5235558   0.852   1.946   7.722 -0.9954  1.0721  1.3797
  434MOL    H5335559   1.019   1.955   7.738 -0.7860 -0.0095  0.2250
  434MOL    C5435560   0.786   1.985   0.174 -0.4588  0.2774 -0.1270
  434MOL    O5535561   0.705   2.064   0.099  0.3171 -0.0086  0.7989
  434MOL    H5635562   0.793   2.030   0.274  0.1423  0.0529 -0.0647
  434MOL    H5735563   0.751   1.882   0.182 -1.0595  0.5878  1.4330
  434MOL    C5835564   0.578   2.005   0.082  0.0899  0.2675  0.6656
  434MOL    O5935565   0.508   2.011   0.205 -0.4968 -0.1920  0.0013
  434MOL    H6035566   0.586   1.902   0.047 -1.1801  0.2212  0.5010
  434MOL    H6135567   0.523   2.065   0.009 -0.9668 -2.2093 -0.6258
  434MOL    C6235568   0.377   1.957   0.202 -0.4411  0.2463 -0.4597
  434MOL    O6335569   0.297   2.034   0.128  0.3461 -0.1671 -0.4185
  434MOL    H6435570   0.330   1.954   0.300 -0.6559  0.3215 -0.5589
  434MOL    H6535571   0.380   1.858   0.156  1.0695 -0.0208  0.1897
  434MOL    C6635572   0.278   2.162   0.189 -0.0723  0.4706 -0.5410
  434MOL    O6735573   0.176   2.235   0.115 -0.2983 -0.2770  0.3104
  434MOL    H6835574   0.371   2.218   0.178 -1.1850  2.5707  0.4625
  434MOL    H6935575   0.252   2.153   0.294  0.2091  1.8591 -0.3427
  434MOL    C7035576   0.053   2.208   0.169  0.6143  0.5631 -0.3208
  434MOL    O7135577   0.023   2.272   0.285  0.4997 -0.2160 -0.4637
  434MOL    H7235578   0.031   2.101   0.169  1.2788  0.4262 -0.0286
  434MOL    H7335579   7.760   2.234   0.096  2.1277 -0.5405 -2.3749
  434MOL    C7435580   7.668   2.271   0.310 -0.4662  0.3753 -0.5886
  434MOL    O7535581   7.595   2.367   0.238  0.0588 -0.4132 -0.4207
  434MOL    H7635582   7.632   2.284   0.412  0.4060 -1.5364  0.0019
  434MOL    H7735583   7.630   2.173   0.282 -0.7119 -0.4763  2.5302
  434MOL    C7835584   7.660   2.494   0.232  0.0214  0.4650  0.2360
  434MOL    O7935585   7.573   2.589   0.182  0.4988  0.1110  0.4437
  434MOL    H8035586   7.737   2.479   0.156  0.7737 -2.4248  1.5358
  434MOL    H8135587   7.701   2.529   0.326  0.3478  0.0126  0.2644
  434MOL    H8235588   7.564   2.658   0.246 -0.4944  1.0452 -0.6678
  435MOL     C135589   2.064   1.795   0.621 -0.4144  0.5440 -0.1247
  435MOL     O235590   2.022   1.887   0.526 -0.0336  0.0478  0.2783
  435MOL     H335591   1.990   1.786   0.701 -0.1564  0.7039  0.1308
  435MOL     H435592   2.071   1.696   0.576 -0.1600 -0.9330  3.0180
  435MOL     H535593   2.166   1.808   0.657 -0.1125 -0.7491 -0.4657
  435MOL     C635594   1.902   1.841   0.464  0.0717 -0.1420 -0.5313
  435MOL     O735595   1.790   1.839   0.549 -0.6443 -0.7403 -0.0556
  435MOL     H835596   1.925   1.749   0.411  1.2635 -0.7051  0.9163
  435MOL     H935597   1.893   1.917   0.387  0.7032 -0.8398 -1.2966
  435MOL    C1035598   1.729   1.961   0.562 -0.1077  0.0931  0.2996
  435MOL    O1135599   1.644   1.957   0.667 -0.3901  0.1617  0.6729
  435MOL    H1235600   1.666   1.974   0.474  0.6540  0.1983 -0.2374
  435MOL    H1335601   1.795   2.048   0.559 -0.3523  0.4350  3.6171
  435MOL    C1435602   1.704   2.021   0.774  0.2887 -0.0893 -0.3768
  435MOL    O1535603   1.829   1.967   0.809 -0.4200  1.0677 -0.0144
  435MOL    H1635604   1.639   2.000   0.859  0.3178 -0.8045 -0.5331
  435MOL    H1735605   1.706   2.128   0.753  0.1401 -0.2746 -1.3945
  435MOL    C1835606   1.877   2.034   0.925 -0.2579 -0.3174  0.5776
  435MOL    O1935607   1.921   2.159   0.886 -0.4252  0.1262  0.3161
  435MOL    H2035608   1.956   1.984   0.981  0.8215  2.4862  1.6494
  435MOL    H2135609   1.801   2.042   1.002  1.5841 -0.6160  2.4766
  435MOL    C2235610   2.054   2.167   0.854 -0.5391  0.0888 -0.2681
  435MOL    O2335611   2.142   2.168   0.965  0.0517  0.1991 -0.0629
  435MOL    H2435612   2.064   2.264   0.805 -0.9179  1.7798  2.8930
  435MOL    H2535613   2.072   2.088   0.781  1.2035  0.1882  0.0319
  435MOL    C2635614   2.139   2.284   1.036  0.4773  0.1311 -0.8737
  435MOL    O2735615   2.048   2.277   1.143  0.3747  0.4882  0.1459
  435MOL    H2835616   2.120   2.378   0.986 -0.2914  0.9540  0.9189
  435MOL    H2935617   2.237   2.295   1.082  0.2719 -2.4201  0.2550
  435MOL    C3035618   2.061   2.165   1.224 -0.3315  0.2607 -0.0725
  435MOL    O3135619   1.976   2.174   1.336  0.2845 -0.1319  0.0274
  435MOL    H3235620   2.164   2.149   1.256 -0.2646  2.0899  0.7315
  435MOL    H3335621   2.030   2.071   1.180 -0.7779  1.2911 -2.0115
  435MOL    C3435622   2.011   2.073   1.435  0.0558  0.0186 -0.3308
  435MOL    O3535623   2.136   2.103   1.497  0.6551 -0.5408 -0.1291
  435MOL    H3635624   2.027   1.977   1.386 -0.1865  1.4775 -3.3846
  435MOL    H3735625   1.928   2.071   1.506  0.3700  0.1022  0.0389
  435MOL    C3835626   2.137   2.222   1.572  0.7872  0.1431 -0.0605
  435MOL    O3935627   2.052   2.218   1.678  0.2796 -0.3790  0.8324
  435MOL    H4035628   2.116   2.305   1.505 -0.3439 -0.6278 -0.6827
  435MOL    H4135629   2.236   2.240   1.614  0.2607 -0.0341  1.2841
  435MOL    C4235630   2.078   2.113   1.767 -0.7366 -0.2259  0.1168
  435MOL    O4335631   1.982   2.124   1.870  0.3358 -0.2015  0.8355
  435MOL    H4435632   2.177   2.115   1.813 -0.8745  2.0599  0.3828
  435MOL    H4535633   2.063   2.018   1.716 -0.4212 -0.6918  0.8788
  435MOL    C4635634   1.981   2.246   1.926 -0.3448  0.2283 -0.1302
  435MOL    O4735635   2.108   2.279   1.976  0.3779  0.0937 -0.1108
  435MOL    H4835636   1.918   2.249   2.014 -1.1778  1.1985 -0.7523
  435MOL    H4935637   1.927   2.316   1.862 -1.5853 -1.1900 -0.6691
  435MOL    C5035638   2.123   2.410   2.017  0.2397  0.1617  0.4613
  435MOL    O5135639   2.043   2.437   2.124 -0.4861  0.0459  0.2960
  435MOL    H5235640   2.100   2.481   1.937  1.6684 -2.0802 -2.0235
  435MOL    H5335641   2.227   2.414   2.048 -0.0909 -0.8471  1.7485
  435MOL    C5435642   2.071   2.361   2.239  0.5643 -0.3731 -0.4312
  435MOL    O5535643   2.194   2.411   2.290 -0.2380  0.6358 -0.1582
  435MOL    H5635644   2.075   2.253   2.221 -2.1794 -1.0127  2.3611
  435MOL    H5735645   1.996   2.364   2.318  0.7093 -0.6802 -0.2806
  435MOL    C5835646   2.177   2.528   2.363  0.0364 -0.5303 -0.5162
  435MOL    O5935647   2.295   2.609   2.343 -0.6647  0.0222 -0.0200
  435MOL    H6035648   2.167   2.502   2.469 -0.8269 -0.2922 -0.5344
  435MOL    H6135649   2.084   2.580   2.342  0.2539 -0.2791 -0.8561
  435MOL    C6235650   2.281   2.679   2.227 -0.0939  0.6270  0.3998
  435MOL    O6335651   2.189   2.786   2.249 -0.1931  0.1690 -0.4043
  435MOL    H6435652   2.248   2.611   2.148  3.1678 -0.2383 -0.3220
  435MOL    H6535653   2.381   2.716   2.205 -1.0019  2.9878  0.1133
  435MOL    C6635654   2.160   2.862   2.137  0.4698  0.0898  0.2189
  435MOL    O6735655   2.120   2.786   2.034  0.3325  0.5091 -0.7896
  435MOL    H6835656   2.248   2.918   2.108  1.0529 -0.4837  0.8534
  435MOL    H6935657   2.101   2.947   2.171  2.5592  1.3966  0.6633
  435MOL    C7035658   1.985   2.768   2.043  0.7395 -0.5839 -0.0490
  435MOL    O7135659   1.933   2.685   1.953  0.4845  0.3804 -0.0892
  435MOL    H7235660   1.938   2.866   2.046 -0.2437 -0.9901 -1.9834
  435MOL    H7335661   1.970   2.720   2.140 -0.1453  0.0820  0.1399
  435MOL    C7435662   1.799   2.642   1.981 -0.3936 -0.6186  0.8222
  435MOL    O7535663   1.705   2.739   1.968  0.0349 -0.1001  0.0519
  435MOL    H7635664   1.783   2.620   2.087 -0.0022 -0.3646  0.9366
  435MOL    H7735665   1.778   2.553   1.922 -0.7285 -0.6636  1.0046
  435MOL    C7835666   1.650   2.747   1.842 -0.2801 -0.4833  0.6521
  435MOL    O7935667   1.556   2.845   1.834  0.6006 -0.5801 -0.1605
  435MOL    H8035668   1.607   2.656   1.800 -0.2599  0.1119 -0.6770
  435MOL    H8135669   1.731   2.780   1.777  0.4216 -1.3837  1.0474
  435MOL    H8235670   1.598   2.922   1.868 -0.2240  0.4613 -1.5052
  436MOL     C135671   6.585   5.789   5.558  0.1575  0.0394 -0.5357
  436MOL     O235672   6.567   5.687   5.653 -0.1770  0.4585  0.0399
  436MOL     H335673   6.494   5.842   5.528  0.4079  1.2541  0.8014
  436MOL     H435674   6.634   5.874   5.607 -1.1379  1.0339 -0.9168
  436MOL     H535675   6.637   5.750   5.471  0.8505 -2.2841  0.8906
  436MOL     C635676   6.513   5.573   5.596  0.0997 -0.2980 -1.1387
  436MOL     O735677   6.381   5.593   5.538 -0.1986  0.2871 -0.4649
  436MOL     H835678   6.504   5.499   5.676 -1.4143 -0.1837 -1.1978
  436MOL     H935679   6.587   5.548   5.520 -0.7357 -0.1690 -1.9885
  436MOL    C1035680   6.321   5.481   5.505  0.2053 -0.6188  0.3036
  436MOL    O1135681   6.405   5.402   5.418 -0.2577 -0.6684 -0.1141
  436MOL    H1235682   6.232   5.516   5.454  0.6858 -1.0088 -0.8173
  436MOL    H1335683   6.297   5.419   5.591  1.4136  0.4569  1.4394
  436MOL    C1435684   6.423   5.462   5.293 -0.2256 -0.2738  0.2316
  436MOL    O1535685   6.557   5.464   5.269  0.0044  0.3959 -0.5334
  436MOL    H1635686   6.395   5.567   5.287 -1.5506 -0.8218 -4.1771
  436MOL    H1735687   6.372   5.409   5.213 -1.4868 -0.0066  0.8444
  436MOL    C1835688   6.583   5.460   5.135 -0.6262  0.1616  0.1529
  436MOL    O1935689   6.548   5.578   5.067  0.7121 -0.6782 -0.1147
  436MOL    H2035690   6.552   5.369   5.084  2.8320  0.1866 -2.1898
  436MOL    H2135691   6.689   5.437   5.120 -0.5607 -1.2567  2.5366
  436MOL    C2235692   6.637   5.684   5.074  0.5868  0.2934 -0.0103
  436MOL    O2335693   6.748   5.661   4.996 -0.1834 -0.0410 -0.2735
  436MOL    H2435694   6.656   5.701   5.180 -0.7442  0.2653  0.2490
  436MOL    H2535695   6.580   5.769   5.036 -0.2391 -0.7356 -1.1027
  436MOL    C2635696   6.725   5.685   4.862 -0.3079 -0.2338  0.1506
  436MOL    O2735697   6.723   5.822   4.834  0.1720  0.1865 -0.0534
  436MOL    H2835698   6.623   5.664   4.830 -0.6079  0.6421  0.5153
  436MOL    H2935699   6.796   5.628   4.803  0.1309 -1.0640  1.4501
  436MOL    C3035700   6.817   5.861   4.736 -0.4533  0.3408 -0.0902
  436MOL    O3135701   6.949   5.824   4.766 -0.4944 -0.0393  0.6724
  436MOL    H3235702   6.811   5.966   4.711  1.1166  0.2092 -1.0652
  436MOL    H3335703   6.791   5.806   4.645  1.1838 -0.5437 -0.0489
  436MOL    C3435704   7.003   5.898   4.882 -0.1366  0.4498  0.4246
  436MOL    O3535705   6.975   6.033   4.876 -0.2109  0.1866  0.1625
  436MOL    H3635706   7.111   5.887   4.881 -0.3669 -1.9957 -0.9295
  436MOL    H3735707   6.946   5.861   4.968 -0.1433 -0.5636 -0.0085
  436MOL    C3835708   6.994   6.095   5.004 -0.1502  0.2209 -0.1844
  436MOL    O3935709   6.897   6.054   5.089 -0.5103 -0.4729  0.5245
  436MOL    H4035710   7.003   6.203   4.998 -1.4134  0.3902  0.7505
  436MOL    H4135711   7.083   6.045   5.043  0.8043  1.0246 -1.2854
  436MOL    C4235712   6.770   6.106   5.066 -0.1748  0.3115 -0.8214
  436MOL    O4335713   6.752   6.224   5.131 -0.5501  0.3357  0.8953
  436MOL    H4435714   6.704   6.030   5.109 -0.2546  0.7148 -0.2225
  436MOL    H4535715   6.745   6.109   4.960  1.8234  3.3253 -1.2600
  436MOL    C4635716   6.745   6.205   5.269 -0.3590 -0.3120  0.2235
  436MOL    O4735717   6.629   6.150   5.314 -0.3703 -0.5614 -0.3229
  436MOL    H4835718   6.734   6.307   5.306 -1.2032 -0.0216 -0.7940
  436MOL    H4935719   6.827   6.148   5.312 -1.6703  0.0230  3.2568
  436MOL    C5035720   6.519   6.227   5.282  0.4137 -0.4543  0.2552
  436MOL    O5135721   6.516   6.346   5.347 -0.7385 -0.1214  0.0873
  436MOL    H5235722   6.429   6.169   5.301 -0.1255 -0.1884 -1.3962
  436MOL    H5335723   6.512   6.252   5.176 -2.2970 -1.1351  0.2306
  436MOL    C5435724   6.454   6.344   5.471 -0.1592  0.4205  0.0421
  436MOL    O5535725   6.317   6.354   5.469 -0.0270  0.1825  0.0194
  436MOL    H5635726   6.494   6.429   5.526  0.8561  0.2690 -0.4492
  436MOL    H5735727   6.468   6.246   5.518 -3.3627 -0.4530 -0.6654
  436MOL    C5835728   6.276   6.483   5.421  0.4354 -0.2467  0.3638
  436MOL    O5935729   6.297   6.579   5.523  0.0355  0.1430  0.1720
  436MOL    H6035730   6.175   6.480   5.381  1.0145  0.8364 -1.2241
  436MOL    H6135731   6.340   6.503   5.335  0.0316 -2.1511 -0.4045
  436MOL    C6235732   6.214   6.557   5.624  0.6851  0.0444  0.3843
  436MOL    O6335733   6.089   6.610   5.597 -0.1103  0.6183 -0.9673
  436MOL    H6435734   6.256   6.606   5.712  1.2454 -2.6229  1.6674
  436MOL    H6535735   6.190   6.453   5.646  1.1063 -0.1833 -0.2291
  436MOL    C6635736   6.072   6.747   5.615  0.1606 -0.0806  0.6607
  436MOL    O6735737   6.047   6.773   5.756 -0.1368  0.6049 -0.4252
  436MOL    H6835738   6.000   6.801   5.554  0.6180  1.0774  1.1114
  436MOL    H6935739   6.169   6.787   5.584  0.3297 -0.9944  0.0258
  436MOL    C7035740   5.943   6.692   5.810 -0.4899  0.3456  0.3033
  436MOL    O7135741   5.900   6.756   5.923  0.1426  0.5711 -0.1162
  436MOL    H7235742   5.973   6.590   5.835 -0.2432  0.3138 -0.1095
  436MOL    H7335743   5.864   6.697   5.735  2.4096 -1.0403 -3.0246
  436MOL    C7435744   5.966   6.725   6.039  1.1010 -0.1050 -0.3174
  436MOL    O7535745   5.859   6.714   6.131 -0.2405  0.6274  0.2394
  436MOL    H7635746   6.026   6.815   6.055  1.7391 -0.8583  1.7093
  436MOL    H7735747   6.031   6.638   6.045 -0.2021 -1.0111  0.8494
  436MOL    C7835748   5.807   6.583   6.134 -0.1807  0.3971 -0.0730
  436MOL    O7935749   5.688   6.568   6.207  0.1643 -0.4098 -0.3835
  436MOL    H8035750   5.872   6.527   6.201  0.0992  0.5353 -0.2287
  436MOL    H8135751   5.796   6.535   6.037  1.5792  2.0327 -1.1217
  436MOL    H8235752   5.624   6.627   6.171 -0.4945 -1.3233 -0.6967
  437MOL     C135753   7.605   7.286   2.260 -0.4414  0.2445 -0.1829
  437MOL     O235754   7.713   7.379   2.274 -0.1661 -0.0032 -0.2522
  437MOL     H335755   7.581   7.230   2.350 -0.4850  0.0540 -0.3124
  437MOL     H435756   7.510   7.323   2.223 -2.5180 -1.8691  2.8626
  437MOL     H535757   7.645   7.219   2.184  0.5892 -0.0665  0.6224
  437MOL     C635758   7.699   7.462   2.384  0.3710  0.1233 -0.4932
  437MOL     O735759   7.584   7.538   2.382 -1.0796 -0.1221  0.4641
  437MOL     H835760   0.002   7.515   2.423 -0.4067  1.0290  0.0362
  437MOL     H935761   7.695   7.387   2.464 -0.6034  0.6985  0.0072
  437MOL    C1035762   7.571   7.625   2.271  0.5019 -0.2339  0.0753
  437MOL    O1135763   7.469   7.718   2.280  0.7115 -0.7703 -0.4041
  437MOL    H1235764   7.553   7.563   2.182 -1.9640  0.7452 -0.1512
  437MOL    H1335765   7.668   7.670   2.253  0.0204  1.2386  1.1183
  437MOL    C1435766   7.499   0.031   2.373  0.4659 -0.3805 -0.2212
  437MOL    O1535767   7.591   0.116   2.311  0.8045 -0.2493 -0.0362
  437MOL    H1635768   7.542   7.770   2.462 -2.3378 -0.6174  1.0532
  437MOL    H1735769   7.409   0.083   2.405  0.9124 -0.2773  0.8813
  437MOL    C1835770   7.524   0.222   2.247  0.8633  0.8924 -0.9029
  437MOL    O1935771   7.473   0.312   2.340  0.3488  0.0355 -0.0422
  437MOL    H2035772   7.444   0.181   2.185  0.6435 -0.2994  0.1512
  437MOL    H2135773   7.591   0.261   2.170 -1.2118  1.4729 -2.4534
  437MOL    C2235774   7.574   0.384   2.411  0.1322 -0.7890  0.1575
  437MOL    O2335775   7.662   0.449   2.330 -0.1011 -0.5837  0.2810
  437MOL    H2435776   7.617   0.306   2.474 -0.2095 -1.2144 -0.1286
  437MOL    H2535777   7.529   0.459   2.476 -2.6694 -2.2756  0.0133
  437MOL    C2635778   0.006   0.468   2.381 -0.3531  0.3759  0.3659
  437MOL    O2735779   0.005   0.511   2.511 -0.1128 -0.1149 -0.1332
  437MOL    H2835780   0.044   0.540   2.308  0.4878 -1.2254 -0.8066
  437MOL    H2935781   0.058   0.372   2.380 -0.5731  0.2402 -2.4517
  437MOL    C3035782   7.752   0.645   2.524 -0.6640 -0.6624  0.2678
  437MOL    O3135783   7.763   0.683   2.665 -0.0600  0.1428  0.1147
  437MOL    H3235784   7.662   0.679   2.473 -0.1456  0.0584 -0.1642
  437MOL    H3335785   0.045   0.705   2.476 -0.4807 -0.9632  0.1849
  437MOL    C3435786   7.640   0.696   2.730 -0.0608 -0.3774  0.3011
  437MOL    O3535787   7.594   0.570   2.762  0.3159 -0.3085 -0.0542
  437MOL    H3635788   7.572   0.747   2.662 -1.5548 -0.3348  1.8156
  437MOL    H3735789   7.660   0.757   2.818 -1.4184  0.3587  0.1046
  437MOL    C3835790   7.647   0.525   2.883  0.1060  0.5562  0.0119
  437MOL    O3935791   7.578   0.567   3.001  0.2872 -0.2953 -0.0186
  437MOL    H4035792   7.754   0.542   2.892  0.1698 -0.2518  0.8759
  437MOL    H4135793   7.631   0.418   2.871  1.6159  0.5549 -2.0798
  437MOL    C4235794   7.631   0.523   3.121 -0.3367 -0.3243  0.1790
  437MOL    O4335795   7.616   0.383   3.130  0.0214  0.6851 -0.7798
  437MOL    H4435796   7.595   0.580   3.207  2.9870  1.1420  0.6747
  437MOL    H4535797   7.738   0.544   3.117 -0.0709 -1.7760 -0.7839
  437MOL    C4635798   7.493   0.343   3.172 -0.4094  0.1728 -0.3341
  437MOL    O4735799   7.491   0.200   3.166  0.3529  0.2119  0.3116
  437MOL    H4835800   7.411   0.394   3.121 -1.0739 -1.2949 -0.7428
  437MOL    H4935801   7.479   0.376   3.275 -1.8971  1.5261 -0.9261
  437MOL    C5035802   7.475   0.151   3.037  0.2763  0.0566  0.5276
  437MOL    O5135803   7.461   0.008   3.036  0.2562  0.0258  0.5923
  437MOL    H5235804   7.558   0.168   2.968 -0.2678 -0.7805 -0.3497
  437MOL    H5335805   7.392   0.188   2.976 -0.1608 -3.1712 -0.9740
  437MOL    C5435806   7.335   7.752   3.084 -0.4075  0.5707 -0.6635
  437MOL    O5535807   7.252   7.756   2.973  0.1507  0.1853  0.3483
  437MOL    H5635808   7.308   0.032   3.169  1.1926  0.6878 -0.2182
  437MOL    H5735809   7.341   7.652   3.127 -0.8838 -0.4636 -2.9268
  437MOL    C5835810   7.120   7.723   3.006  0.7677 -0.1114  0.2142
  437MOL    O5935811   7.065   0.051   3.067 -0.2852 -0.1465 -0.5213
  437MOL    H6035812   7.104   7.628   3.057 -1.6243 -0.0551 -0.3757
  437MOL    H6135813   7.067   7.715   2.911  2.0825  2.7720 -0.8246
  437MOL    C6235814   7.016   0.150   2.992  0.3023 -0.8722 -0.0264
  437MOL    O6335815   7.016   0.268   3.071  0.2880 -0.2192 -0.2557
  437MOL    H6435816   6.917   0.134   2.949  0.6290 -0.5749 -0.8964
  437MOL    H6535817   7.085   0.168   2.909 -0.8224  0.0447 -0.7861
  437MOL    C6635818   6.901   0.285   3.147 -0.5995 -0.0872  0.1012
  437MOL    O6735819   6.797   0.337   3.074  0.0322 -0.2543 -0.2089
  437MOL    H6835820   6.932   0.340   3.236  0.2772 -0.2029 -0.1324
  437MOL    H6935821   6.866   0.187   3.179  1.3404 -0.9794 -0.4837
  437MOL    C7035822   6.823   0.473   3.039 -0.1086  0.6935 -0.6224
  437MOL    O7135823   6.772   0.561   3.138  0.5961 -0.1454  0.1683
  437MOL    H7235824   6.777   0.486   2.941  1.5888  0.9431 -1.4091
  437MOL    H7335825   6.929   0.495   3.027  0.6132 -2.3675 -0.3955
  437MOL    C7435826   6.636   0.574   3.140  0.4242 -0.1254 -0.2692
  437MOL    O7535827   6.571   0.628   3.024 -0.4435  0.1277  0.0206
  437MOL    H7635828   6.596   0.629   3.225 -0.4342  1.8938 -1.9682
  437MOL    H7735829   6.597   0.472   3.145 -0.2968  0.1754  0.3692
  437MOL    C7835830   6.438   0.590   3.004  0.1452  0.7851 -0.6598
  437MOL    O7935831   6.376   0.664   2.902  0.2710 -0.2864 -0.3315
  437MOL    H8035832   6.396   0.623   3.098 -0.1452 -2.0430  0.2471
  437MOL    H8135833   6.434   0.482   2.990 -1.3741  0.8944 -1.1885
  437MOL    H8235834   6.387   0.757   2.911 -0.7494  0.2678 -3.8094
  438MOL     C135835   5.155   2.987   6.845 -0.0149  1.4195  0.5328
  438MOL     O235836   5.179   3.089   6.940 -0.7078  0.4083 -0.2708
  438MOL     H335837   5.237   2.991   6.772 -0.7388 -1.5689 -0.5232
  438MOL     H435838   5.176   2.891   6.893 -1.0700 -0.2214 -2.1135
  438MOL     H535839   5.064   2.994   6.786  0.4427  1.0223 -0.2417
  438MOL     C635840   5.315   3.090   6.985  0.5172 -0.1291 -0.0026
  438MOL     O735841   5.395   3.184   6.918  0.1074  0.1875 -0.0660
  438MOL     H835842   5.352   2.993   6.954 -1.3092 -0.9678  0.3770
  438MOL     H935843   5.327   3.097   7.093 -0.3010 -0.9637  0.1539
  438MOL    C1035844   5.371   3.309   6.987  0.6316  0.2826  0.9493
  438MOL    O1135845   5.444   3.335   7.100 -0.4542 -0.3143 -0.2277
  438MOL    H1235846   5.266   3.321   7.013  0.1890  0.4887 -0.8895
  438MOL    H1335847   5.388   3.391   6.917  0.4720  0.2027  0.8177
  438MOL    C1435848   5.575   3.345   7.067  0.3622 -0.7693 -0.4496
  438MOL    O1535849   5.587   3.478   7.025 -0.1882 -0.2678  0.7106
  438MOL    H1635850   5.614   3.277   6.992  0.3849  0.0692 -1.2017
  438MOL    H1735851   5.629   3.332   7.161 -0.5711 -1.2194  0.0347
  438MOL    C1835852   5.600   3.572   7.127  0.5158 -0.2635 -0.7811
  438MOL    O1935853   5.723   3.556   7.198 -0.1597 -0.1757 -0.1046
  438MOL    H2035854   5.523   3.554   7.202  1.2821 -2.9080 -0.5768
  438MOL    H2135855   5.592   3.678   7.102 -1.9948 -0.0671  0.6983
  438MOL    C2235856   5.829   3.618   7.134  0.4005 -0.6157  0.0437
  438MOL    O2335857   5.838   3.759   7.149 -0.8182 -0.3809 -0.3723
  438MOL    H2435858   5.830   3.604   7.026 -0.5712 -2.0208  0.2083
  438MOL    H2535859   5.922   3.573   7.169  1.1401 -1.9721 -3.4754
  438MOL    C2635860   5.891   3.786   7.277  0.6266  0.2548 -0.7414
  438MOL    O2735861   6.021   3.745   7.293  0.0407  0.7588 -0.1932
  438MOL    H2835862   5.831   3.735   7.353 -1.1124 -1.1775 -3.0209
  438MOL    H2935863   5.889   3.890   7.311 -1.4855  0.0037  0.0356
  438MOL    C3035864   6.108   3.777   7.186 -0.0886 -0.2111  0.4028
  438MOL    O3135865   6.154   3.907   7.185  0.2540 -0.1899 -0.4770
  438MOL    H3235866   6.055   3.770   7.091  0.6438 -0.8569  0.0429
  438MOL    H3335867   6.180   3.696   7.182  1.2353  0.9978 -1.1917
  438MOL    C3435868   6.265   3.917   7.267  0.2896 -0.3931 -1.0848
  438MOL    O3535869   6.378   3.861   7.206 -0.2493  0.0676  0.3782
  438MOL    H3635870   6.247   3.858   7.357 -0.2062  1.4093  0.0211
  438MOL    H3735871   6.288   4.021   7.289  0.0618 -0.6533  0.3901
  438MOL    C3835872   6.451   3.951   7.120 -0.4847 -0.1340 -0.0865
  438MOL    O3935873   6.502   4.064   7.192  0.1149  0.2223  0.2140
  438MOL    H4035874   6.379   3.985   7.046 -0.9617  0.1337  0.5042
  438MOL    H4135875   6.530   3.901   7.063 -1.5424 -1.2491 -0.6059
  438MOL    C4235876   6.604   4.035   7.270  0.5028  0.0064  0.2483
  438MOL    O4335877   6.723   4.032   7.194 -0.2655 -0.3703 -0.0538
  438MOL    H4435878   6.584   3.941   7.321 -1.2482  0.6603  0.7896
  438MOL    H4535879   6.621   4.111   7.346 -0.7922  2.2708 -1.6422
  438MOL    C4635880   6.835   3.997   7.271  0.1681  0.7931 -0.0370
  438MOL    O4735881   6.827   3.872   7.329 -0.1723 -0.1508  0.5379
  438MOL    H4835882   6.836   4.062   7.358 -2.4288  0.1875  0.5031
  438MOL    H4935883   6.927   4.023   7.219 -1.1850  3.8180 -1.0310
  438MOL    C5035884   6.879   3.771   7.245 -0.3296  0.3957  0.1981
  438MOL    O5135885   6.790   3.720   7.155 -0.0378 -0.2605 -0.3211
  438MOL    H5235886   6.902   3.694   7.318 -0.0476  1.1337  0.9028
  438MOL    H5335887   6.969   3.804   7.194 -0.8223  1.0633 -0.2519
  438MOL    C5435888   6.677   3.670   7.222 -0.4350  0.0506 -0.1509
  438MOL    O5535889   6.706   3.558   7.302  0.3265  0.1539 -0.2123
  438MOL    H5635890   6.604   3.650   7.143 -0.1487  0.2997 -0.4840
  438MOL    H5735891   6.639   3.747   7.289  2.2660 -0.9174  2.6204
  438MOL    C5835892   6.720   3.440   7.234 -0.1853 -0.4513  0.2280
  438MOL    O5935893   6.770   3.332   7.305 -0.6682  0.5682 -0.3450
  438MOL    H6035894   6.796   3.445   7.155 -0.5565 -1.2158 -0.1929
  438MOL    H6135895   6.627   3.414   7.182 -0.0573  0.1796 -0.3227
  438MOL    C6235896   6.682   3.267   7.391 -0.5618  0.2702  0.6419
  438MOL    O6335897   6.758   3.175   7.459  1.0119  0.2440 -0.2354
  438MOL    H6435898   6.606   3.229   7.323  0.3953 -1.6296  0.6018
  438MOL    H6535899   6.630   3.336   7.458 -2.2654  0.7128 -1.0804
  438MOL    C6635900   6.784   3.061   7.391 -0.2098 -0.1605 -0.4917
  438MOL    O6735901   6.692   2.966   7.411  0.5452  0.0943 -0.2263
  438MOL    H6835902   6.882   3.035   7.431  0.3099 -1.0050 -2.2406
  438MOL    H6935903   6.790   3.079   7.283  0.9260  1.2202 -0.2133
  438MOL    C7035904   6.732   2.846   7.343  0.4794  0.1594 -0.1336
  438MOL    O7135905   6.852   2.800   7.409  0.3585  0.6548  0.2450
  438MOL    H7235906   6.748   2.857   7.236  0.5282 -3.3196 -0.5399
  438MOL    H7335907   6.659   2.766   7.352  1.7909 -1.0787 -0.3487
  438MOL    C7435908   6.824   2.767   7.541 -0.2027  0.1580  0.6521
  438MOL    O7535909   6.751   2.656   7.551  0.0387 -0.6634  0.0456
  438MOL    H7635910   6.774   2.849   7.592  0.6109  2.5455 -2.2301
  438MOL    H7735911   6.917   2.770   7.599  0.7174 -1.9395 -0.6452
  438MOL    C7835912   6.821   2.548   7.515  0.5985  0.1968 -0.7961
  438MOL    O7935913   6.743   2.450   7.476 -0.0829 -0.7145 -0.2798
  438MOL    H8035914   6.887   2.519   7.597 -1.2032  1.0620  1.0060
  438MOL    H8135915   6.888   2.572   7.432  3.6434  0.2313  1.6166
  438MOL    H8235916   6.688   2.433   7.551  0.5106  2.0456  0.8381
  439MOL     C135917   3.651   0.758   6.415 -0.4853 -0.3217 -0.3530
  439MOL     O235918   3.705   0.882   6.372 -0.1896  0.1128  0.2840
  439MOL     H335919   3.731   0.704   6.465  1.6288  4.2628  1.5424
  439MOL     H435920   3.571   0.784   6.484  1.0187  0.0250  1.3087
  439MOL     H535921   3.612   0.704   6.330 -0.0013  1.3847 -1.6887
  439MOL     C635922   3.639   0.949   6.273 -0.2171 -0.0428 -0.4477
  439MOL     O735923   3.518   1.007   6.330 -0.2249  0.5519  0.1729
  439MOL     H835924   3.621   0.888   6.185  0.3181 -1.1947  0.2337
  439MOL     H935925   3.701   1.036   6.250  2.1711 -1.3856  0.7624
  439MOL    C1035926   3.432   1.064   6.238  0.9658  0.3271  0.1680
  439MOL    O1135927   3.322   0.978   6.210 -0.2187  0.0146 -0.3207
  439MOL    H1235928   3.479   1.095   6.144 -0.7974  0.3534 -0.7288
  439MOL    H1335929   3.391   1.152   6.286 -2.8161 -2.2093  1.8386
  439MOL    C1435930   3.230   1.029   6.121 -0.5613  0.4459  0.0363
  439MOL    O1535931   3.123   0.948   6.090  0.0243  0.6802  0.2472
  439MOL    H1635932   3.291   1.047   6.033 -1.8166  0.0730 -0.9238
  439MOL    H1735933   3.190   1.115   6.175 -2.3410 -1.1174  1.2738
  439MOL    C1835934   3.046   0.921   6.207  0.3527 -0.1439  0.1264
  439MOL    O1935935   2.949   1.021   6.232 -0.2260 -0.4729  0.3790
  439MOL    H2035936   3.110   0.913   6.296  1.3192 -2.4858 -0.7572
  439MOL    H2135937   2.995   0.827   6.192  2.4470 -1.3732  0.4268
  439MOL    C2235938   2.868   1.031   6.117 -0.4413 -0.1596 -0.7245
  439MOL    O2335939   2.758   1.111   6.143  0.6068  0.3141  0.4569
  439MOL    H2435940   2.830   0.939   6.072 -3.1775  2.0533 -3.1089
  439MOL    H2535941   2.922   1.086   6.040 -2.8688  1.6092 -1.2207
  439MOL    C2635942   2.639   1.040   6.151 -0.3860  0.1411  0.6960
  439MOL    O2735943   2.584   0.981   6.032  0.2724  0.1509  0.4622
  439MOL    H2835944   2.572   1.116   6.191 -1.6426  0.4080 -1.7758
  439MOL    H2935945   2.649   0.959   6.222  0.0123 -1.5103 -1.2071
  439MOL    C3035946   2.535   1.081   5.936 -0.2757 -0.3503  0.1891
  439MOL    O3135947   2.632   1.169   5.893 -0.2937  0.0789 -0.0817
  439MOL    H3235948   2.463   1.150   5.982 -0.2274 -0.9975  1.2667
  439MOL    H3335949   2.479   1.029   5.858 -0.8034 -0.7516  0.8232
  439MOL    C3435950   2.705   1.123   5.791  0.1485  0.4583  0.5575
  439MOL    O3535951   2.638   1.114   5.670  0.0672 -0.6402 -0.3614
  439MOL    H3635952   2.730   1.022   5.824 -0.1729  0.1524 -0.1180
  439MOL    H3735953   2.797   1.178   5.777 -0.2105  0.6912 -0.9743
  439MOL    C3835954   2.641   1.231   5.598 -0.6011 -0.1901 -0.1929
  439MOL    O3935955   2.768   1.235   5.528  0.2604  0.7354  0.1794
  439MOL    H4035956   2.642   1.319   5.663  0.6787  0.4249 -1.0236
  439MOL    H4135957   2.553   1.251   5.537 -0.1593  2.4970 -0.0271
  439MOL    C4235958   2.762   1.158   5.410  0.1172 -0.1841  0.3822
  439MOL    O4335959   2.725   1.239   5.301 -0.2803 -0.1571 -0.0704
  439MOL    H4435960   2.692   1.074   5.410  1.3496 -1.2285 -0.0341
  439MOL    H4535961   2.858   1.111   5.391 -0.7059 -1.6971 -0.1312
  439MOL    C4635962   2.837   1.302   5.248  0.1898 -0.4330  0.2842
  439MOL    O4735963   2.907   1.213   5.170 -0.5647 -0.4610 -0.2768
  439MOL    H4835964   2.890   1.356   5.326 -0.4710  2.4145 -1.1513
  439MOL    H4935965   2.799   1.383   5.184  1.1666 -2.4562 -2.9855
  439MOL    C5035966   2.836   1.183   5.056  0.0810 -0.2173  0.2565
  439MOL    O5135967   2.841   1.283   4.960 -0.8648 -0.1592  0.3497
  439MOL    H5235968   2.735   1.151   5.082  0.6063 -2.0938  0.0922
  439MOL    H5335969   2.874   1.087   5.020 -0.5893 -1.7090  3.3481
  439MOL    C5435970   2.964   1.282   4.897  0.5739  0.5427 -0.2717
  439MOL    O5535971   2.973   1.170   4.817 -0.0654 -0.1345  0.6585
  439MOL    H5635972   3.043   1.276   4.972  0.9432  1.3115 -0.5919
  439MOL    H5735973   2.980   1.378   4.850 -0.5604  0.1127 -1.5674
  439MOL    C5835974   3.076   1.179   4.729  0.3190 -0.0693  0.4055
  439MOL    O5935975   3.193   1.187   4.798  0.6236  0.2604 -0.5435
  439MOL    H6035976   3.064   1.263   4.661  0.3415  0.2923  0.8457
  439MOL    H6135977   3.064   1.092   4.664 -0.3917 -0.3761  0.9341
  439MOL    C6235978   3.233   1.065   4.855  0.0802  0.4826 -1.0068
  439MOL    O6335979   3.269   0.975   4.757 -0.5161  0.1388  0.5485
  439MOL    H6435980   3.156   1.019   4.917  1.3504  0.1361  0.3351
  439MOL    H6535981   3.318   1.089   4.918  1.9508  2.2952 -4.0832
  439MOL    C6635982   3.393   0.995   4.698  0.2129 -0.3767  0.3431
  439MOL    O6735983   3.502   0.970   4.783  0.8157 -0.2144  0.0423
  439MOL    H6835984   3.396   1.098   4.661  0.2801 -0.9964 -1.3751
  439MOL    H6935985   3.397   0.927   4.614 -0.4307 -0.9599  0.7826
  439MOL    C7035986   3.513   0.840   4.829  0.4805  0.3934 -0.0047
  439MOL    O7135987   3.503   0.746   4.729  0.0421 -0.0712  0.5272
  439MOL    H7235988   3.428   0.818   4.892  0.2925  0.6138 -0.1815
  439MOL    H7335989   3.609   0.833   4.880 -0.5460 -2.0299  1.6698
  439MOL    C7435990   3.623   0.726   4.659 -0.3599  0.0742  0.7469
  439MOL    O7535991   3.604   0.636   4.562  0.1413 -0.6201 -0.2714
  439MOL    H7635992   3.704   0.700   4.727 -2.0990 -0.5111  2.6208
  439MOL    H7735993   3.646   0.814   4.598  1.0606 -0.1149  0.9932
  439MOL    C7835994   3.592   0.506   4.605 -0.3311  0.2035  0.5933
  439MOL    O7935995   3.553   0.424   4.503 -0.3782 -0.0002 -0.2811
  439MOL    H8035996   3.516   0.491   4.682  0.2430  0.8186  1.2873
  439MOL    H8135997   3.686   0.466   4.644 -0.5036  1.3388  2.2182
  439MOL    H8235998   3.467   0.457   4.479 -0.1981  0.8016  0.1470
  440MOL     C135999   7.018   3.711   1.287  0.1898 -0.2080 -0.1395
  440MOL     O236000   6.910   3.631   1.260  0.1973 -0.5721 -0.4971
  440MOL     H336001   7.008   3.769   1.378 -0.8094  0.6410 -0.7747
  440MOL     H436002   7.108   3.651   1.294 -0.6064 -1.4043 -0.0705
  440MOL     H536003   7.025   3.789   1.211 -1.9730  0.5049  0.3654
  440MOL     C636004   6.904   3.520   1.355 -0.3659 -0.1512  0.1666
  440MOL     O736005   6.870   3.555   1.485 -0.2100 -0.5637  0.1749
  440MOL     H836006   7.003   3.473   1.350  0.3628  1.1751  1.5641
  440MOL     H936007   6.845   3.434   1.323  2.2262 -1.1165 -2.2807
  440MOL    C1036008   6.737   3.599   1.488 -0.2298  0.1201 -0.0842
  440MOL    O1136009   6.655   3.488   1.461 -0.7958 -0.2838  0.2251
  440MOL    H1236010   6.718   3.670   1.408  2.4289  0.4624 -0.4703
  440MOL    H1336011   6.709   3.650   1.580  1.2463 -1.1566  1.1084
  440MOL    C1436012   6.623   3.405   1.569 -0.6007 -0.0103  0.1936
  440MOL    O1536013   6.551   3.473   1.666 -0.6818  0.5200 -0.1523
  440MOL    H1636014   6.721   3.377   1.607  0.0468  1.2438 -0.4853
  440MOL    H1736015   6.563   3.318   1.543  0.3116 -0.4821 -0.3899
  440MOL    C1836016   6.563   3.410   1.794  0.2603 -0.1257  0.4563
  440MOL    O1936017   6.501   3.291   1.789 -0.6843  0.1585  0.2935
  440MOL    H2036018   6.527   3.474   1.874  0.1025 -0.5413  0.7174
  440MOL    H2136019   6.667   3.395   1.824 -0.6727 -0.9693  3.4683
  440MOL    C2236020   6.368   3.306   1.829 -0.0203 -0.3798 -0.2615
  440MOL    O2336021   6.355   3.266   1.965 -0.1249  0.4199 -0.4430
  440MOL    H2436022   6.314   3.224   1.780 -0.7193 -0.3736  0.4955
  440MOL    H2536023   6.315   3.400   1.814 -0.4672 -0.1849  2.3572
  440MOL    C2636024   6.229   3.273   2.020 -0.1119 -0.1592  0.0132
  440MOL    O2736025   6.175   3.401   2.042 -0.0555 -0.0954 -0.0894
  440MOL    H2836026   6.230   3.217   2.113 -3.1123 -0.2187  0.0812
  440MOL    H2936027   6.158   3.219   1.956 -0.5298 -3.2667  2.9770
  440MOL    C3036028   6.250   3.476   2.142  0.0947 -0.4318  0.0167
  440MOL    O3136029   6.230   3.417   2.273 -0.4951  0.0902 -0.1444
  440MOL    H3236030   6.218   3.581   2.143 -1.2214 -0.8149 -1.0045
  440MOL    H3336031   6.356   3.477   2.116 -0.2885 -1.0121 -1.6351
  440MOL    C3436032   6.123   3.460   2.341  0.8112 -0.1623 -0.9691
  440MOL    O3536033   6.126   3.415   2.474  0.2656  0.0494 -0.0576
  440MOL    H3636034   6.031   3.424   2.294  0.5135  0.4563 -0.8692
  440MOL    H3736035   6.118   3.569   2.337  2.7074  0.0496  1.4157
  440MOL    C3836036   6.115   3.280   2.484 -0.0921 -0.2302 -0.0990
  440MOL    O3936037   6.105   3.242   2.613 -0.6776 -0.4357 -0.5213
  440MOL    H4036038   6.204   3.232   2.443 -1.7316 -1.9855 -1.7058
  440MOL    H4136039   6.031   3.234   2.432  0.9233 -1.9771 -0.2372
  440MOL    C4236040   6.228   3.253   2.687  0.5022 -0.2411 -0.2814
  440MOL    O4336041   6.317   3.140   2.657 -0.4664 -0.1353  0.3331
  440MOL    H4436042   6.199   3.278   2.789 -1.1007  2.0626 -1.2552
  440MOL    H4536043   6.289   3.338   2.657  1.1147  0.3503  2.4880
  440MOL    C4636044   6.254   3.022   2.696  0.0052  0.3813  0.0158
  440MOL    O4736045   6.342   2.917   2.667  0.4297 -0.0019 -0.2650
  440MOL    H4836046   6.163   3.007   2.637  0.3187 -1.0116 -0.1370
  440MOL    H4936047   6.223   3.024   2.800  1.5507  2.0363  0.4680
  440MOL    C5036048   6.425   2.887   2.771  0.3668  0.7462 -0.0549
  440MOL    O5136049   6.382   2.786   2.854 -0.4685  0.7356 -0.2696
  440MOL    H5236050   6.437   2.983   2.821 -1.6542  0.5312  0.8848
  440MOL    H5336051   6.521   2.856   2.728  0.4947  0.5617  0.3604
  440MOL    C5436052   6.371   2.660   2.790  0.1544  0.5191 -0.4061
  440MOL    O5536053   6.333   2.562   2.877  0.2699 -0.5074  0.5561
  440MOL    H5636054   6.468   2.640   2.746 -0.6098 -1.6938 -1.1304
  440MOL    H5736055   6.298   2.684   2.712 -0.3034 -0.7404 -0.3667
  440MOL    C5836056   6.231   2.488   2.823  0.3068  0.1775  0.1443
  440MOL    O5936057   6.279   2.404   2.723 -0.1105 -0.0657 -0.2147
  440MOL    H6036058   6.157   2.563   2.793  0.4303 -0.6123 -2.2018
  440MOL    H6136059   6.178   2.433   2.901 -1.0742 -0.0087 -0.9275
  440MOL    C6236060   6.383   2.316   2.767 -0.2479  0.0903 -0.1117
  440MOL    O6336061   6.429   2.235   2.661 -0.6542 -0.2392 -0.5453
  440MOL    H6436062   6.344   2.257   2.850 -2.4664 -0.0892 -1.2402
  440MOL    H6536063   6.466   2.376   2.805  0.8360 -1.3026 -0.2465
  440MOL    C6636064   6.335   2.145   2.623 -0.4742  0.1201 -0.4843
  440MOL    O6736065   6.377   2.064   2.515  0.2161 -0.5154  0.5520
  440MOL    H6836066   6.241   2.197   2.600 -0.4546  0.5294  0.3346
  440MOL    H6936067   6.322   2.070   2.701 -0.4951  0.4208 -0.1937
  440MOL    C7036068   6.374   2.136   2.392 -0.3732  0.0677 -1.1101
  440MOL    O7136069   6.245   2.135   2.332 -0.1785 -0.1048 -0.4783
  440MOL    H7236070   6.440   2.075   2.330  3.0734 -0.3309  2.7301
  440MOL    H7336071   6.419   2.235   2.401 -0.2635 -0.1434  0.8173
  440MOL    C7436072   6.221   2.009   2.276 -0.2240 -0.3219  0.1694
  440MOL    O7536073   6.089   1.999   2.235 -0.3833  0.1493 -0.3230
  440MOL    H7636074   6.230   1.940   2.360 -1.3100  0.4069  0.8841
  440MOL    H7736075   6.289   1.976   2.197 -0.7994  1.5488 -1.1397
  440MOL    C7836076   6.060   2.060   2.114  0.5095  0.9347 -0.1151
  440MOL    O7936077   5.932   2.039   2.068 -0.2741 -0.0413  0.2876
  440MOL    H8036078   6.119   2.012   2.036  0.7258 -0.6024  0.9702
  440MOL    H8136079   6.069   2.167   2.131 -0.3448  0.9183  0.4632
  440MOL    H8236080   5.873   2.054   2.141 -0.1207  0.0464  0.3924
  441MOL     C136081   3.215   1.515   6.048  0.6214 -0.5127  0.7196
  441MOL     O236082   3.312   1.493   5.945 -0.0425  0.0876  0.3660
  441MOL     H336083   3.131   1.449   6.026 -1.0529  2.0108 -0.7328
  441MOL     H436084   3.257   1.498   6.147  0.8022  2.2218  1.1546
  441MOL     H536085   3.192   1.621   6.043  0.9678 -0.4925 -0.5966
  441MOL     C636086   3.359   1.370   5.910  0.2989 -0.2411 -0.1289
  441MOL     O736087   3.438   1.309   6.010 -0.2302  0.1471 -0.1524
  441MOL     H836088   3.419   1.379   5.819 -0.7847 -2.8609 -1.1409
  441MOL     H936089   3.281   1.300   5.880  0.0392 -1.6964  3.6595
  441MOL    C1036090   3.561   1.367   6.032 -0.0399 -0.4778  0.4517
  441MOL    O1136091   3.626   1.301   6.138 -0.0726 -1.1486 -0.2810
  441MOL    H1236092   3.556   1.475   6.047  2.8342 -0.0938 -0.9378
  441MOL    H1336093   3.631   1.350   5.950 -0.9494  0.9627 -0.6498
  441MOL    C1436094   3.592   1.364   6.260  0.2647  0.3878  0.3257
  441MOL    O1536095   3.674   1.471   6.287 -0.4011 -0.1476  0.3992
  441MOL    H1636096   3.610   1.288   6.336 -0.8580  0.5986  0.8146
  441MOL    H1736097   3.486   1.390   6.264 -0.2710 -1.7873  0.5728
  441MOL    C1836098   3.653   1.517   6.418 -0.2749 -0.0138  0.9250
  441MOL    O1936099   3.527   1.578   6.442  0.0097 -0.0932  0.0137
  441MOL    H2036100   3.721   1.601   6.421 -3.2795  2.6141 -1.2945
  441MOL    H2136101   3.683   1.437   6.486 -0.5273 -0.9829 -0.0864
  441MOL    C2236102   3.524   1.707   6.392  0.5689  0.1429  0.5247
  441MOL    O2336103   3.596   1.795   6.476  0.5776 -0.5310  0.1657
  441MOL    H2436104   3.419   1.722   6.368  0.8902 -0.9673 -1.7544
  441MOL    H2536105   3.566   1.714   6.291  2.1249 -0.3023  1.1159
  441MOL    C2636106   3.524   1.911   6.498 -0.0780  0.5208 -0.3494
  441MOL    O2736107   3.523   1.999   6.386 -0.3223  0.4512 -0.1415
  441MOL    H2836108   3.570   1.965   6.580  2.5749 -1.8551 -0.1993
  441MOL    H2936109   3.422   1.894   6.533  0.0120 -1.2333 -0.8815
  441MOL    C3036110   3.654   2.032   6.350 -0.1113  0.4251 -0.1107
  441MOL    O3136111   3.654   2.157   6.300  0.5983 -0.1695  0.4526
  441MOL    H3236112   3.689   1.961   6.274  0.3483 -0.5023  0.9555
  441MOL    H3336113   3.728   2.041   6.429 -1.2465 -1.1483  1.1675
  441MOL    C3436114   3.603   2.169   6.166 -0.3085  0.1304  0.2284
  441MOL    O3536115   3.687   2.100   6.074  0.9467  0.6587 -0.0126
  441MOL    H3636116   3.617   2.274   6.142  0.1348  0.1769  0.6711
  441MOL    H3736117   3.499   2.141   6.150 -1.0417  3.5274 -1.2571
  441MOL    C3836118   3.804   2.170   6.035  0.1175 -0.0310 -0.4303
  441MOL    O3936119   3.772   2.262   5.931 -0.8321 -0.3093  0.4980
  441MOL    H4036120   3.882   2.105   5.996 -0.5706 -0.5666 -0.9226
  441MOL    H4136121   3.846   2.216   6.124  1.2981 -1.0462 -0.4609
  441MOL    C4236122   3.732   2.196   5.811  0.0091 -0.6584  0.6574
  441MOL    O4336123   3.594   2.205   5.806 -0.2574  0.1087 -0.7609
  441MOL    H4436124   3.754   2.089   5.813 -3.6770 -1.4964 -0.5269
  441MOL    H4536125   3.793   2.246   5.736  0.3655 -0.5130  1.0385
  441MOL    C4636126   3.541   2.323   5.765 -0.3184 -0.4734 -0.1533
  441MOL    O4736127   3.551   2.339   5.627  0.4465 -0.0098  0.8496
  441MOL    H4836128   3.596   2.399   5.820 -1.4670  1.0709 -1.1036
  441MOL    H4936129   3.435   2.334   5.789 -0.2664 -0.6005  0.1277
  441MOL    C5036130   3.518   2.466   5.581 -0.2042  0.1762  0.5779
  441MOL    O5136131   3.588   2.571   5.653 -0.5591  0.2352  0.5943
  441MOL    H5236132   3.411   2.484   5.597 -0.8563 -1.7828 -1.3640
  441MOL    H5336133   3.551   2.464   5.477 -1.2636 -1.1583  0.2564
  441MOL    C5436134   3.721   2.591   5.602 -0.3619 -0.0020 -0.1527
  441MOL    O5536135   3.796   2.472   5.635 -0.5801 -0.4372  0.2512
  441MOL    H5636136   3.753   2.677   5.661 -1.5613 -0.3013  0.9654
  441MOL    H5736137   3.722   2.603   5.494  2.7366  0.2760 -0.1391
  441MOL    C5836138   3.931   2.488   5.607  0.1557 -0.2334 -0.3744
  441MOL    O5936139   3.961   2.451   5.480 -0.1019  0.9344  0.2311
  441MOL    H6036140   3.987   2.424   5.676  0.7105  0.2385 -0.3832
  441MOL    H6136141   3.979   2.581   5.638  1.5235 -0.7160 -0.9758
  441MOL    C6236142   3.961   2.307   5.457  0.0264  0.2032  0.0418
  441MOL    O6336143   4.072   2.256   5.518 -0.5293  0.3545  0.2854
  441MOL    H6436144   3.963   2.286   5.350 -0.8316  0.9093 -0.1236
  441MOL    H6536145   3.872   2.270   5.506  0.3348 -0.2134  0.2872
  441MOL    C6636146   4.060   2.120   5.543 -0.1590  0.1722  0.8133
  441MOL    O6736147   4.010   2.096   5.673  0.4925  0.3105 -0.4199
  441MOL    H6836148   4.162   2.088   5.522 -1.0555 -0.1305 -3.5696
  441MOL    H6936149   3.995   2.060   5.480 -1.4222  0.3780  1.9006
  441MOL    C7036150   4.101   2.108   5.776 -0.8143  0.6191  0.3201
  441MOL    O7136151   4.163   1.978   5.798  0.0850 -0.0884 -0.1097
  441MOL    H7236152   4.045   2.142   5.863 -0.0338 -0.4106  1.2447
  441MOL    H7336153   4.178   2.178   5.745  0.8547 -1.1446  0.3869
  441MOL    C7436154   4.091   1.882   5.863  0.4893 -0.5998  0.3764
  441MOL    O7536155   4.042   1.923   5.989 -0.4542 -0.6273  0.4481
  441MOL    H7636156   4.158   1.796   5.871 -0.9042 -1.6653  0.7367
  441MOL    H7736157   4.001   1.860   5.806 -1.3426 -0.9051  3.2918
  441MOL    C7836158   4.143   1.927   6.075 -0.3702 -0.4030  0.5680
  441MOL    O7936159   4.109   1.995   6.197 -0.1766 -0.6831 -0.0547
  441MOL    H8036160   4.230   1.980   6.037 -0.8003  0.6424  0.9969
  441MOL    H8136161   4.162   1.824   6.104 -0.7678 -0.4343  0.7217
  441MOL    H8236162   4.115   1.926   6.261 -1.7116 -2.7391 -2.0506
  442MOL     C136163   5.010   4.862   0.021 -0.7498  1.0846  0.0216
  442MOL     O236164   5.138   4.817   0.071 -0.5462  0.1065 -0.0311
  442MOL     H336165   5.036   4.918   7.715  1.5992 -1.9786 -1.2793
  442MOL     H436166   4.956   4.771   7.782 -1.5884  0.5226  3.8443
  442MOL     H536167   4.948   4.919   0.090 -0.6271  1.6528 -0.3270
  442MOL     C636168   5.220   4.752   7.757 -0.0211  0.3903 -0.2267
  442MOL     O736169   5.341   4.699   0.029 -0.3427 -0.5137  0.0055
  442MOL     H836170   5.264   4.824   7.688  0.1864  0.1705 -0.3245
  442MOL     H936171   5.177   4.676   7.692  1.3464 -3.1466  2.8490
  442MOL    C1036172   5.337   4.575   0.089 -0.4803  0.2086 -0.3968
  442MOL    O1136173   5.297   4.474   0.002  0.4292 -0.1230 -0.2917
  442MOL    H1236174   5.253   4.583   0.158 -0.7356  0.9448 -0.7755
  442MOL    H1336175   5.423   4.546   0.149 -0.1531  0.6286 -0.6577
  442MOL    C1436176   5.393   4.442   7.698  0.8085  0.3907 -0.4794
  442MOL    O1536177   5.505   4.385   7.773  0.3199  0.0511  0.1529
  442MOL    H1636178   5.429   4.529   7.644 -0.0465  0.5303 -0.8293
  442MOL    H1736179   5.352   4.371   7.626  2.2863  1.0322 -1.9853
  442MOL    C1836180   5.466   4.268   0.057 -0.0474 -0.0779 -0.4705
  442MOL    O1936181   5.491   4.288   0.192  0.1580 -0.6253 -0.2494
  442MOL    H2036182   5.526   4.186   0.016  0.6788  0.6561 -0.8846
  442MOL    H2136183   5.360   4.249   0.041 -0.0733  1.2734 -1.9643
  442MOL    C2236184   5.454   4.180   0.266 -0.6930 -0.3184  0.0985
  442MOL    O2336185   5.315   4.174   0.295  0.3101 -0.4034 -0.0902
  442MOL    H2436186   5.508   4.171   0.360 -0.1093 -1.0258 -0.3002
  442MOL    H2536187   5.478   4.088   0.213 -0.7588  0.1512 -0.7432
  442MOL    C2636188   5.269   4.276   0.383  1.3899  0.7123 -0.9604
  442MOL    O2736189   5.132   4.271   0.394 -0.1749  0.3788 -0.1288
  442MOL    H2836190   5.303   4.374   0.348 -0.1639  1.3962 -0.6238
  442MOL    H2936191   5.316   4.274   0.482  2.9399  0.0642 -1.7039
  442MOL    C3036192   5.077   4.326   0.284 -0.6111  0.1634  0.7685
  442MOL    O3136193   5.065   4.456   0.319  0.2985 -0.0417  0.3055
  442MOL    H3236194   4.978   4.283   0.267 -0.8309 -0.0586  2.4564
  442MOL    H3336195   5.132   4.312   0.192 -1.6053  1.0298  0.0273
  442MOL    C3436196   4.999   4.539   0.229  0.1984 -0.6625 -0.4317
  442MOL    O3536197   4.861   4.512   0.233  0.3111 -0.0667 -0.0168
  442MOL    H3636198   5.033   4.509   0.130 -0.0255 -1.6914 -0.2003
  442MOL    H3736199   5.023   4.644   0.251 -1.0336 -0.8870  2.1258
  442MOL    C3836200   4.800   4.585   0.330 -0.4430 -0.5443 -0.2020
  442MOL    O3936201   4.671   4.530   0.349 -0.1766 -0.1722 -0.1938
  442MOL    H4036202   4.793   4.692   0.314  0.8606 -0.5469 -0.8346
  442MOL    H4136203   4.856   4.572   0.422 -0.9838 -1.3904  0.0196
  442MOL    C4236204   4.589   4.564   0.239 -0.4034  0.5675 -0.0631
  442MOL    O4336205   4.563   4.695   0.213 -0.0550  0.4233 -0.3945
  442MOL    H4436206   4.494   4.513   0.257  0.5620 -1.5143 -0.6079
  442MOL    H4536207   4.621   4.504   0.153 -1.8988 -0.3275 -0.0256
  442MOL    C4636208   4.511   4.726   0.088 -0.4991 -0.6667  0.0705
  442MOL    O4736209   4.380   4.687   0.074  0.0450 -0.0504  0.0088
  442MOL    H4836210   4.572   4.682   0.010  1.9819 -0.1425  1.6379
  442MOL    H4936211   4.523   4.835   0.086  2.5670 -0.9006  1.7995
  442MOL    C5036212   4.293   4.745   0.155 -0.5303 -0.6081  0.9155
  442MOL    O5136213   4.166   4.699   0.132  0.3143 -0.5776  0.0550
  442MOL    H5236214   4.290   4.853   0.137 -0.2775 -0.6407  0.6609
  442MOL    H5336215   4.331   4.741   0.257  0.2156  0.6733  0.6967
  442MOL    C5436216   4.123   4.606   0.227 -0.7494 -0.8533 -0.3133
  442MOL    O5536217   4.075   4.679   0.327 -0.3363  0.2520  0.2599
  442MOL    H5636218   4.211   4.550   0.259 -0.5447 -0.4943 -0.2573
  442MOL    H5736219   4.048   4.540   0.182 -0.6416 -2.2280  1.4252
  442MOL    C5836220   3.941   4.711   0.318 -0.3435 -0.6270 -0.0690
  442MOL    O5936221   3.859   4.595   0.352  0.8088  0.0030  0.2322
  442MOL    H6036222   3.921   4.753   0.220 -2.5750 -0.2611  0.5255
  442MOL    H6136223   3.927   4.789   0.392 -1.7363  1.2369 -2.2563
  442MOL    C6236224   3.864   4.547   0.478 -0.1302 -0.7717 -0.3200
  442MOL    O6336225   3.826   4.639   0.579 -0.0945 -0.2894  0.4286
  442MOL    H6436226   3.969   4.525   0.499 -0.0600  0.6254  0.8614
  442MOL    H6536227   3.796   4.462   0.483 -1.1187  0.0302 -0.0930
  442MOL    C6636228   3.687   4.675   0.564 -0.8656  0.1824 -0.2102
  442MOL    O6736229   3.662   4.801   0.510  0.0452 -0.6374 -0.2231
  442MOL    H6836230   3.639   4.670   0.662  1.4090 -0.1536  0.9467
  442MOL    H6936231   3.629   4.611   0.498  0.5628 -1.0490 -0.3079
  442MOL    C7036232   3.729   4.897   0.583 -0.0244  0.0582  0.1559
  442MOL    O7136233   3.646   4.937   0.688 -0.4440 -0.1024  0.3727
  442MOL    H7236234   3.745   4.979   0.513  0.2239 -0.0811  0.0484
  442MOL    H7336235   3.829   4.877   0.621  0.1739  0.1272 -0.3239
  442MOL    C7436236   3.563   5.043   0.654  0.0571  0.5426  0.1745
  442MOL    O7536237   3.516   5.097   0.772 -0.0688 -0.8019  0.2376
  442MOL    H7636238   3.487   5.003   0.586 -1.4902  2.3416  0.8066
  442MOL    H7736239   3.612   5.129   0.609  0.7504  0.2209  0.3192
  442MOL    C7836240   3.425   5.018   0.837  0.5763 -0.3064  0.1184
  442MOL    O7936241   3.301   5.026   0.770  0.1741  0.0285 -0.0813
  442MOL    H8036242   3.406   5.044   0.941 -0.2207  0.9647 -0.3284
  442MOL    H8136243   3.444   4.911   0.829  2.4429 -0.2145  2.8334
  442MOL    H8236244   3.259   5.101   0.808  1.8900  0.2581  1.4584
  443MOL     C136245   6.729   2.693   2.113  0.2184  0.2104  0.4882
  443MOL     O236246   6.765   2.710   1.978 -0.1033  0.3253  0.2968
  443MOL     H336247   6.641   2.634   2.136 -1.8769  1.8535 -2.9110
  443MOL     H436248   6.816   2.651   2.163 -0.2243 -1.4089 -0.0602
  443MOL     H536249   6.704   2.790   2.155  0.4700 -0.1012  1.3800
  443MOL     C636250   6.671   2.783   1.902  0.3599  0.3493  0.2444
  443MOL     O736251   6.639   2.898   1.966 -0.2267  0.1478 -0.0994
  443MOL     H836252   6.588   2.714   1.887  2.0908 -1.9774  1.0218
  443MOL     H936253   6.725   2.801   1.809 -0.1241 -2.0102 -0.5291
  443MOL    C1036254   6.551   2.969   1.886  0.8680 -0.4406 -0.1304
  443MOL    O1136255   6.424   2.904   1.889 -0.4840  0.5897  0.0819
  443MOL    H1236256   6.580   2.983   1.782 -1.9182 -0.0494 -0.8981
  443MOL    H1336257   6.551   3.072   1.922  2.0636  0.3156 -2.1786
  443MOL    C1436258   6.352   2.932   2.004  0.6512  0.0680  0.2076
  443MOL    O1536259   6.219   2.937   1.971  0.3833  0.2542  0.0506
  443MOL    H1636260   6.387   3.028   2.043  1.9841  1.2103 -3.5141
  443MOL    H1736261   6.381   2.861   2.081 -1.7080  1.6289  2.5786
  443MOL    C1836262   6.166   2.803   1.962  0.0241  0.0844 -0.4185
  443MOL    O1936263   6.139   2.755   2.089 -0.5421  0.6425 -0.3071
  443MOL    H2036264   6.244   2.739   1.920  0.7915  2.6537 -3.0607
  443MOL    H2136265   6.081   2.792   1.894 -0.6014  0.1499  0.3460
  443MOL    C2236266   6.009   2.765   2.134  0.3663 -0.0243 -0.6346
  443MOL    O2336267   5.920   2.687   2.050 -0.6081 -0.1467  0.2711
  443MOL    H2436268   5.985   2.870   2.148  1.1739  0.2984 -1.6252
  443MOL    H2536269   6.015   2.720   2.233 -1.5272  0.6796 -0.1709
  443MOL    C2636270   5.936   2.549   2.059  0.8634  0.3716  0.3697
  443MOL    O2736271   5.821   2.489   2.005  0.4262 -0.0161 -0.3045
  443MOL    H2836272   5.946   2.525   2.165 -1.1727 -0.4924  0.3888
  443MOL    H2936273   6.033   2.519   2.021  0.5689 -1.4399  0.9917
  443MOL    C3036274   5.854   2.454   1.873  0.9592  0.6854  0.3048
  443MOL    O3136275   5.947   2.348   1.863  0.3121  0.6949  0.1920
  443MOL    H3236276   5.887   2.545   1.822  1.2421  0.3009 -0.2051
  443MOL    H3336277   5.761   2.427   1.823 -0.1652  0.1550  2.6180
  443MOL    C3436278   5.961   2.303   1.731  0.8939 -0.1526 -0.4720
  443MOL    O3536279   6.011   2.406   1.652  0.5503 -0.1611 -0.1803
  443MOL    H3636280   5.868   2.276   1.682  0.6059  1.9465 -1.1195
  443MOL    H3736281   6.032   2.220   1.734  1.5455  0.4208  0.3342
  443MOL    C3836282   6.141   2.456   1.694  0.0602 -0.2915 -0.0441
  443MOL    O3936283   6.183   2.556   1.606 -0.0150  0.4385  0.1596
  443MOL    H4036284   6.215   2.376   1.695  0.4835  0.0556 -1.7826
  443MOL    H4136285   6.137   2.509   1.789 -1.2382 -0.6128  0.0962
  443MOL    C4236286   6.092   2.660   1.591 -0.2688 -0.2243  0.0951
  443MOL    O4336287   6.134   2.753   1.678  0.1356  0.1759 -0.3094
  443MOL    H4436288   5.987   2.634   1.602 -0.3598 -0.3275 -0.9592
  443MOL    H4536289   6.110   2.698   1.490 -0.3881 -2.9600 -0.9825
  443MOL    C4636290   6.238   2.837   1.625  0.0309 -0.7191 -0.1505
  443MOL    O4736291   6.198   2.906   1.508  0.4143  0.1167 -0.2977
  443MOL    H4836292   6.317   2.769   1.594  2.0152  1.3503  0.2145
  443MOL    H4936293   6.273   2.910   1.699  1.4154 -2.2589  0.7481
  443MOL    C5036294   6.109   3.008   1.539  0.3882  0.3118 -0.4059
  443MOL    O5136295   6.168   3.137   1.540  0.2167  0.4176 -0.1313
  443MOL    H5236296   6.057   2.999   1.634 -1.3976 -0.2256 -1.4243
  443MOL    H5336297   6.041   3.001   1.454  0.9930  1.2207 -0.9808
  443MOL    C5436298   6.075   3.238   1.575 -1.0198  0.2632  0.3618
  443MOL    O5536299   5.972   3.250   1.478 -0.9229 -0.5544 -0.0913
  443MOL    H5636300   6.136   3.329   1.572  0.6595 -0.8766 -0.9784
  443MOL    H5736301   6.029   3.226   1.673  0.4784 -0.6364  0.9645
  443MOL    C5836302   6.012   3.300   1.351 -0.5211  0.0456  0.1941
  443MOL    O5936303   5.949   3.234   1.245  0.2446  0.2566 -0.0761
  443MOL    H6036304   6.119   3.284   1.344 -0.6431 -1.8099  1.9653
  443MOL    H6136305   6.006   3.408   1.341  0.7482  0.1643  0.6583
  443MOL    C6236306   5.807   3.266   1.235  0.6246  0.5509 -0.1270
  443MOL    O6336307   5.745   3.198   1.128  0.5250  0.4568  0.1564
  443MOL    H6436308   5.788   3.372   1.217 -2.6039 -0.0718 -0.7132
  443MOL    H6536309   5.767   3.232   1.330  1.4250 -0.9185 -0.3112
  443MOL    C6636310   5.798   3.239   1.004  0.3150 -0.2078  0.6559
  443MOL    O6736311   5.758   3.368   0.965  0.1684  0.0528  0.5599
  443MOL    H6836312   5.767   3.177   0.920 -0.4884 -0.7977  1.3808
  443MOL    H6936313   5.907   3.231   1.004  0.2744 -1.9693 -2.3473
  443MOL    C7036314   5.632   3.369   0.911  0.3081 -0.5610 -0.0590
  443MOL    O7136315   5.631   3.305   0.781 -0.0903  0.2314 -0.2721
  443MOL    H7236316   5.603   3.474   0.907  0.8750 -0.4531 -1.7471
  443MOL    H7336317   5.560   3.322   0.978 -0.1304  0.7749  0.4295
  443MOL    C7436318   5.716   3.368   0.693  0.6780 -0.0632 -0.1174
  443MOL    O7536319   5.705   3.301   0.567 -0.1121  0.0737 -0.1499
  443MOL    H7636320   5.813   3.403   0.727  0.5496 -0.5011  0.6989
  443MOL    H7736321   5.658   3.456   0.666 -0.7181 -0.4302  1.5826
  443MOL    C7836322   5.809   3.214   0.540 -0.1782 -0.2110  0.1592
  443MOL    O7936323   5.783   3.152   0.416 -0.2883  0.4243 -0.1585
  443MOL    H8036324   5.818   3.127   0.605 -0.1021 -1.1536 -1.0903
  443MOL    H8136325   5.904   3.267   0.536 -0.5250  0.5701  1.9329
  443MOL    H8236326   5.707   3.099   0.434 -0.0828  0.0596 -0.3650
  444MOL     C136327   1.419   4.585   0.109  0.6156 -1.1898 -0.0210
  444MOL     O236328   1.317   4.682   0.069 -0.2505  0.2142 -0.0435
  444MOL     H336329   1.371   4.487   0.105 -0.1072 -1.0452  3.1613
  444MOL     H436330   1.506   4.594   0.044 -0.3886  1.0685 -1.1036
  444MOL     H536331   1.452   4.601   0.212  0.0271  2.3645 -0.3255
  444MOL     C636332   1.361   4.806   0.029  0.1179 -0.1411 -0.1660
  444MOL     O736333   1.258   4.897   0.012  0.1376 -0.0390 -0.3153
  444MOL     H836334   1.403   4.775   7.716  0.8840 -2.6773  0.9393
  444MOL     H936335   1.437   4.852   0.092 -0.3016  0.0025  0.2363
  444MOL    C1036336   1.208   4.940   0.131 -0.1262 -0.2140 -0.6996
  444MOL    O1136337   1.301   5.023   0.202  0.1587 -0.5922 -0.1096
  444MOL    H1236338   1.179   4.855   0.193  1.1706 -1.2552 -1.5134
  444MOL    H1336339   1.114   4.993   0.114 -1.5212 -2.5568 -0.4328
  444MOL    C1436340   1.259   5.066   0.321  0.0243 -0.0603 -0.0362
  444MOL    O1536341   1.166   5.165   0.306  0.2933  0.0329  0.6919
  444MOL    H1636342   1.350   5.104   0.368 -0.1444 -0.8010  0.9004
  444MOL    H1736343   1.231   4.990   0.394  1.1601  0.6127  1.1384
  444MOL    C1836344   1.222   5.290   0.263 -0.0852 -0.1666  0.4126
  444MOL    O1936345   1.304   5.346   0.357  0.1762  0.2396 -0.1255
  444MOL    H2036346   1.144   5.358   0.228  0.1361 -0.8705 -1.5263
  444MOL    H2136347   1.283   5.282   0.173 -0.7649 -0.4878 -0.0203
  444MOL    C2236348   1.231   5.382   0.476  0.1292  0.4684 -0.5432
  444MOL    O2336349   1.149   5.489   0.462 -0.3036 -0.1046  0.1323
  444MOL    H2436350   1.302   5.391   0.558  0.2957  1.7501 -0.8153
  444MOL    H2536351   1.169   5.300   0.512  0.0905 -0.3142 -2.3210
  444MOL    C2636352   1.215   5.612   0.446 -0.2417  0.4836 -0.6256
  444MOL    O2736353   1.267   5.657   0.566 -0.0730 -0.0324  0.2417
  444MOL    H2836354   1.133   5.681   0.424  0.6995  1.3832 -1.3640
  444MOL    H2936355   1.289   5.602   0.367  1.2782  0.0367  0.8430
  444MOL    C3036356   1.356   5.765   0.548  0.2878  0.4257  0.2621
  444MOL    O3136357   1.304   5.861   0.466 -0.1894 -0.7252 -0.5407
  444MOL    H3236358   1.451   5.729   0.508 -0.8603 -2.1648 -0.2390
  444MOL    H3336359   1.368   5.802   0.650 -0.4814 -1.1078  0.9286
  444MOL    C3436360   1.226   5.948   0.541 -0.5990 -0.5855  0.9841
  444MOL    O3536361   1.295   6.020   0.637 -0.3589 -0.5903  0.1387
  444MOL    H3636362   1.149   5.883   0.581 -2.0955  1.4382  1.4293
  444MOL    H3736363   1.178   6.012   0.467  1.7889  1.4210  1.1134
  444MOL    C3836364   1.388   6.113   0.587 -0.2892 -0.0475 -0.0833
  444MOL    O3936365   1.337   6.203   0.488 -0.3634 -0.2635 -0.8087
  444MOL    H4036366   1.472   6.057   0.546 -0.6938 -1.1757  0.6335
  444MOL    H4136367   1.435   6.158   0.675  2.4312 -0.1123 -1.4373
  444MOL    C4236368   1.260   6.298   0.551  0.2220 -0.3238  0.1332
  444MOL    O4336369   1.217   6.388   0.454 -0.9143  0.7215  0.2248
  444MOL    H4436370   1.314   6.345   0.634  0.0879  0.8178 -0.4241
  444MOL    H4536371   1.171   6.245   0.584  0.8010 -0.5837  1.3140
  444MOL    C4636372   1.133   6.340   0.355  0.8480  0.2384 -0.7396
  444MOL    O4736373   0.996   6.329   0.391 -0.0402 -0.5525 -0.3105
  444MOL    H4836374   1.171   6.249   0.308 -0.2736 -0.3194 -0.5747
  444MOL    H4936375   1.134   6.403   0.266  0.6235  0.0752 -0.8582
  444MOL    C5036376   0.940   6.199   0.392 -0.1533 -0.2979  0.1089
  444MOL    O5136377   0.954   6.121   0.280 -0.3974 -0.4248  0.1869
  444MOL    H5236378   0.834   6.189   0.414  0.3796 -3.1258  1.7213
  444MOL    H5336379   0.991   6.138   0.466  0.6318  0.5078  0.2386
  444MOL    C5436380   0.877   6.174   0.176  0.0575 -0.2952  0.5021
  444MOL    O5536381   0.746   6.157   0.203  0.0357 -0.0742  0.3421
  444MOL    H5636382   0.902   6.113   0.089  0.3374 -0.3311  0.6065
  444MOL    H5736383   0.901   6.280   0.163 -0.5595 -0.3288 -0.9894
  444MOL    C5836384   0.660   6.203   0.105  0.5474 -0.3856 -0.1132
  444MOL    O5936385   0.665   6.339   0.095  0.2695 -0.0943  0.2254
  444MOL    H6036386   0.560   6.165   0.126 -0.4834  1.9319 -0.5832
  444MOL    H6136387   0.695   6.173   0.006  2.8073 -0.7155  0.7499
  444MOL    C6236388   0.563   6.401   0.163  0.2339 -0.4559  0.0067
  444MOL    O6336389   0.441   6.370   0.115 -0.3670 -0.0373  0.8835
  444MOL    H6436390   0.578   6.509   0.160  0.9721 -0.5726 -0.7168
  444MOL    H6536391   0.570   6.368   0.267  1.1572  0.0381  0.1067
  444MOL    C6636392   0.407   6.442   0.001 -0.2089  0.2642  0.0841
  444MOL    O6736393   0.486   6.396   7.678 -0.1579  0.0257 -0.2953
  444MOL    H6836394   0.417   6.550   0.014 -0.9781  0.4400 -0.7124
  444MOL    H6936395   0.300   6.424   7.771  0.0036 -0.2260 -0.9600
  444MOL    C7036396   0.428   6.288   7.605  0.1401 -0.3358 -0.0250
  444MOL    O7136397   0.503   6.272   7.487 -0.0681  0.3013 -0.2380
  444MOL    H7236398   0.334   6.326   7.565  0.4046 -0.3342 -0.6537
  444MOL    H7336399   0.417   6.197   7.665  1.4583 -0.6662 -0.2508
  444MOL    C7436400   0.627   6.212   7.508  0.3866 -0.5072  0.2861
  444MOL    O7536401   0.617   6.078   7.546 -0.3329  0.0955 -0.1105
  444MOL    H7636402   0.686   6.273   7.576  2.0438 -0.5425 -1.0590
  444MOL    H7736403   0.691   6.204   7.420  0.1995 -1.2475  0.2142
  444MOL    C7836404   0.560   6.001   7.441 -0.6741 -0.7027  0.4224
  444MOL    O7936405   0.484   5.898   7.498  0.6076 -0.1222  0.3731
  444MOL    H8036406   0.639   5.955   7.382 -0.9278 -0.4739 -0.0985
  444MOL    H8136407   0.485   6.054   7.383 -0.0395 -0.2081  0.0504
  444MOL    H8236408   0.443   5.847   7.430 -2.0650  0.4549  1.5048
  445MOL     C136409   1.403   3.620   5.686  0.3861 -0.6349  0.2682
  445MOL     O236410   1.526   3.579   5.733  0.7003 -0.1051 -0.6620
  445MOL     H336411   1.407   3.705   5.618 -1.6300  0.5448  1.5619
  445MOL     H436412   1.345   3.548   5.629  2.3292 -0.3044 -2.2067
  445MOL     H536413   1.349   3.647   5.777  2.3661 -0.6233  1.4686
  445MOL     C636414   1.585   3.489   5.641 -0.5511 -0.0504  0.7479
  445MOL     O736415   1.519   3.364   5.638  0.0477 -0.1465  0.5485
  445MOL     H836416   1.692   3.483   5.659  0.3332  0.4268 -3.7901
  445MOL     H936417   1.577   3.534   5.542  0.4829 -3.4281 -0.9380
  445MOL    C1036418   1.540   3.283   5.745  0.4222 -0.6362 -0.1469
  445MOL    O1136419   1.671   3.215   5.741 -0.4627  0.2004 -0.3357
  445MOL    H1236420   1.467   3.202   5.744  0.2080 -0.4347 -1.9055
  445MOL    H1336421   1.537   3.340   5.837  2.7583  1.5105 -1.3452
  445MOL    C1436422   1.682   3.132   5.635  0.3420 -0.1582  0.3194
  445MOL    O1536423   1.799   3.053   5.641  0.0971 -0.4982 -0.1253
  445MOL    H1636424   1.682   3.197   5.547  0.0924  1.4988  1.5097
  445MOL    H1736425   1.596   3.066   5.629 -0.2342  0.4729  1.4601
  445MOL    C1836426   1.921   3.120   5.612  0.1628 -0.0456  0.4595
  445MOL    O1936427   1.931   3.158   5.477  0.0978  0.2250  0.2182
  445MOL    H2036428   2.008   3.059   5.636  0.6633  0.3543 -0.2825
  445MOL    H2136429   1.918   3.209   5.675  2.0175 -0.4255  1.1192
  445MOL    C2236430   1.910   3.055   5.386  0.0063  0.4118 -0.4985
  445MOL    O2336431   1.926   3.097   5.252  0.3618 -0.1468 -0.4006
  445MOL    H2436432   1.806   3.027   5.398 -0.2415  1.5207  0.0194
  445MOL    H2536433   1.981   2.975   5.409 -0.8953  0.3051  2.0371
  445MOL    C2636434   2.043   3.166   5.216  0.1437 -0.0915 -0.2074
  445MOL    O2736435   2.149   3.081   5.205  0.0396 -0.1611  0.7248
  445MOL    H2836436   2.062   3.237   5.296  0.0373 -2.4930  2.0337
  445MOL    H2936437   2.018   3.224   5.128  0.7399  2.3353  1.1834
  445MOL    C3036438   2.145   3.009   5.085  0.8515  0.6342 -0.0869
  445MOL    O3136439   2.251   2.921   5.076  0.3187  0.1258 -0.4918
  445MOL    H3236440   2.152   3.074   4.998 -0.8367  0.1847 -0.5718
  445MOL    H3336441   2.050   2.960   5.065  0.5108  1.8922 -1.5814
  445MOL    C3436442   2.375   2.988   5.095  0.1819  0.0426 -0.0667
  445MOL    O3536443   2.414   3.051   4.975 -1.0596 -0.0023 -0.3594
  445MOL    H3636444   2.445   2.914   5.134 -0.0009  0.3676  0.8806
  445MOL    H3736445   2.377   3.058   5.178 -1.4862  1.4151 -1.1584
  445MOL    C3836446   2.450   2.954   4.874  0.1966 -0.9533 -0.2509
  445MOL    O3936447   2.581   2.967   4.841  0.5563 -0.6045  0.8285
  445MOL    H4036448   2.380   2.974   4.793  0.5806 -1.2094 -0.6512
  445MOL    H4136449   2.436   2.853   4.912  1.1851 -0.6069  1.0741
  445MOL    C4236450   2.594   3.091   4.776 -0.9013 -0.2338 -0.0590
  445MOL    O4336451   2.725   3.117   4.737 -0.3097  0.3165 -0.4841
  445MOL    H4436452   2.558   3.180   4.827 -1.8988  0.3756 -1.8139
  445MOL    H4536453   2.535   3.081   4.685 -0.5193  0.6366 -0.4019
  445MOL    C4636454   2.805   3.133   4.840 -0.3175 -0.7926 -0.4903
  445MOL    O4736455   2.776   3.254   4.908 -0.1174  0.1086  0.4172
  445MOL    H4836456   2.903   3.137   4.791 -0.6542  2.3648 -0.9595
  445MOL    H4936457   2.808   3.054   4.915  0.9261  1.0472  1.4436
  445MOL    C5036458   2.840   3.359   4.853  0.1438 -0.1979 -0.1074
  445MOL    O5136459   2.963   3.374   4.916 -0.0210  0.0357  0.1319
  445MOL    H5236460   2.783   3.451   4.870 -0.0010 -0.0792 -1.2213
  445MOL    H5336461   2.854   3.350   4.745  0.6401 -0.4620 -0.0232
  445MOL    C5436462   2.961   3.412   5.047 -0.5749 -0.3414 -0.3145
  445MOL    O5536463   3.082   3.400   5.110  0.2523 -0.4717 -0.1239
  445MOL    H5636464   2.889   3.347   5.097  1.6564 -1.8178  1.0838
  445MOL    H5736465   2.937   3.518   5.058 -1.7041 -0.8248  2.3721
  445MOL    C5836466   3.108   3.274   5.155  0.0234 -0.0367  0.7261
  445MOL    O5936467   3.039   3.246   5.272  0.4567  0.0168 -0.1475
  445MOL    H6036468   3.212   3.242   5.161 -0.1315 -0.6483  0.1756
  445MOL    H6136469   3.082   3.206   5.074  0.7921  0.8488 -0.2804
  445MOL    C6236470   3.107   3.291   5.381 -0.4404  0.5191 -0.1405
  445MOL    O6336471   3.220   3.214   5.404 -0.4249 -0.3008 -0.4292
  445MOL    H6436472   3.043   3.302   5.468 -1.7576  1.5996 -1.2174
  445MOL    H6536473   3.134   3.396   5.372 -0.4849  0.9499  3.7857
  445MOL    C6636474   3.195   3.093   5.474 -0.0212  0.5981  0.3249
  445MOL    O6736475   3.168   3.106   5.609 -0.3968 -0.3359  0.0856
  445MOL    H6836476   3.292   3.044   5.481  0.7529  2.3237  2.1082
  445MOL    H6936477   3.114   3.038   5.426 -0.1456  1.9824 -1.1015
  445MOL    C7036478   3.262   3.178   5.681 -0.0855  0.8444 -0.6398
  445MOL    O7136479   3.360   3.082   5.731 -0.3467 -0.5419 -0.3597
  445MOL    H7236480   3.210   3.238   5.755  0.0943  2.0316 -1.4668
  445MOL    H7336481   3.327   3.236   5.616 -0.6139  1.5712 -0.5186
  445MOL    C7436482   3.452   3.148   5.808 -0.7833  0.0756  0.5589
  445MOL    O7536483   3.399   3.218   5.908 -0.4970  0.0611  0.3490
  445MOL    H7636484   3.506   3.212   5.738  0.5241 -3.2771 -1.6698
  445MOL    H7736485   3.518   3.069   5.844 -1.0143 -0.7932 -0.8671
  445MOL    C7836486   3.340   3.137   6.007 -0.4616  0.6469  0.6235
  445MOL    O7936487   3.286   3.213   6.105 -0.0672 -0.0522  0.1347
  445MOL    H8036488   3.412   3.070   6.053 -1.2277 -0.8544 -0.3193
  445MOL    H8136489   3.263   3.069   5.969  0.3120  1.6551 -2.9916
  445MOL    H8236490   3.197   3.188   6.125 -0.3052  1.0494  0.4697
  446MOL     C136491   3.872   0.138   3.070  0.2343  0.3318 -0.0193
  446MOL     O236492   4.006   0.139   3.118  0.0595 -0.1020 -0.5234
  446MOL     H336493   3.842   0.033   3.062  0.2150  0.2069  1.4777
  446MOL     H436494   3.804   0.168   3.150  0.1070 -0.9337  0.3729
  446MOL     H536495   3.862   0.187   2.973 -0.1829  1.4120  0.5617
  446MOL     C636496   4.064   0.265   3.129 -0.0415 -0.8136 -0.1663
  446MOL     O736497   4.088   0.319   3.005 -0.0726 -0.2711 -0.2558
  446MOL     H836498   4.154   0.251   3.188  0.5971 -1.3650 -1.2485
  446MOL     H936499   3.991   0.324   3.185 -1.3088 -1.7368 -0.8111
  446MOL    C1036500   4.213   0.284   2.952  0.3934  0.8406  0.5537
  446MOL    O1136501   4.316   0.348   3.022  0.1246 -0.0830  0.0998
  446MOL    H1236502   4.212   0.306   2.845 -1.7630  0.7629  0.5365
  446MOL    H1336503   4.219   0.176   2.968  1.1488  1.0789  1.9640
  446MOL    C1436504   4.316   0.490   3.001  0.5256 -0.0476 -0.1489
  446MOL    O1536505   4.429   0.552   3.055  0.3765  0.8340  0.5064
  446MOL    H1636506   4.234   0.533   3.057 -1.2921 -0.7181 -2.2383
  446MOL    H1736507   4.297   0.506   2.895  1.2222 -1.6018 -0.5347
  446MOL    C1836508   4.546   0.498   3.011 -0.0265  0.0998 -0.4334
  446MOL    O1936509   4.565   0.530   2.874  0.4939 -0.2203 -0.2596
  446MOL    H2036510   4.539   0.389   3.012 -2.8956  0.2391  0.5416
  446MOL    H2136511   4.629   0.547   3.062 -1.5125  2.1701  0.0814
  446MOL    C2236512   4.592   0.671   2.858  0.0580 -0.4567  0.3517
  446MOL    O2336513   4.729   0.688   2.865  0.1127  0.0426 -0.0078
  446MOL    H2436514   4.548   0.736   2.934  1.3668  0.1132  0.6499
  446MOL    H2536515   4.575   0.707   2.757 -3.2218  0.1691  1.0867
  446MOL    C2636516   4.803   0.611   2.771 -0.8070 -0.5700 -0.0751
  446MOL    O2736517   4.834   0.693   2.662 -0.2421  0.2804 -0.0639
  446MOL    H2836518   4.748   0.529   2.723  0.7348 -1.0900 -1.0080
  446MOL    H2936519   4.898   0.582   2.815 -0.8087  0.8942  0.8989
  446MOL    C3036520   4.945   0.775   2.686 -0.1087  0.2280 -0.2053
  446MOL    O3136521   4.993   0.842   2.575 -0.3125  0.3504  0.0180
  446MOL    H3236522   5.031   0.728   2.733 -1.0427 -1.1196  0.1745
  446MOL    H3336523   4.916   0.855   2.754  0.8534  1.2305 -0.9503
  446MOL    C3436524   5.043   0.747   2.480  0.1073 -0.4483  0.3221
  446MOL    O3536525   5.163   0.676   2.521  0.1334  0.0407  0.6781
  446MOL    H3636526   5.060   0.804   2.388  0.8939  0.9644  1.3271
  446MOL    H3736527   4.962   0.681   2.449 -0.8895  1.6756 -1.7168
  446MOL    C3836528   5.277   0.722   2.461 -0.4605  0.4031 -0.0709
  446MOL    O3936529   5.294   0.673   2.328  0.1698 -0.1757 -0.1877
  446MOL    H4036530   5.369   0.693   2.513 -0.4874  2.4884  1.1807
  446MOL    H4136531   5.285   0.830   2.457 -0.1271  0.5139  2.6268
  446MOL    C4236532   5.324   0.533   2.321  0.7502 -0.1636  0.1213
  446MOL    O4336533   5.459   0.497   2.371  0.4520 -0.3820 -0.1460
  446MOL    H4436534   5.318   0.507   2.216 -1.3412 -1.9146  0.6508
  446MOL    H4536535   5.259   0.469   2.381  0.4387  0.8256  0.8547
  446MOL    C4636536   5.561   0.575   2.319  0.5456  0.0937  0.3414
  446MOL    O4736537   5.683   0.526   2.376  0.1176  0.4466 -0.3033
  446MOL    H4836538   5.550   0.682   2.338  0.9377  0.3973 -1.0598
  446MOL    H4936539   5.563   0.563   2.210  1.4700 -0.2655  0.4005
  446MOL    C5036540   5.695   0.545   2.512  0.4273 -0.4780 -0.0247
  446MOL    O5136541   5.728   0.680   2.538  0.1048 -0.0480 -0.1032
  446MOL    H5236542   5.771   0.480   2.555  0.7074  0.7720  1.4158
  446MOL    H5336543   5.603   0.527   2.568  0.2030 -0.3532 -0.3555
  446MOL    C5436544   5.848   0.725   2.490 -0.2483  0.4221 -0.0786
  446MOL    O5536545   5.959   0.679   2.566  0.1797  0.1915  0.5253
  446MOL    H5636546   5.846   0.834   2.493  0.6877  0.4222  1.2711
  446MOL    H5736547   5.868   0.698   2.386 -1.2390  0.3211 -0.2482
  446MOL    C5836548   5.960   0.722   2.701 -0.5911 -0.9581  0.3738
  446MOL    O5936549   5.938   0.858   2.721 -0.3501 -0.1842 -0.3780
  446MOL    H6036550   6.053   0.708   2.755 -1.1002 -2.3470  0.9200
  446MOL    H6136551   5.876   0.672   2.750 -1.6812  0.5414  0.0718
  446MOL    C6236552   5.938   0.899   2.852  0.4347  0.5419  0.5227
  446MOL    O6336553   5.814   0.890   2.916  0.5186 -0.6349 -0.2628
  446MOL    H6436554   5.953   1.006   2.838  1.5340  0.1455 -1.4839
  446MOL    H6536555   6.018   0.850   2.908  0.4496 -2.5977 -2.0858
  446MOL    C6636556   5.717   0.958   2.852  0.4914  0.2258  0.4355
  446MOL    O6736557   5.608   0.971   2.935  0.0846  0.0973  0.2370
  446MOL    H6836558   5.679   0.915   2.760  0.2961  0.9165  0.1919
  446MOL    H6936559   5.751   1.060   2.832  0.7674  0.1604  0.5667
  446MOL    C7036560   5.508   1.059   2.889 -0.3002 -1.1300  0.3089
  446MOL    O7136561   5.470   1.036   2.754  0.2008 -0.3778  0.3409
  446MOL    H7236562   5.545   1.162   2.891  0.4764 -1.3939 -0.2992
  446MOL    H7336563   5.427   1.047   2.961 -0.8470  1.5443  0.1969
  446MOL    C7436564   5.361   0.959   2.739 -0.5600  0.6009 -0.0157
  446MOL    O7536565   5.243   1.012   2.784 -0.5032 -0.4890 -0.0664
  446MOL    H7636566   5.379   0.856   2.769  0.0250  0.4971 -0.7063
  446MOL    H7736567   5.359   0.961   2.630  1.4817 -1.8697 -0.1383
  446MOL    C7836568   5.196   1.125   2.720  0.6965 -0.1424 -0.4661
  446MOL    O7936569   5.074   1.172   2.775 -0.0784  0.5003 -0.6690
  446MOL    H8036570   5.180   1.100   2.616 -0.2194 -1.6048  0.0051
  446MOL    H8136571   5.264   1.211   2.723 -0.2036  0.5822 -0.5069
  446MOL    H8236572   4.999   1.120   2.747  0.2897 -0.7175  0.5928
  447MOL     C136573   1.977   4.468   2.703 -0.1339 -0.1327  0.1774
  447MOL     O236574   1.930   4.389   2.817 -0.1819  0.0397 -0.7036
  447MOL     H336575   2.084   4.489   2.710 -0.4307  2.0825 -1.4416
  447MOL     H436576   1.950   4.418   2.610 -0.7434 -0.7393  0.6697
  447MOL     H536577   1.922   4.562   2.701 -1.1252 -0.6589  1.6188
  447MOL     C636578   1.956   4.443   2.948  0.5754 -0.3716  0.1339
  447MOL     O736579   1.883   4.373   3.045 -0.1616 -0.3900 -0.2093
  447MOL     H836580   1.927   4.548   2.941 -0.0279 -0.5978 -0.8510
  447MOL     H936581   2.062   4.437   2.970  0.9697 -1.8560 -2.0145
  447MOL    C1036582   1.937   4.248   3.065 -0.4041 -0.7550 -0.5386
  447MOL    O1136583   2.069   4.250   3.120  0.0705  0.2186 -0.2314
  447MOL    H1236584   1.930   4.192   2.972 -1.5958 -2.2624  0.4144
  447MOL    H1336585   1.880   4.184   3.133  0.3730  0.1435  0.9782
  447MOL    C1436586   2.079   4.262   3.262 -0.5425  0.6097  0.0976
  447MOL    O1536587   2.208   4.274   3.320  0.8125 -0.2532  0.3369
  447MOL    H1636588   2.039   4.169   3.303 -0.5023 -0.0270 -1.2806
  447MOL    H1736589   2.011   4.338   3.301 -0.0493  1.7419 -1.1922
  447MOL    C1836590   2.270   4.399   3.299 -0.1530 -0.2299  0.0710
  447MOL    O1936591   2.205   4.509   3.354  0.1231 -0.9033  0.4069
  447MOL    H2036592   2.277   4.417   3.192 -1.0632 -1.5420 -0.2333
  447MOL    H2136593   2.372   4.385   3.334  0.4829  0.0715 -1.6023
  447MOL    C2236594   2.198   4.499   3.494  0.0070 -0.3313 -0.4694
  447MOL    O2336595   2.319   4.539   3.555 -0.2035 -0.0482  0.0636
  447MOL    H2436596   2.165   4.404   3.537  0.6431 -0.2170  0.2746
  447MOL    H2536597   2.118   4.568   3.518 -1.7544 -3.0172  1.6879
  447MOL    C2636598   2.320   4.519   3.687  0.1212 -0.1185  0.7598
  447MOL    O2736599   2.311   4.382   3.731  0.4916 -0.0521  1.0888
  447MOL    H2836600   2.247   4.580   3.740 -0.4506 -0.0098 -0.1512
  447MOL    H2936601   2.415   4.559   3.723  1.4417 -4.0564  1.9889
  447MOL    C3036602   2.420   4.300   3.699 -0.3608  0.0228  0.0309
  447MOL    O3136603   2.527   4.340   3.775  0.4691  0.1639  0.4209
  447MOL    H3236604   2.447   4.320   3.595 -1.3051 -3.0039 -0.8453
  447MOL    H3336605   2.404   4.192   3.707 -2.2711  0.4401  2.2150
  447MOL    C3436606   2.545   4.251   3.884 -0.3138 -0.5993 -0.2677
  447MOL    O3536607   2.673   4.274   3.938  0.0429 -0.4313  0.4704
  447MOL    H3636608   2.557   4.149   3.847  1.2941  0.0480 -1.5758
  447MOL    H3736609   2.467   4.261   3.960  0.2586  3.3954 -0.0844
  447MOL    C3836610   2.683   4.390   4.025 -0.7616 -0.1561  0.5802
  447MOL    O3936611   2.596   4.384   4.134 -0.2340  0.0711  0.4252
  447MOL    H4036612   2.661   4.479   3.966  1.9731 -0.1372 -0.5049
  447MOL    H4136613   2.780   4.392   4.074 -1.0392 -2.1638  1.2657
  447MOL    C4236614   2.578   4.503   4.208  0.3363  0.2070 -0.5431
  447MOL    O4336615   2.695   4.544   4.264  0.0868 -0.2449 -0.0722
  447MOL    H4436616   2.495   4.476   4.273  0.7586  0.3297  0.0520
  447MOL    H4536617   2.529   4.575   4.143 -1.7449 -0.5624  0.1344
  447MOL    C4636618   2.753   4.446   4.344  0.6273 -0.4737 -0.3270
  447MOL    O4736619   2.859   4.501   4.412 -0.0128  0.1611  0.4670
  447MOL    H4836620   2.787   4.354   4.297 -0.1703  0.0764 -2.0321
  447MOL    H4936621   2.666   4.410   4.400 -1.2234  2.4095 -1.2173
  447MOL    C5036622   2.831   4.597   4.513 -0.6448  0.1066  0.4610
  447MOL    O5136623   2.721   4.557   4.595 -0.0779  0.3690 -0.0318
  447MOL    H5236624   2.791   4.683   4.460  1.5293  0.0157 -1.3848
  447MOL    H5336625   2.916   4.628   4.573  0.2629  0.2700 -0.8927
  447MOL    C5436626   2.760   4.461   4.698  0.0069  0.3878  0.0035
  447MOL    O5536627   2.781   4.529   4.822 -0.2903  0.2849 -0.1981
  447MOL    H5636628   2.849   4.405   4.671  0.3495  0.8878  0.0895
  447MOL    H5736629   2.679   4.389   4.708  0.0237  0.2360 -0.9010
  447MOL    C5836630   2.664   4.558   4.891  0.5615  0.4206  0.3777
  447MOL    O5936631   2.608   4.442   4.956  0.5148  0.4548  0.1192
  447MOL    H6036632   2.601   4.611   4.819  0.9180 -1.2007 -1.1506
  447MOL    H6136633   2.684   4.645   4.954  0.6841  0.4510  0.2959
  447MOL    C6236634   2.648   4.431   5.085 -0.5391  0.6430  0.1325
  447MOL    O6336635   2.580   4.513   5.160 -0.3197  0.3471  0.0070
  447MOL    H6436636   2.752   4.464   5.086 -0.9048  1.7881  0.6734
  447MOL    H6536637   2.638   4.329   5.123 -1.2539  0.1872 -1.2205
  447MOL    C6636638   2.441   4.479   5.161 -0.3794  0.1935 -0.4379
  447MOL    O6736639   2.405   4.388   5.257 -0.6386 -0.0725  0.4865
  447MOL    H6836640   2.387   4.468   5.067  0.2414  0.1143 -0.7866
  447MOL    H6936641   2.396   4.570   5.203 -0.3207  0.2788 -0.5611
  447MOL    C7036642   2.434   4.438   5.388 -0.4215  0.3951  0.1423
  447MOL    O7136643   2.344   4.535   5.425 -0.2540 -0.3969 -0.1954
  447MOL    H7236644   2.527   4.494   5.402 -0.1715 -0.3909  1.7245
  447MOL    H7336645   2.432   4.355   5.459 -1.6040  1.1030  0.9423
  447MOL    C7436646   2.381   4.614   5.527  0.4063  0.1890 -0.1577
  447MOL    O7536647   2.416   4.539   5.639  0.2516 -0.0437 -0.3486
  447MOL    H7636648   2.305   4.690   5.544 -1.2800 -1.3849 -0.5760
  447MOL    H7736649   2.466   4.674   5.493  0.5357  1.0154  1.5698
  447MOL    C7836650   2.304   4.500   5.710  0.0308 -0.2205 -0.3896
  447MOL    O7936651   2.340   4.446   5.835 -0.0711  0.3111  0.3210
  447MOL    H8036652   2.259   4.426   5.644 -1.8183  0.8790 -0.4070
  447MOL    H8136653   2.226   4.574   5.729  1.3365  1.2303 -0.5045
  447MOL    H8236654   2.410   4.387   5.814 -1.2647 -0.1282 -2.7186
  448MOL     C136655   1.530   4.855   6.270 -0.6966  0.2253 -0.1845
  448MOL     O236656   1.601   4.873   6.148  0.2136  0.4383  0.4942
  448MOL     H336657   1.500   4.955   6.304 -3.4309 -0.0702 -1.5215
  448MOL     H436658   1.438   4.801   6.247 -0.1408 -1.1590  0.8185
  448MOL     H536659   1.574   4.801   6.353  1.7668  1.8664 -0.3758
  448MOL     C636660   1.666   4.769   6.091  0.4490 -0.0238 -0.8775
  448MOL     O736661   1.588   4.654   6.069  0.2502 -0.0867 -0.2348
  448MOL     H836662   1.752   4.739   6.150  0.6243 -2.9691 -2.5146
  448MOL     H936663   1.706   4.809   5.998 -1.2746 -1.4360 -2.2787
  448MOL    C1036664   1.477   4.657   5.981  0.4304 -0.2168  0.0291
  448MOL    O1136665   1.518   4.718   5.862 -0.0013  0.7799  0.3583
  448MOL    H1236666   1.398   4.713   6.031 -0.0615 -0.9819  0.1184
  448MOL    H1336667   1.443   4.554   5.966  2.3604 -0.4991 -2.8445
  448MOL    C1436668   1.415   4.726   5.777  0.1291 -0.3088  0.4312
  448MOL    O1536669   1.372   4.602   5.722 -0.0228  0.2941 -0.5246
  448MOL    H1636670   1.430   4.792   5.691 -0.4142  0.2022  0.7212
  448MOL    H1736671   1.324   4.766   5.822 -0.2591 -0.5197 -0.1586
  448MOL    C1836672   1.464   4.536   5.638  0.1394 -0.4600  0.1043
  448MOL    O1936673   1.443   4.562   5.503  0.0604 -0.0883 -0.5502
  448MOL    H2036674   1.480   4.431   5.659 -1.8225 -0.5200  1.4453
  448MOL    H2136675   1.560   4.582   5.663  0.1942  0.1567 -1.1899
  448MOL    C2236676   1.355   4.463   5.449 -0.4900  0.2784  0.7141
  448MOL    O2336677   1.423   4.347   5.425 -0.5626  0.4352 -0.1509
  448MOL    H2436678   1.316   4.512   5.360  1.2125  0.7659  0.2301
  448MOL    H2536679   1.266   4.453   5.511 -1.1807  0.8890 -0.1535
  448MOL    C2636680   1.524   4.354   5.326  0.1478  0.2471 -0.3844
  448MOL    O2736681   1.473   4.376   5.202  0.3394  0.8724  0.8328
  448MOL    H2836682   1.589   4.268   5.326 -0.4653 -0.2202 -0.2910
  448MOL    H2936683   1.592   4.439   5.330  1.4255 -0.8588  2.0857
  448MOL    C3036684   1.429   4.262   5.124  0.5633  0.1648 -0.5601
  448MOL    O3136685   1.314   4.206   5.183  0.1516  0.1367 -0.1576
  448MOL    H3236686   1.504   4.183   5.134 -0.7761 -0.9504  0.9579
  448MOL    H3336687   1.416   4.294   5.021 -1.1890 -0.1103 -0.4413
  448MOL    C3436688   1.199   4.285   5.176  0.4241 -0.1335 -0.8526
  448MOL    O3536689   1.147   4.286   5.050 -0.3296  0.0803 -0.0756
  448MOL    H3636690   1.219   4.390   5.199 -0.5383 -0.2697  0.6694
  448MOL    H3736691   1.129   4.251   5.252  3.3536 -0.5893  1.7537
  448MOL    C3836692   1.063   4.178   5.018 -0.9054  0.6866 -0.2643
  448MOL    O3936693   0.951   4.188   5.090  0.0103  0.3778  0.6441
  448MOL    H4036694   1.114   4.093   5.064  0.9376  1.4949 -0.7868
  448MOL    H4136695   1.058   4.179   4.909  0.5943 -2.1679 -0.4183
  448MOL    C4236696   0.854   4.269   5.032  0.7183  1.0707 -0.1321
  448MOL    O4336697   0.780   4.194   4.942 -0.1169 -0.0667 -0.2922
  448MOL    H4436698   0.903   4.354   4.986 -2.5028  2.2055 -1.6629
  448MOL    H4536699   0.789   4.316   5.106  1.4811  0.5604  0.8858
  448MOL    C4636700   0.690   4.115   5.001 -0.0087 -0.7568 -1.0171
  448MOL    O4736701   0.578   4.196   5.047 -0.5855  0.5003 -0.1269
  448MOL    H4836702   0.732   4.060   5.086 -1.7806  0.2890  0.5802
  448MOL    H4936703   0.648   4.037   4.938 -1.3340 -1.2488  0.4395
  448MOL    C5036704   0.486   4.125   5.131 -0.3614 -0.3185  0.4503
  448MOL    O5136705   0.528   4.122   5.264 -0.1487  0.3405 -0.4806
  448MOL    H5236706   0.467   4.023   5.098  0.6628 -0.9772  1.8469
  448MOL    H5336707   0.387   4.169   5.129  0.3958  1.3825 -0.7134
  448MOL    C5436708   0.539   4.247   5.326 -1.0467 -0.5684  0.4315
  448MOL    O5536709   0.428   4.332   5.319 -0.0437 -0.0039  0.4845
  448MOL    H5636710   0.625   4.305   5.292  0.0107 -2.3471 -0.0442
  448MOL    H5736711   0.563   4.230   5.432 -2.1864 -0.0960  0.7671
  448MOL    C5836712   0.437   4.442   5.235 -0.3053 -0.1141  0.3587
  448MOL    O5936713   0.487   4.548   5.314  0.1017 -0.0050 -0.3552
  448MOL    H6036714   0.338   4.474   5.204 -0.6341  0.6428  2.1259
  448MOL    H6136715   0.508   4.434   5.152 -0.2272 -0.2907  0.4417
  448MOL    C6236716   0.406   4.596   5.420  0.3021  0.5887  0.6356
  448MOL    O6336717   0.464   4.708   5.487 -0.1751  0.0883 -0.0330
  448MOL    H6436718   0.380   4.517   5.491 -0.3666  1.0450  0.9078
  448MOL    H6536719   0.307   4.617   5.379 -0.0665 -1.9162  0.1523
  448MOL    C6636720   0.467   4.822   5.407  0.2645 -0.7301 -0.1802
  448MOL    O6736721   0.339   4.862   5.364 -0.8133  0.1896 -0.0714
  448MOL    H6836722   0.532   4.816   5.320 -0.2465  1.6127 -0.7599
  448MOL    H6936723   0.504   4.901   5.473 -0.0946 -1.3969  0.8397
  448MOL    C7036724   0.327   4.987   5.301 -1.0239 -0.2817  0.5506
  448MOL    O7136725   0.377   4.985   5.174  0.5051 -0.0340  0.2105
  448MOL    H7236726   0.388   5.060   5.354 -0.7755  1.0899 -1.5656
  448MOL    H7336727   0.222   5.018   5.302 -1.1997 -0.7198 -1.5383
  448MOL    C7436728   0.352   5.102   5.111 -0.3995  0.1502 -0.2695
  448MOL    O7536729   0.222   5.127   5.077  0.5993 -0.1115 -0.3899
  448MOL    H7636730   0.405   5.088   5.017  0.9092 -2.0244  0.7635
  448MOL    H7736731   0.394   5.191   5.158 -0.1450 -0.0562 -0.1074
  448MOL    C7836732   0.158   5.033   4.993 -0.0016 -0.1792  0.0408
  448MOL    O7936733   0.033   5.075   4.956  0.4695  0.1909 -0.1290
  448MOL    H8036734   0.156   4.934   5.040 -0.0062  0.4595  1.4139
  448MOL    H8136735   0.226   5.031   4.908  0.9044  2.4516  0.6565
  448MOL    H8236736   0.027   5.145   4.892 -2.6058 -0.0768 -0.1850
  449MOL     C136737   7.398   1.937   4.090 -0.2166 -0.4455 -0.3422
  449MOL     O236738   7.362   2.063   4.040 -0.5772 -0.4568 -0.2313
  449MOL     H336739   7.410   1.934   4.199 -0.2332 -3.3082 -0.3711
  449MOL     H436740   7.323   1.863   4.064  0.7508 -0.8183 -2.1576
  449MOL     H536741   7.498   1.908   4.057  0.4709  2.7558 -1.2148
  449MOL     C636742   7.253   2.122   4.107 -0.3020 -0.3791 -0.0464
  449MOL     O736743   7.185   2.201   4.012 -0.0805 -0.1574  0.0089
  449MOL     H836744   7.290   2.168   4.199  2.0053  0.3263 -1.2893
  449MOL     H936745   7.172   2.054   4.132  0.3384 -0.3150  2.3341
  449MOL    C1036746   7.257   2.313   3.982  0.1639 -0.3679 -0.4027
  449MOL    O1136747   7.303   2.383   4.099 -0.5953 -0.1096  0.0981
  449MOL    H1236748   7.196   2.375   3.917 -0.8542 -0.6853  0.2487
  449MOL    H1336749   7.342   2.281   3.921  1.0945  0.7994  0.2559
  449MOL    C1436750   7.389   2.489   4.068  0.1813  0.1022 -0.1697
  449MOL    O1536751   7.336   2.582   3.983 -0.3294 -0.8778  0.1089
  449MOL    H1636752   7.473   2.436   4.022  2.5726  3.3301  0.2558
  449MOL    H1736753   7.424   2.531   4.163  2.2284 -0.0249 -0.8348
  449MOL    C1836754   7.227   2.654   4.044 -0.2025 -0.8710  0.0450
  449MOL    O1936755   7.265   2.753   4.135  0.2004 -0.4152  0.2059
  449MOL    H2036756   7.158   2.574   4.071 -0.6336 -0.4375  0.2334
  449MOL    H2136757   7.175   2.692   3.957  1.7351  2.8913  0.4649
  449MOL    C2236758   7.310   2.869   4.080 -0.7236  0.2972 -0.2216
  449MOL    O2336759   7.214   2.945   4.016  0.1419  0.4226  0.2315
  449MOL    H2436760   7.378   2.836   4.002  1.2325  1.4033  0.9966
  449MOL    H2536761   7.369   2.936   4.142 -0.8266  0.1408  0.0487
  449MOL    C2636762   7.130   3.012   4.108  0.1259 -0.6305 -0.1657
  449MOL    O2736763   7.057   2.930   4.196  0.2072 -0.4846  0.0700
  449MOL    H2836764   7.054   3.069   4.056 -0.5086 -0.4493  0.9555
  449MOL    H2936765   7.187   3.080   4.170 -0.8011 -0.1082  0.1200
  449MOL    C3036766   6.961   2.855   4.129  0.3965 -0.1522 -0.1520
  449MOL    O3136767   6.853   2.924   4.072 -0.4379 -0.1487  0.2692
  449MOL    H3236768   6.915   2.795   4.207 -0.5851  0.3128 -0.3668
  449MOL    H3336769   7.001   2.790   4.051 -0.4594 -1.1033  0.1887
  449MOL    C3436770   6.791   3.013   4.166  0.0270  0.1484 -0.3919
  449MOL    O3536771   6.712   3.103   4.099  0.0308 -0.2000  0.2296
  449MOL    H3636772   6.858   3.061   4.237 -1.0982  0.6377  0.3707
  449MOL    H3736773   6.731   2.961   4.241  2.3767  0.9439  2.1163
  449MOL    C3836774   6.785   3.197   4.026 -0.7044  0.3382 -0.3088
  449MOL    O3936775   6.865   3.282   4.098 -0.0038 -0.0061  0.0540
  449MOL    H4036776   6.711   3.248   3.964  0.3610  1.1435 -0.9488
  449MOL    H4136777   6.860   3.152   3.961  0.2080  1.0673  0.2231
  449MOL    C4236778   6.928   3.378   4.009  0.7070 -0.4152  0.4933
  449MOL    O4336779   7.032   3.327   3.927 -0.3232  0.0076 -0.7221
  449MOL    H4436780   6.964   3.461   4.071 -1.0496  0.6762  0.0970
  449MOL    H4536781   6.851   3.416   3.942  0.8898 -1.0684 -0.0798
  449MOL    C4636782   7.156   3.327   3.992  0.5040 -0.2643 -0.5446
  449MOL    O4736783   7.219   3.456   3.991  0.0957  0.2665 -0.5338
  449MOL    H4836784   7.229   3.254   3.959 -1.8953 -2.2009 -1.7312
  449MOL    H4936785   7.138   3.300   4.097  1.6688  2.0027  0.2729
  449MOL    C5036786   7.223   3.505   3.859  0.2114  0.6369  0.8470
  449MOL    O5136787   7.295   3.415   3.774  0.2625 -0.0905 -0.1524
  449MOL    H5236788   7.254   3.609   3.848  0.0291  0.6854  0.7742
  449MOL    H5336789   7.123   3.506   3.815  1.3997 -0.2897 -2.0329
  449MOL    C5436790   7.336   3.473   3.648 -0.1169 -0.0191  0.0951
  449MOL    O5536791   7.442   3.567   3.664 -0.1693  0.1399 -0.2578
  449MOL    H5636792   7.246   3.513   3.602 -0.4203  1.2212  1.7214
  449MOL    H5736793   7.388   3.401   3.584 -1.1266 -0.2574 -0.4630
  449MOL    C5836794   7.558   3.508   3.706 -1.0881 -0.4293  0.5798
  449MOL    O5936795   7.633   3.447   3.604 -0.5860  0.8800 -0.0634
  449MOL    H6036796   7.557   3.429   3.781 -1.4179 -1.8473 -0.8987
  449MOL    H6136797   7.624   3.586   3.746 -0.0694 -1.4817  0.9925
  449MOL    C6236798   7.709   3.544   3.539  0.2527  0.0596  0.2783
  449MOL    O6336799   0.051   3.581   3.602  0.2062 -0.4287 -0.0986
  449MOL    H6436800   7.656   3.636   3.514  0.7924 -0.3439 -2.4694
  449MOL    H6536801   7.742   3.499   3.445  2.9536 -1.6764  1.9746
  449MOL    C6636802   0.109   3.697   3.544 -0.6012 -0.7003 -0.5144
  449MOL    O6736803   0.140   3.678   3.407 -0.1665 -0.1210  0.3064
  449MOL    H6836804   0.199   3.729   3.596 -1.5585  0.6474  0.3552
  449MOL    H6936805   0.033   3.775   3.545 -2.1747 -2.1602 -1.6928
  449MOL    C7036806   0.238   3.573   3.394  0.2323  0.0303 -0.6138
  449MOL    O7136807   0.365   3.619   3.413 -0.3930  0.2870 -0.5055
  449MOL    H7236808   0.223   3.536   3.292 -2.5427 -0.7702  0.0336
  449MOL    H7336809   0.224   3.496   3.470  1.8202 -0.1721 -0.5128
  449MOL    C7436810   0.419   3.682   3.299 -0.1360 -0.4430  0.2921
  449MOL    O7536811   0.447   3.597   3.190  0.0839 -0.5642 -0.3953
  449MOL    H7636812   0.509   3.743   3.312 -0.6265  0.1032  1.1447
  449MOL    H7736813   0.338   3.747   3.264  0.3564 -0.8489 -1.6905
  449MOL    C7836814   0.523   3.486   3.213 -0.0688  0.1464  0.1998
  449MOL    O7936815   0.572   3.431   3.095 -0.5070  0.1934 -0.1419
  449MOL    H8036816   0.462   3.408   3.257  0.2726 -1.3702 -1.9026
  449MOL    H8136817   0.609   3.506   3.277 -0.5311 -0.1580  0.9173
  449MOL    H8236818   0.652   3.476   3.071  1.1893 -2.5911  0.0443
  450MOL     C136819   4.113   3.533   1.762  0.9985  0.5084  0.1563
  450MOL     O236820   4.168   3.661   1.788 -0.5106 -0.1643  0.1213
  450MOL     H336821   4.036   3.534   1.684  0.1815  1.6033  0.9574
  450MOL     H436822   4.190   3.460   1.738 -0.0718 -1.3059  2.0970
  450MOL     H536823   4.065   3.505   1.855  0.7659  0.6754  0.0861
  450MOL     C636824   4.067   3.751   1.814  0.0863  0.5920 -0.3340
  450MOL     O736825   3.987   3.769   1.699  0.1386  0.0579 -0.4330
  450MOL     H836826   4.100   3.846   1.854 -0.2285 -0.3009  2.1667
  450MOL     H936827   4.004   3.706   1.892  2.3673 -1.5147  0.3516
  450MOL    C1036828   4.048   3.837   1.603 -0.4257 -0.7875 -0.2767
  450MOL    O1136829   4.077   3.971   1.645 -0.5829  0.2353 -0.3810
  450MOL    H1236830   3.983   3.844   1.516 -0.4077 -1.0492 -0.3130
  450MOL    H1336831   4.139   3.786   1.570 -0.0483 -0.0250 -0.4181
  450MOL    C1436832   3.960   4.039   1.674 -0.6006  0.4742  0.2068
  450MOL    O1536833   3.979   4.151   1.761  0.7113  0.4613 -0.3910
  450MOL    H1636834   3.887   3.977   1.726 -1.1727  0.2211 -0.8750
  450MOL    H1736835   3.909   4.073   1.584 -1.8432 -0.5145  0.5197
  450MOL    C1836836   4.064   4.251   1.709 -0.2890  0.3903 -0.2387
  450MOL    O1936837   4.020   4.301   1.581  0.2424  0.3158  0.5090
  450MOL    H2036838   4.156   4.193   1.702 -0.8945 -0.9659  2.3454
  450MOL    H2136839   4.097   4.340   1.763 -0.0466  0.6400 -0.7880
  450MOL    C2236840   3.900   4.374   1.593 -0.1693  0.2832  0.4271
  450MOL    O2336841   3.906   4.483   1.679  0.0348 -0.0085  0.9118
  450MOL    H2436842   3.826   4.300   1.624 -0.1650  0.2091  0.2619
  450MOL    H2536843   3.863   4.395   1.493  2.3831  0.1073 -0.6132
  450MOL    C2636844   3.945   4.594   1.606  0.3769  0.0190 -0.0568
  450MOL    O2736845   3.847   4.640   1.517 -0.5007  0.9690 -0.1266
  450MOL    H2836846   4.045   4.583   1.563  1.5109  2.9881  1.7102
  450MOL    H2936847   3.957   4.667   1.685 -0.3447  1.0898 -0.9174
  450MOL    C3036848   3.896   4.747   1.439  0.3578  0.3775 -0.5318
  450MOL    O3136849   4.001   4.701   1.356 -0.0452 -0.2216  0.6151
  450MOL    H3236850   3.924   4.827   1.507 -2.3394  0.9681 -0.0766
  450MOL    H3336851   3.814   4.775   1.374  0.7334 -0.8782 -1.5799
  450MOL    C3436852   4.068   4.798   1.285  0.6609  0.0715 -0.0724
  450MOL    O3536853   4.153   4.864   1.366 -0.0635 -0.4573 -0.3658
  450MOL    H3636854   3.992   4.857   1.235 -1.5423 -2.4244  0.2072
  450MOL    H3736855   4.130   4.744   1.214  0.5975 -1.1068  0.7551
  450MOL    C3836856   4.264   4.790   1.411 -0.3170  0.3618 -0.4969
  450MOL    O3936857   4.326   4.862   1.519 -0.3784  0.9420 -0.2713
  450MOL    H4036858   4.330   4.751   1.333 -0.4594 -0.5963 -0.1473
  450MOL    H4136859   4.223   4.703   1.462 -0.2558  1.5486  1.6460
  450MOL    C4236860   4.380   4.977   1.472  0.3607  0.4006  0.2756
  450MOL    O4336861   4.507   4.955   1.417 -0.0910 -0.3449  0.2262
  450MOL    H4436862   4.376   5.041   1.559 -2.6389  2.1423 -1.0581
  450MOL    H4536863   4.314   5.026   1.400 -2.2890  0.9535  3.0206
  450MOL    C4636864   4.571   5.076   1.380  0.1186  0.0980 -0.8404
  450MOL    O4736865   4.702   5.050   1.344 -0.3531 -0.4199  0.1194
  450MOL    H4836866   4.571   5.154   1.457 -3.1101  0.4934 -1.1579
  450MOL    H4936867   4.520   5.122   1.295 -0.9518  1.6736  0.6134
  450MOL    C5036868   4.771   5.163   1.304 -0.8763  0.4616  0.0697
  450MOL    O5136869   4.713   5.243   1.205  0.4385 -0.9997 -0.0892
  450MOL    H5236870   4.868   5.129   1.266  0.1902  1.6768  1.6433
  450MOL    H5336871   4.781   5.224   1.394  0.7448 -1.2705  1.1126
  450MOL    C5436872   4.729   5.191   1.080  0.1855  0.4080 -0.1254
  450MOL    O5536873   4.864   5.207   1.035 -0.5890  0.6629 -0.0185
  450MOL    H5636874   4.661   5.250   1.018 -0.2075  0.4837  0.3739
  450MOL    H5736875   4.694   5.088   1.075  0.3158  0.4331 -1.8877
  450MOL    C5836876   4.907   5.339   1.048  0.2494  0.4032  0.1396
  450MOL    O5936877   4.824   5.430   0.984  0.0857 -0.0392 -0.1098
  450MOL    H6036878   5.005   5.345   1.000  0.4953 -0.3313  0.5499
  450MOL    H6136879   4.910   5.364   1.154  0.5819  0.6204  0.0795
  450MOL    C6236880   4.872   5.459   0.859 -0.6938 -0.5823 -0.2502
  450MOL    O6336881   4.795   5.555   0.795  0.3252 -0.6481 -0.0600
  450MOL    H6436882   4.882   5.373   0.792  3.1243 -1.6880  1.6556
  450MOL    H6536883   4.965   5.514   0.867 -0.0225 -2.0600  2.5151
  450MOL    C6636884   4.657   5.517   0.769  0.1710  0.7499 -0.2607
  450MOL    O6736885   4.653   5.428   0.674  0.2985 -0.1942  0.2603
  450MOL    H6836886   4.595   5.601   0.740 -1.9348 -0.7012 -0.1067
  450MOL    H6936887   4.622   5.467   0.860 -2.0083 -0.7304 -1.8706
  450MOL    C7036888   4.679   5.478   0.554  0.0898  0.1839  0.0522
  450MOL    O7136889   4.561   5.513   0.497 -0.4518 -0.2208 -0.1157
  450MOL    H7236890   4.735   5.407   0.495 -2.1509 -3.6399  2.3435
  450MOL    H7336891   4.739   5.569   0.549 -1.1146  0.8890 -2.2754
  450MOL    C7436892   4.506   5.412   0.418 -0.0644  0.2981 -1.0306
  450MOL    O7536893   4.377   5.453   0.364 -0.3868 -0.2314 -0.1440
  450MOL    H7636894   4.470   5.330   0.479 -0.6075  1.7622  0.6582
  450MOL    H7736895   4.581   5.389   0.341  1.6316  0.1243  0.6364
  450MOL    C7836896   4.394   5.542   0.262 -0.2241 -0.4271  0.5037
  450MOL    O7936897   4.273   5.604   0.216 -0.2933  0.4230 -0.0536
  450MOL    H8036898   4.441   5.487   0.180  0.8834 -1.8638  2.0553
  450MOL    H8136899   4.462   5.620   0.296 -1.2778  1.5759 -1.8778
  450MOL    H8236900   4.236   5.659   0.284  0.0553 -0.0335  0.5105
  451MOL     C136901   2.386   6.757   5.033 -0.0678  0.2723 -0.8409
  451MOL     O236902   2.425   6.620   5.009  0.5238 -0.2443 -0.0090
  451MOL     H336903   2.320   6.769   5.119 -0.8957  0.1953 -1.4546
  451MOL     H436904   2.479   6.814   5.044 -1.6895  2.5737  1.8457
  451MOL     H536905   2.332   6.794   4.945 -3.9735 -1.8893  0.5339
  451MOL     C636906   2.515   6.609   4.899  0.3212  0.1639  0.1505
  451MOL     O736907   2.457   6.654   4.779  0.3459  0.4158  0.2265
  451MOL     H836908   2.570   6.515   4.893  1.3614  0.9105 -2.7887
  451MOL     H936909   2.599   6.676   4.918 -1.4083  1.8800  2.0535
  451MOL    C1036910   2.548   6.692   4.682  0.8541 -0.1317 -0.0953
  451MOL    O1136911   2.643   6.592   4.657  0.0503 -0.1695 -0.2126
  451MOL    H1236912   2.604   6.771   4.733 -0.4709  1.8950 -1.7122
  451MOL    H1336913   2.499   6.727   4.592 -0.6594 -1.8360  0.0345
  451MOL    C1436914   2.595   6.488   4.581 -0.0474 -0.1458 -0.0830
  451MOL    O1536915   2.694   6.395   4.575 -0.3659 -0.4552  0.0918
  451MOL    H1636916   2.568   6.526   4.482  0.0213 -2.9966 -1.2345
  451MOL    H1736917   2.512   6.433   4.625 -0.3829  0.7659  0.4572
  451MOL    C1836918   2.810   6.438   4.511  0.0764  0.8581 -0.1443
  451MOL    O1936919   2.776   6.473   4.380  0.5259 -0.2405  0.6028
  451MOL    H2036920   2.885   6.360   4.511 -0.2174  0.5711 -0.3489
  451MOL    H2136921   2.844   6.531   4.556 -1.0657  1.1531  0.1442
  451MOL    C2236922   2.742   6.364   4.303  0.3913  0.1108 -0.2492
  451MOL    O2336923   2.851   6.291   4.260 -0.0722  0.0661  0.1209
  451MOL    H2436924   2.683   6.408   4.222 -0.5420 -0.5222  0.0766
  451MOL    H2536925   2.669   6.296   4.346 -0.8231  0.5624 -1.5447
  451MOL    C2636926   2.921   6.357   4.149  1.1970  0.3159 -0.0207
  451MOL    O2736927   2.837   6.357   4.038 -0.4452 -0.5501 -0.3475
  451MOL    H2836928   3.021   6.316   4.131  1.9435  1.8180  0.5975
  451MOL    H2936929   2.922   6.461   4.182  1.4835  0.2845  0.0780
  451MOL    C3036930   2.809   6.230   3.993  0.7369  0.4131 -0.3543
  451MOL    O3136931   2.911   6.184   3.919  0.3364  0.4081 -0.0017
  451MOL    H3236932   2.718   6.245   3.935  0.9556  3.3171 -0.0324
  451MOL    H3336933   2.782   6.158   4.070  0.2958  0.4299 -0.4920
  451MOL    C3436934   2.943   6.262   3.809 -0.3451 -0.3523 -0.8595
  451MOL    O3536935   2.868   6.239   3.699  0.1228 -0.3734  0.1225
  451MOL    H3636936   3.049   6.244   3.790  0.0513  0.6814  0.3262
  451MOL    H3736937   2.940   6.370   3.824 -1.7228 -0.6660  1.4226
  451MOL    C3836938   2.897   6.109   3.656  0.3317 -0.3798 -0.3013
  451MOL    O3936939   2.884   6.091   3.520 -0.1337 -0.2284  0.1646
  451MOL    H4036940   2.831   6.037   3.705  2.0764 -2.2311 -0.6145
  451MOL    H4136941   2.999   6.080   3.683 -0.3695 -3.6794 -0.9541
  451MOL    C4236942   2.965   6.174   3.441 -0.0108  0.1116 -0.2488
  451MOL    O4336943   3.097   6.131   3.429 -0.3313  0.5237 -0.0413
  451MOL    H4436944   2.965   6.275   3.483  2.4971 -0.8897  2.4000
  451MOL    H4536945   2.924   6.197   3.344 -0.6280  1.1647  0.2546
  451MOL    C4636946   3.111   6.010   3.368 -0.6048  0.0383  0.3584
  451MOL    O4736947   3.066   6.019   3.234 -0.0353  0.1045  0.1242
  451MOL    H4836948   3.041   5.940   3.414  1.8562 -1.6170  1.6576
  451MOL    H4936949   3.209   5.962   3.364 -0.9416 -0.7865  1.4521
  451MOL    C5036950   3.158   6.067   3.141 -0.1532  0.6420 -0.4343
  451MOL    O5136951   3.227   5.961   3.074 -0.7697  0.5587 -0.1550
  451MOL    H5236952   3.217   6.150   3.178  0.9881 -1.0214  1.5706
  451MOL    H5336953   3.076   6.096   3.075  0.6467  0.7143 -1.4118
  451MOL    C5436954   3.363   5.977   3.067  0.3112  0.1005  0.2285
  451MOL    O5536955   3.397   6.081   2.987  0.2334 -0.6994 -0.2231
  451MOL    H5636956   3.423   5.890   3.039 -0.1341 -0.9955  2.6163
  451MOL    H5736957   3.398   5.996   3.168 -0.8829 -0.8951  0.8317
  451MOL    C5836958   3.363   6.060   2.857 -0.3628  0.0260  0.2660
  451MOL    O5936959   3.440   5.960   2.796 -0.0460  0.4672  0.3268
  451MOL    H6036960   3.377   6.147   2.794  1.6845 -0.8120 -0.4624
  451MOL    H6136961   3.258   6.031   2.852  0.1810 -2.1840  0.9786
  451MOL    C6236962   3.569   5.992   2.761  0.3388  0.2199  0.7142
  451MOL    O6336963   3.575   6.063   2.642  0.2721  0.2472  0.2343
  451MOL    H6436964   3.616   5.895   2.747  0.3214  0.1006  1.4373
  451MOL    H6536965   3.611   6.057   2.838 -0.3028 -0.0130  1.2706
  451MOL    C6636966   3.526   5.985   2.542 -0.2119 -0.1771 -0.5781
  451MOL    O6736967   3.560   6.021   2.408  0.6460  0.3061  0.3362
  451MOL    H6836968   3.419   5.973   2.558  0.0483 -2.3516 -0.2704
  451MOL    H6936969   3.574   5.887   2.530  0.2853 -0.0998  0.7609
  451MOL    C7036970   3.469   6.109   2.354  0.5787 -0.0538  0.1443
  451MOL    O7136971   3.334   6.068   2.353  0.3711  0.6229 -0.2663
  451MOL    H7236972   3.498   6.118   2.250  0.9404 -1.0646  0.1600
  451MOL    H7336973   3.485   6.206   2.402  1.1261  0.1755 -0.4925
  451MOL    C7436974   3.243   6.165   2.398 -1.2848 -0.0498 -0.0642
  451MOL    O7536975   3.117   6.114   2.414  0.3881 -0.0316 -0.2823
  451MOL    H7636976   3.248   6.235   2.314 -0.8445  0.5423  0.4545
  451MOL    H7736977   3.275   6.208   2.493  1.5461 -1.3806 -0.3853
  451MOL    C7836978   3.122   6.018   2.513  0.4728  0.2176 -0.1520
  451MOL    O7936979   2.998   5.960   2.535 -0.1509  0.0361  0.6594
  451MOL    H8036980   3.145   6.066   2.608 -0.6969 -0.6939  0.5925
  451MOL    H8136981   3.198   5.942   2.495  2.7729  1.6979  2.7940
  451MOL    H8236982   3.008   5.881   2.586  1.3175  0.7208  1.4785
  452MOL     C136983   0.492   3.218   1.067 -0.4158  0.8526 -0.7639
  452MOL     O236984   0.394   3.114   1.055  0.1618 -0.1078  0.6363
  452MOL     H336985   0.554   3.191   1.152  0.2706  0.5732 -1.3392
  452MOL     H436986   0.550   3.211   0.975 -2.8272 -3.0209 -2.1446
  452MOL     H536987   0.462   3.320   1.090  0.9064  0.9344  0.6437
  452MOL     C636988   0.437   2.979   1.044  0.3534  0.7872 -0.1084
  452MOL     O736989   0.502   2.919   1.153 -0.0982  0.3590 -0.1558
  452MOL     H836990   0.504   2.958   0.961  0.5901 -2.1540  0.7635
  452MOL     H936991   0.348   2.920   1.023  1.5140 -0.9025 -0.4545
  452MOL    C1036992   0.428   2.938   1.267 -0.1098  0.2523  0.0643
  452MOL    O1136993   0.472   2.847   1.371  0.4984 -0.1037  0.4280
  452MOL    H1236994   0.327   2.905   1.244  0.3034  0.6383 -2.4625
  452MOL    H1336995   0.433   3.041   1.303  0.7446  1.0034 -2.1242
  452MOL    C1436996   0.599   2.885   1.428 -0.1114  0.5380  0.2808
  452MOL    O1536997   0.627   2.812   1.537  0.2368 -0.4456  0.0423
  452MOL    H1636998   0.597   2.994   1.438 -0.1794  0.6386 -0.8482
  452MOL    H1736999   0.676   2.864   1.354  0.9429  1.9638  0.9515
  452MOL    C1837000   0.648   2.884   1.652  0.3392  0.4442  0.1796
  452MOL    O1937001   0.738   2.988   1.634  0.0244  0.4693 -0.1622
  452MOL    H2037002   0.694   2.807   1.713  0.4832 -0.2152 -0.7578
  452MOL    H2137003   0.553   2.919   1.693  1.1229  3.8278 -0.7306
  452MOL    C2237004   0.773   3.041   1.756  0.0316 -0.8208 -0.0206
  452MOL    O2337005   0.854   2.951   1.823 -0.4405 -0.1492  0.3830
  452MOL    H2437006   0.690   3.060   1.824 -0.3245  0.3598 -0.7679
  452MOL    H2537007   0.834   3.132   1.752  0.0761 -0.7314  1.9598
  452MOL    C2637008   0.984   2.946   1.779 -0.3302 -0.3342 -0.0082
  452MOL    O2737009   1.047   3.068   1.800  0.4201 -0.1339 -0.1264
  452MOL    H2837010   0.986   2.932   1.671  0.2353  1.1345 -0.1972
  452MOL    H2937011   1.034   2.863   1.829  1.7851 -0.2572 -1.9387
  452MOL    C3037012   1.095   3.078   1.931  0.0475 -0.6723  0.8239
  452MOL    O3137013   1.236   3.070   1.937  0.0755 -0.2256  0.5856
  452MOL    H3237014   1.056   3.014   2.010 -0.7172 -1.2207  0.0088
  452MOL    H3337015   1.065   3.181   1.950  3.2768  0.4151  0.3388
  452MOL    C3437016   1.297   3.149   1.838 -0.2112 -0.3253  0.8737
  452MOL    O3537017   1.277   3.291   1.867 -0.3338  0.4626 -0.6876
  452MOL    H3637018   1.257   3.141   1.737  2.7704 -1.6741 -0.2870
  452MOL    H3737019   1.400   3.113   1.840 -0.6837 -1.8095 -0.1187
  452MOL    C3837020   1.364   3.345   1.961 -0.0171 -0.0259  0.2181
  452MOL    O3937021   1.327   3.312   2.090 -0.0912  0.0494  0.5035
  452MOL    H4037022   1.361   3.454   1.951  2.4830 -0.0650 -1.5002
  452MOL    H4137023   1.464   3.308   1.938 -0.0728 -2.4038  3.4320
  452MOL    C4237024   1.220   3.390   2.136  0.3519  0.5687 -0.3611
  452MOL    O4337025   1.181   3.342   2.261  0.2088 -0.0036  0.0722
  452MOL    H4437026   1.137   3.384   2.066 -0.7310  0.3423  0.9256
  452MOL    H4537027   1.256   3.493   2.142 -0.6664  0.9254 -0.2718
  452MOL    C4637028   1.116   3.218   2.245  0.2770 -0.2181  0.3447
  452MOL    O4737029   0.976   3.237   2.201 -0.8086  0.1014  0.0824
  452MOL    H4837030   1.112   3.174   2.345  3.8652 -2.4397 -0.4069
  452MOL    H4937031   1.171   3.152   2.178 -0.0179 -1.2379  1.0896
  452MOL    C5037032   0.899   3.296   2.290  0.7102 -0.3351  0.2684
  452MOL    O5137033   0.882   3.214   2.407 -0.1063 -0.0194  0.1906
  452MOL    H5237034   0.799   3.304   2.247  0.3880  1.6714  1.2930
  452MOL    H5337035   0.941   3.396   2.303  3.9643 -1.7506  0.9020
  452MOL    C5437036   0.828   3.282   2.519  0.3506 -0.4040  0.0983
  452MOL    O5537037   0.720   3.360   2.492  0.1036 -0.1274  1.0897
  452MOL    H5637038   0.907   3.356   2.538 -0.1109  0.6832 -2.1150
  452MOL    H5737039   0.808   3.226   2.610 -0.0582 -0.2199  0.1253
  452MOL    C5837040   0.605   3.279   2.482 -0.5187  0.3176  0.6423
  452MOL    O5937041   0.568   3.210   2.595 -0.1160  0.0862 -0.0003
  452MOL    H6037042   0.609   3.207   2.401  0.3215  2.5239 -1.3388
  452MOL    H6137043   0.519   3.336   2.448  0.1636  1.2287  0.4351
  452MOL    C6237044   0.490   3.293   2.686  0.4419  0.2217  0.2095
  452MOL    O6337045   0.361   3.348   2.638 -0.5847  0.3118  0.1582
  452MOL    H6437046   0.550   3.380   2.713 -2.8744  2.3451  1.1501
  452MOL    H6537047   0.463   3.225   2.766  1.9006 -0.3994  0.1797
  452MOL    C6637048   0.280   3.248   2.588  0.3656 -0.2302  0.3629
  452MOL    O6737049   0.243   3.162   2.691  0.2627  0.8427  0.7239
  452MOL    H6837050   0.321   3.193   2.503 -1.0715  1.4849 -1.4588
  452MOL    H6937051   0.193   3.298   2.548 -0.8593 -3.6403 -1.4092
  452MOL    C7037052   0.141   3.071   2.657  0.5039 -0.1955  0.0858
  452MOL    O7137053   0.031   3.141   2.604  0.0590  0.2096 -0.4732
  452MOL    H7237054   0.106   3.009   2.740  1.0988 -2.0404 -1.0231
  452MOL    H7337055   0.173   3.005   2.576 -0.2240 -0.9816  0.4307
  452MOL    C7437056   7.730   3.184   2.705 -0.1170  0.0756  0.1426
  452MOL    O7537057   7.627   3.087   2.716  0.2561  0.0006  0.6991
  452MOL    H7637058   7.695   3.282   2.673 -0.8214 -0.2970 -0.2463
  452MOL    H7737059   0.002   3.190   2.798  1.6369  2.6400 -1.0254
  452MOL    C7837060   7.544   3.107   2.825  0.3188 -0.2150  0.0941
  452MOL    O7937061   7.464   2.992   2.831 -0.0222  0.0759 -0.2057
  452MOL    H8037062   7.480   3.194   2.809  1.1281  0.7537  2.0091
  452MOL    H8137063   7.594   3.115   2.921 -1.4425 -1.0944  1.0942
  452MOL    H8237064   7.422   2.983   2.747  0.3064 -0.7972 -0.2817
  453MOL     C137065   1.016   5.091   7.483  0.2040  0.0208 -0.2536
  453MOL     O237066   0.963   5.131   7.602  0.6907  0.3997 -0.4248
  453MOL     H337067   0.938   5.032   7.433 -1.0936  1.4475  0.0534
  453MOL     H437068   1.040   5.177   7.420 -0.6383  1.5238  1.4428
  453MOL     H537069   1.100   5.021   7.487  0.1148 -0.0982 -0.4792
  453MOL     C637070   1.054   5.206   7.676 -0.0965  0.9480  0.0778
  453MOL     O737071   1.060   5.341   7.647 -0.0965  0.4951 -0.0802
  453MOL     H837072   1.159   5.181   7.663 -0.1712  0.4288  0.4509
  453MOL     H937073   1.022   5.202   7.781  1.0941  0.4208  0.4252
  453MOL    C1037074   0.948   5.415   7.689 -0.1434  0.1672 -0.2250
  453MOL    O1137075   0.962   5.431   0.039  0.5094  0.2662  0.6250
  453MOL    H1237076   0.862   5.355   7.659 -0.6278  0.7265  0.0419
  453MOL    H1337077   0.933   5.510   7.640 -0.9735  0.4537  0.5753
  453MOL    C1437078   1.058   5.532   0.070  0.1783  0.6795  0.6023
  453MOL    O1537079   1.020   5.657   0.023  0.0188  0.0504  0.3417
  453MOL    H1637080   1.153   5.499   0.028  0.5532  1.1516  1.0627
  453MOL    H1737081   1.052   5.527   0.179 -0.3458 -0.1869  0.5297
  453MOL    C1837082   0.915   5.714   0.098  0.2900 -0.4128 -0.0480
  453MOL    O1937083   0.952   5.748   0.231 -0.0869  0.4905  0.3307
  453MOL    H2037084   0.835   5.640   0.107  1.3063 -1.5795 -0.4603
  453MOL    H2137085   0.891   5.807   0.046  0.2431 -0.7554 -0.6492
  453MOL    C2237086   0.854   5.817   0.298 -0.0022 -0.4520 -0.3955
  453MOL    O2337087   0.897   5.841   0.433 -0.3295 -0.0698  0.4319
  453MOL    H2437088   0.766   5.754   0.310  0.6115 -1.4784 -1.3028
  453MOL    H2537089   0.835   5.914   0.251 -1.2369 -0.2664  0.4606
  453MOL    C2637090   0.888   5.741   0.527  0.0844  0.2375  0.1128
  453MOL    O2737091   0.759   5.702   0.549 -0.2140  0.1592 -0.0582
  453MOL    H2837092   0.925   5.783   0.621  0.3091 -1.7077  0.9132
  453MOL    H2937093   0.944   5.649   0.509  0.2409  0.0657  1.3949
  453MOL    C3037094   0.693   5.797   0.620 -0.1233 -0.0334 -0.6912
  453MOL    O3137095   0.740   5.822   0.749 -0.1879 -0.7964  0.0411
  453MOL    H3237096   0.592   5.757   0.632  0.1889 -0.7288 -0.3415
  453MOL    H3337097   0.677   5.888   0.563 -0.8159 -0.4768 -1.2212
  453MOL    C3437098   0.707   5.728   0.841 -0.1917 -0.2195  0.2420
  453MOL    O3537099   0.567   5.733   0.870 -0.2264  0.1220  0.2560
  453MOL    H3637100   0.759   5.737   0.937  1.5507  0.1930 -0.7158
  453MOL    H3737101   0.729   5.625   0.815  0.2236 -0.1902  0.4553
  453MOL    C3837102   0.522   5.849   0.939 -0.3341  0.9690  1.0553
  453MOL    O3937103   0.555   5.837   1.070  1.1928 -0.0172 -0.2344
  453MOL    H4037104   0.419   5.876   0.916  0.1084  0.5834 -1.4538
  453MOL    H4137105   0.566   5.937   0.892  1.2947 -1.8239 -2.9138
  453MOL    C4237106   0.470   5.751   1.142  0.2763  0.2628  0.6456
  453MOL    O4337107   0.330   5.778   1.115 -0.2469  0.0388 -0.0913
  453MOL    H4437108   0.492   5.765   1.247  4.8830  0.6188 -0.2713
  453MOL    H4537109   0.498   5.650   1.113 -1.3612 -0.2324  0.7222
  453MOL    C4637110   0.292   5.909   1.166 -0.6209  0.1600 -0.6766
  453MOL    O4737111   0.157   5.933   1.162 -0.2773  0.3114  0.1118
  453MOL    H4837112   0.353   5.982   1.113 -0.0651 -0.1535 -0.4732
  453MOL    H4937113   0.320   5.898   1.271 -2.0625 -2.7615 -0.5386
  453MOL    C5037114   0.108   5.935   1.031  0.2493  0.8144 -0.0260
  453MOL    O5137115   0.159   6.043   0.968 -0.3465  0.4162  0.1243
  453MOL    H5237116   0.000   5.929   1.018  0.3451  1.1525 -1.0362
  453MOL    H5337117   0.147   5.851   0.973  1.1545  0.2691  1.3441
  453MOL    C5437118   0.122   6.168   1.021  0.7964 -0.2112  0.5368
  453MOL    O5537119   0.113   6.267   0.924 -0.0171 -0.1822  0.0511
  453MOL    H5637120   0.206   6.197   1.083  1.5573 -2.8568  0.8057
  453MOL    H5737121   0.026   6.168   1.072 -0.1119  2.9206 -1.0178
  453MOL    C5837122   0.028   6.227   0.818 -0.6105  0.4801 -0.3325
  453MOL    O5937123   7.735   6.329   0.766  0.4383  0.3852  0.0783
  453MOL    H6037124   7.744   6.145   0.845 -0.4352  0.8284  1.1952
  453MOL    H6137125   0.089   6.191   0.735 -0.7302 -0.1178 -0.1653
  453MOL    C6237126   0.032   6.429   0.719  0.0151  0.3329 -0.4115
  453MOL    O6337127   0.097   6.398   0.599 -0.0100  0.5937 -0.0713
  453MOL    H6437128   0.117   6.441   0.787 -1.1947  1.7118  0.8886
  453MOL    H6537129   7.757   6.521   0.720 -0.7752 -0.1602  2.0359
  453MOL    C6637130   0.012   6.420   0.492  0.7258  0.1547  0.1406
  453MOL    O6737131   0.049   6.357   0.372 -0.3298  0.2106  0.0041
  453MOL    H6837132   0.005   6.527   0.472  1.1724  0.0079 -0.7828
  453MOL    H6937133   7.689   6.402   0.507  0.8800 -1.0410 -0.1511
  453MOL    C7037134   0.028   6.226   0.350  0.0324  0.3752 -0.2919
  453MOL    O7137135   7.682   6.202   0.329  0.5744 -0.3183  0.0471
  453MOL    H7237136   0.058   6.174   0.441 -4.7475 -0.6824  0.7986
  453MOL    H7337137   0.102   6.200   0.275  1.0835  2.7102 -0.1127
  453MOL    C7437138   7.643   6.246   0.200 -0.8430  0.6160  1.1172
  453MOL    O7537139   7.673   6.145   0.105 -0.2488 -0.2041  0.4331
  453MOL    H7637140   7.689   6.338   0.166  0.5871 -0.7036 -0.6377
  453MOL    H7737141   7.534   6.253   0.197 -1.0538 -2.4886 -2.9375
  453MOL    C7837142   7.580   6.046   0.097  0.7679 -0.3952 -0.3197
  453MOL    O7937143   7.626   5.938   0.020 -0.1609  0.3715  0.9845
  453MOL    H8037144   7.485   6.082   0.057 -0.2808 -0.2583  2.2072
  453MOL    H8137145   7.566   6.002   0.196  0.1619 -0.8717 -0.6158
  453MOL    H8237146   7.605   5.961   7.714 -0.1656 -1.7403  0.4065
  454MOL     C137147   4.857   4.199   0.583 -0.3447 -0.0105  0.3680
  454MOL     O237148   4.973   4.115   0.615 -0.8580 -0.9992 -0.3127
  454MOL     H337149   4.862   4.226   0.478 -0.8700 -3.3437 -0.5640
  454MOL     H437150   4.755   4.168   0.605 -0.4744 -0.2665 -0.5803
  454MOL     H537151   4.857   4.293   0.639 -2.7729  0.1092  0.2077
  454MOL     C637152   4.950   4.048   0.729  1.0633  0.0295  0.5472
  454MOL     O737153   4.914   4.130   0.835  0.1426 -0.0401  0.3929
  454MOL     H837154   5.041   3.993   0.755 -1.4408 -4.1195  1.0526
  454MOL     H937155   4.870   3.974   0.718  0.4580  0.7770 -0.1315
  454MOL    C1037156   5.021   4.212   0.880 -0.5987  0.2590  0.9819
  454MOL    O1137157   5.110   4.161   0.964  0.4132  0.4439  0.0519
  454MOL    H1237158   4.969   4.295   0.929 -1.1424 -0.7316  2.1004
  454MOL    H1337159   5.067   4.252   0.790  1.1550 -1.2941  1.1698
  454MOL    C1437160   5.052   4.099   1.071 -0.4472 -0.4610  0.0510
  454MOL    O1537161   5.134   4.068   1.179  0.2105 -0.7121 -0.4597
  454MOL    H1637162   5.022   4.002   1.031 -1.6902 -0.3925  0.8096
  454MOL    H1737163   4.964   4.145   1.116  0.0263  1.7855 -1.2480
  454MOL    C1837164   5.208   3.949   1.161  0.1715  0.4265  0.2596
  454MOL    O1937165   5.115   3.839   1.181 -0.0079 -0.0213  0.1080
  454MOL    H2037166   5.296   3.960   1.225 -0.3919 -0.2882  1.1635
  454MOL    H2137167   5.253   3.948   1.062  2.3356 -1.0002  1.2147
  454MOL    C2237168   5.052   3.838   1.303  0.5906  0.3066  0.0117
  454MOL    O2337169   4.994   3.718   1.339 -0.6320  0.3322 -0.1601
  454MOL    H2437170   4.970   3.910   1.299 -0.5326 -0.7943  2.6027
  454MOL    H2537171   5.124   3.872   1.377 -1.0787  1.0382  1.3270
  454MOL    C2637172   5.083   3.621   1.368  0.4799  0.1749 -0.2532
  454MOL    O2737173   5.018   3.522   1.443 -0.1253 -0.4961  0.3008
  454MOL    H2837174   5.162   3.665   1.429  0.4041 -2.0520  1.5110
  454MOL    H2937175   5.119   3.581   1.273 -0.7968 -1.6208 -0.0047
  454MOL    C3037176   4.902   3.461   1.394 -0.0174  0.8969  0.5375
  454MOL    O3137177   4.916   3.394   1.271 -0.1316 -0.1712  0.0213
  454MOL    H3237178   4.822   3.534   1.384  0.5436  1.2635 -1.5902
  454MOL    H3337179   4.873   3.381   1.462 -0.8878  0.4921 -0.2942
  454MOL    C3437180   4.824   3.289   1.245 -0.1699 -0.7083  0.2176
  454MOL    O3537181   4.700   3.340   1.222  0.8129 -0.0638  0.4789
  454MOL    H3637182   4.826   3.209   1.319 -1.0819 -0.1756  0.8256
  454MOL    H3737183   4.858   3.243   1.152 -1.0366 -0.9391  0.0155
  454MOL    C3837184   4.675   3.369   1.087  0.0840  0.2888  0.3457
  454MOL    O3937185   4.637   3.259   1.013 -0.1739 -0.0510  0.1491
  454MOL    H4037186   4.768   3.401   1.040  0.6393 -0.0061  1.2214
  454MOL    H4137187   4.607   3.453   1.078 -1.1607 -0.7957 -0.5121
  454MOL    C4237188   4.630   3.286   0.874  0.1247 -0.6191 -0.2208
  454MOL    O4337189   4.546   3.397   0.838  0.1090 -0.0836  0.3706
  454MOL    H4437190   4.589   3.191   0.838 -1.5041  0.4511 -1.3032
  454MOL    H4537191   4.727   3.302   0.828  1.1480 -0.7934  1.8444
  454MOL    C4637192   4.417   3.353   0.823 -0.0184 -0.6988 -0.1423
  454MOL    O4737193   4.405   3.270   0.717 -0.2097  0.0140 -0.4175
  454MOL    H4837194   4.353   3.441   0.817  2.8610  1.3663 -1.7086
  454MOL    H4937195   4.382   3.311   0.917  1.4595  0.5501  0.9912
  454MOL    C5037196   4.425   3.325   0.591  0.3243  0.2224 -0.3550
  454MOL    O5137197   4.351   3.265   0.498 -0.6599 -0.4117 -0.4032
  454MOL    H5237198   4.529   3.341   0.561  0.3417  2.5088  0.7540
  454MOL    H5337199   4.393   3.429   0.601  0.1174  0.5130 -3.5026
  454MOL    C5437200   4.217   3.256   0.520 -0.3428  0.1686  0.3563
  454MOL    O5537201   4.150   3.382   0.506 -0.0559  0.4781  0.3165
  454MOL    H5637202   4.201   3.208   0.615 -0.2776 -0.2528  0.1536
  454MOL    H5737203   4.179   3.188   0.443  2.4853 -1.4089  0.2976
  454MOL    C5837204   4.142   3.424   0.367 -0.3463  0.5759 -0.1798
  454MOL    O5937205   4.034   3.371   0.298 -0.9474  0.2570  0.2353
  454MOL    H6037206   4.236   3.400   0.317  0.1319  0.9578  0.5252
  454MOL    H6137207   4.132   3.532   0.375 -0.4738  0.6225 -0.9333
  454MOL    C6237208   3.921   3.439   0.346  0.3392 -0.2544  0.5741
  454MOL    O6337209   3.913   3.582   0.313  0.1024  0.5797  0.6124
  454MOL    H6437210   3.918   3.433   0.455 -1.0263 -0.9854  0.4955
  454MOL    H6537211   3.832   3.390   0.309  0.6000 -0.7056  0.5411
  454MOL    C6637212   3.895   3.607   0.178 -0.2629 -0.3200 -0.3536
  454MOL    O6737213   3.763   3.592   0.130  0.6826  0.2843 -0.2048
  454MOL    H6837214   3.966   3.548   0.120  1.3998  0.2740  1.0134
  454MOL    H6937215   3.928   3.709   0.156  0.6141 -0.3522  0.7519
  454MOL    C7037216   3.681   3.701   0.146  0.3761 -0.6146  0.4912
  454MOL    O7137217   3.718   3.806   0.061 -0.0690  0.0211  0.6281
  454MOL    H7237218   3.679   3.722   0.252 -0.1893 -1.0161  0.5623
  454MOL    H7337219   3.578   3.672   0.127  0.0441 -0.2100  1.6611
  454MOL    C7437220   3.658   3.816   7.724 -0.4581 -0.7600 -0.4137
  454MOL    O7537221   3.532   3.878   7.729  0.0526 -0.2025 -0.4402
  454MOL    H7637222   3.638   3.717   7.683  2.0191 -1.5890  0.3043
  454MOL    H7737223   3.724   3.872   7.658 -1.6270 -2.6733 -3.2967
  454MOL    C7837224   3.524   4.000   0.013  1.2093  0.4566  0.0719
  454MOL    O7937225   3.406   4.060   7.770 -0.1664 -0.6042  0.1045
  454MOL    H8037226   3.591   4.082   7.771  1.9930 -0.2732 -0.2481
  454MOL    H8137227   3.536   3.981   0.120 -0.7280 -1.1513  0.0437
  454MOL    H8237228   3.391   4.095   7.684  1.4108  1.2053  0.5325
  455MOL     C137229   4.948   1.512   1.159 -0.2842  0.0111  0.3581
  455MOL     O237230   5.010   1.634   1.128  0.1970  1.0442 -0.4055
  455MOL     H337231   4.996   1.472   1.248 -0.5660  2.7368  1.7734
  455MOL     H437232   4.842   1.529   1.172 -0.2530  1.3629 -1.0117
  455MOL     H537233   4.972   1.444   1.077 -2.8650  1.2979 -1.5352
  455MOL     C637234   4.945   1.691   1.022  0.5258 -0.2623 -0.6239
  455MOL     O737235   4.840   1.773   1.071 -0.0199 -0.2242 -0.2987
  455MOL     H837236   4.922   1.611   0.951 -0.3970 -1.6724  1.2317
  455MOL     H937237   5.013   1.759   0.970  0.7019 -0.6943 -0.9584
  455MOL    C1037238   4.896   1.883   1.148  0.1446 -0.0526 -0.3821
  455MOL    O1137239   4.793   1.962   1.208 -0.3053 -0.5521 -0.0048
  455MOL    H1237240   4.953   1.947   1.081 -0.5376  0.6622 -0.2924
  455MOL    H1337241   4.973   1.855   1.220 -1.1331 -0.7225  0.7453
  455MOL    C1437242   4.759   1.934   1.341 -0.0005  0.8470  0.0301
  455MOL    O1537243   4.861   1.974   1.426  0.0230 -0.0339  0.0967
  455MOL    H1637244   4.746   1.826   1.344  0.9008  0.7571  0.7827
  455MOL    H1737245   4.662   1.975   1.371 -1.2913 -1.8904 -0.1670
  455MOL    C1837246   4.845   2.111   1.466 -0.2172  1.0579 -0.3400
  455MOL    O1937247   4.757   2.106   1.575  0.3474  0.1457  0.1951
  455MOL    H2037248   4.811   2.174   1.384  2.5124  1.2196 -1.3871
  455MOL    H2137249   4.939   2.160   1.490  0.6774 -0.9737  0.4782
  455MOL    C2237250   4.811   2.081   1.703  0.1769 -0.5888  0.3787
  455MOL    O2337251   4.852   2.200   1.771 -0.0124 -0.4369  0.1810
  455MOL    H2437252   4.903   2.024   1.693 -0.1953 -1.1833  0.2932
  455MOL    H2537253   4.738   2.033   1.768 -0.9734  0.9157  0.2253
  455MOL    C2637254   4.757   2.303   1.784  0.4787 -0.2541 -0.1737
  455MOL    O2737255   4.672   2.273   1.886 -0.1766  0.6215  0.1033
  455MOL    H2837256   4.702   2.311   1.690  0.0203 -1.4953 -0.0146
  455MOL    H2937257   4.812   2.396   1.796 -0.4370 -0.1068  3.6474
  455MOL    C3037258   4.721   2.316   2.014  0.5401  0.4493  0.2522
  455MOL    O3137259   4.703   2.448   2.035 -0.0197  0.4966 -0.2175
  455MOL    H3237260   4.828   2.296   2.026  0.2268 -0.7675  1.1955
  455MOL    H3337261   4.658   2.261   2.084  0.1802  0.5712  0.0265
  455MOL    C3437262   4.574   2.485   2.066 -0.1668 -0.7357  0.3699
  455MOL    O3537263   4.536   2.451   2.194  0.1962  0.1045  0.3975
  455MOL    H3637264   4.506   2.438   1.995 -0.7853  1.0201 -0.2469
  455MOL    H3737265   4.573   2.593   2.050  2.9180 -0.7919 -0.5182
  455MOL    C3837266   4.403   2.471   2.220 -0.0250  0.1387  0.5496
  455MOL    O3937267   4.325   2.398   2.137  0.8298 -0.7218  0.2080
  455MOL    H4037268   4.382   2.578   2.209 -1.6502 -0.2766 -0.5246
  455MOL    H4137269   4.384   2.449   2.325 -1.8405 -0.2953  0.1509
  455MOL    C4237270   4.189   2.400   2.169  0.3162 -0.1062 -0.4045
  455MOL    O4337271   4.131   2.527   2.175  0.0143  0.1364 -0.1395
  455MOL    H4437272   4.169   2.356   2.267 -0.4818 -1.0610 -0.9813
  455MOL    H4537273   4.151   2.323   2.101 -0.5896  1.8628 -2.1800
  455MOL    C4637274   4.132   2.593   2.047  0.7319 -0.1870 -0.6005
  455MOL    O4737275   4.071   2.723   2.050 -0.4050 -0.0049  0.0715
  455MOL    H4837276   4.082   2.531   1.973  0.2306 -2.0391  1.2347
  455MOL    H4937277   4.239   2.596   2.023  1.0740  1.0685  1.0019
  455MOL    C5037278   3.931   2.721   2.068 -0.1285 -0.1494  0.2667
  455MOL    O5137279   3.883   2.686   1.941 -0.0865 -0.4718  0.5166
  455MOL    H5237280   3.896   2.811   2.118  2.7445 -0.2092  2.4744
  455MOL    H5337281   3.911   2.645   2.145 -0.5565  0.0711  0.3739
  455MOL    C5437282   3.882   2.783   1.847  0.2295  0.5219 -0.5669
  455MOL    O5537283   3.754   2.797   1.792 -0.1987  0.1099 -0.2084
  455MOL    H5637284   3.960   2.753   1.777  2.3876  0.3860  1.8077
  455MOL    H5737285   3.915   2.877   1.891  1.3903  0.1057 -0.5294
  455MOL    C5837286   3.735   2.722   1.678  0.0883  0.6699  0.3603
  455MOL    O5937287   3.787   2.766   1.561  0.0615 -0.0966  0.4691
  455MOL    H6037288   3.628   2.704   1.681 -0.0009  1.1595  0.1194
  455MOL    H6137289   3.784   2.628   1.703  1.0790  1.2529  0.6328
  455MOL    C6237290   3.693   2.820   1.474  0.4560  0.4425  0.8837
  455MOL    O6337291   3.615   2.720   1.410 -0.0064  0.0839  0.0888
  455MOL    H6437292   3.764   2.859   1.400 -0.4243  0.4783  0.0450
  455MOL    H6537293   3.631   2.901   1.512  0.3731  1.9707 -2.3350
  455MOL    C6637294   3.688   2.633   1.329  0.0355 -0.2890  0.5424
  455MOL    O6737295   3.700   2.690   1.199 -0.2353  0.1697  0.3076
  455MOL    H6837296   3.642   2.535   1.336  1.7336 -1.2210 -0.9486
  455MOL    H6937297   3.791   2.609   1.357  0.3361 -0.1577 -0.4388
  455MOL    C7037298   3.739   2.604   1.099 -0.0160  0.0891 -0.2722
  455MOL    O7137299   3.662   2.490   1.092 -0.2383  0.9278  0.0470
  455MOL    H7237300   3.844   2.577   1.117 -0.1809  0.2216  0.9235
  455MOL    H7337301   3.739   2.669   1.011  1.9055  0.7815  0.2147
  455MOL    C7437302   3.532   2.504   1.055 -0.3104 -0.1290  0.0722
  455MOL    O7537303   3.526   2.564   0.931 -0.3710  0.3767  0.0496
  455MOL    H7637304   3.476   2.568   1.123  0.5052  0.3517  0.3144
  455MOL    H7737305   3.502   2.400   1.052  2.1241 -0.8490 -4.5899
  455MOL    C7837306   3.406   2.566   0.883  0.0669 -0.4711 -0.1735
  455MOL    O7937307   3.405   2.629   0.757 -0.1190  0.0903  0.1356
  455MOL    H8037308   3.337   2.623   0.947  1.3512  1.0510 -0.1141
  455MOL    H8137309   3.357   2.469   0.880  1.2357 -1.1332  1.4607
  455MOL    H8237310   3.447   2.714   0.765 -1.4429  1.0033 -2.1636
  456MOL     C137311   4.664   5.538   2.082  0.1459 -0.0571  0.4628
  456MOL     O237312   4.794   5.478   2.072 -0.7014 -0.2652  0.3215
  456MOL     H337313   4.649   5.610   2.002 -2.4289  1.3938  2.2008
  456MOL     H437314   4.587   5.465   2.058 -0.0654  0.8865 -1.8314
  456MOL     H537315   4.642   5.586   2.177 -4.6731  0.9981 -1.0593
  456MOL     C637316   4.826   5.386   2.173 -0.2193 -0.2892 -1.0611
  456MOL     O737317   4.830   5.450   2.302  0.0500  0.1051 -0.5717
  456MOL     H837318   4.926   5.344   2.159  0.4364 -0.2167  2.8537
  456MOL     H937319   4.744   5.314   2.175 -1.3510  0.9928  2.7330
  456MOL    C1037320   4.948   5.521   2.328  0.1218 -0.4521 -0.2875
  456MOL    O1137321   4.955   5.624   2.234 -0.3151 -0.0908 -0.4618
  456MOL    H1237322   5.039   5.463   2.314  0.8939  0.2550  1.6057
  456MOL    H1337323   4.934   5.557   2.430 -1.5562 -1.3541 -0.1853
  456MOL    C1437324   5.002   5.741   2.288  0.2554  0.2020 -0.1360
  456MOL    O1537325   4.917   5.807   2.379  0.0887 -0.6078  0.3624
  456MOL    H1637326   5.028   5.799   2.200 -1.4519 -1.1649 -1.5910
  456MOL    H1737327   5.094   5.716   2.340  0.1429 -1.6009 -0.7803
  456MOL    C1837328   4.802   5.866   2.323 -0.3487 -0.4043 -0.3672
  456MOL    O1937329   4.823   5.965   2.227  0.1847  0.1232 -0.4167
  456MOL    H2037330   4.740   5.909   2.402 -1.2562 -0.7201 -0.8918
  456MOL    H2137331   4.744   5.784   2.278  1.0313 -1.1495 -0.8038
  456MOL    C2237332   4.858   6.085   2.287  0.1222 -0.2729  0.5001
  456MOL    O2337333   4.778   6.135   2.383 -0.0811 -0.3352  0.0492
  456MOL    H2437334   4.874   6.162   2.211  0.0094 -2.1073 -1.4259
  456MOL    H2537335   4.958   6.067   2.326 -1.0673 -1.1276  3.2389
  456MOL    C2637336   4.678   6.216   2.332  0.0820 -0.3697 -0.4838
  456MOL    O2737337   4.727   6.332   2.276  0.3116  0.3331 -0.1374
  456MOL    H2837338   4.598   6.236   2.404 -1.7087 -0.0656 -2.4872
  456MOL    H2937339   4.622   6.173   2.250 -0.8873  0.3091 -0.1964
  456MOL    C3037340   4.785   6.420   2.372 -0.3286  0.1507  0.8699
  456MOL    O3137341   4.886   6.496   2.315 -0.2330 -0.4547 -0.2391
  456MOL    H3237342   4.838   6.365   2.450  0.8255  2.1829  1.5757
  456MOL    H3337343   4.723   6.498   2.417  0.7705  1.0733  0.8335
  456MOL    C3437344   4.838   6.588   2.221 -0.3111 -0.4362  0.0815
  456MOL    O3537345   4.811   6.711   2.283  0.2556 -0.2864  0.1819
  456MOL    H3637346   4.753   6.557   2.160  0.6850 -1.9525 -0.5544
  456MOL    H3737347   4.915   6.607   2.147 -2.0282  2.4983 -1.0519
  456MOL    C3837348   4.938   6.777   2.306  0.1207 -0.1550  0.6929
  456MOL    O3937349   4.992   6.839   2.194  0.7517  0.2133  0.2415
  456MOL    H4037350   5.016   6.704   2.330  0.6994 -0.9096 -3.1539
  456MOL    H4137351   4.924   6.845   2.390  0.2990  1.6123 -0.6888
  456MOL    C4237352   4.908   6.938   2.150  0.2766  0.3564 -0.1014
  456MOL    O4337353   4.966   7.002   2.045  0.0700  0.3477 -0.5106
  456MOL    H4437354   4.916   7.018   2.225  1.0588  0.7248 -0.5748
  456MOL    H4537355   4.808   6.906   2.121  0.4107  1.0599 -1.3656
  456MOL    C4637356   4.948   6.934   1.926 -0.3004  0.0609  0.1195
  456MOL    O4737357   4.820   6.958   1.875  0.6077  0.1866  0.8891
  456MOL    H4837358   4.976   6.829   1.933 -0.4842  0.0557  0.7588
  456MOL    H4937359   5.022   6.977   1.858  1.0223 -0.0389  1.4660
  456MOL    C5037360   4.802   7.076   1.808  0.1816 -0.3294  0.0953
  456MOL    O5137361   4.878   7.081   1.691  0.1757 -0.1614  0.3325
  456MOL    H5237362   4.845   7.156   1.868 -0.2639 -2.1322  2.9385
  456MOL    H5337363   4.706   7.121   1.782 -0.5818 -2.4530 -0.8678
  456MOL    C5437364   4.836   6.993   1.594 -0.6332  0.3283 -0.1001
  456MOL    O5537365   4.737   7.041   1.517  0.1527 -0.1569  0.2769
  456MOL    H5637366   4.812   6.896   1.637 -0.3041 -0.6180 -1.9908
  456MOL    H5737367   4.914   6.973   1.520 -0.2079  0.3560  0.3424
  456MOL    C5837368   4.771   7.137   1.430  0.3748  0.4807 -0.7072
  456MOL    O5937369   4.852   7.091   1.330 -0.9905 -0.4922 -0.1507
  456MOL    H6037370   4.820   7.223   1.477  0.1548  0.2387 -0.0233
  456MOL    H6137371   4.680   7.175   1.385  1.0383  3.0542  0.0408
  456MOL    C6237372   4.780   7.032   1.224 -0.4830  0.4892 -0.2548
  456MOL    O6337373   4.726   7.125   1.138  0.0830  0.0871 -0.3879
  456MOL    H6437374   4.694   6.980   1.265  1.2481 -1.8954  0.5026
  456MOL    H6537375   4.847   6.956   1.183  0.2395  0.7503  0.4268
  456MOL    C6637376   4.828   7.206   1.075  0.2036  0.5005 -0.3530
  456MOL    O6737377   4.911   7.135   0.995  0.4952  0.0221 -0.2154
  456MOL    H6837378   4.895   7.253   1.148  0.0752  1.1819 -0.6696
  456MOL    H6937379   4.775   7.284   1.021 -0.2627  0.4109 -0.0270
  456MOL    C7037380   4.874   7.130   0.859  0.1152 -0.9759 -0.7298
  456MOL    O7137381   4.890   7.248   0.792  0.4876 -0.6837 -0.0661
  456MOL    H7237382   4.768   7.104   0.849  0.1155 -1.8067  1.1760
  456MOL    H7337383   4.937   7.054   0.814 -1.3139 -0.5419 -3.5936
  456MOL    C7437384   5.025   7.266   0.776  0.4830  0.1998  0.1014
  456MOL    O7537385   5.086   7.324   0.889  0.5261 -0.3583 -0.2445
  456MOL    H7637386   5.022   7.332   0.689  3.3464  1.2293  0.7267
  456MOL    H7737387   5.082   7.178   0.746  2.2851  1.9306 -1.7483
  456MOL    C7837388   5.052   7.452   0.900  0.6129 -0.3750  0.3446
  456MOL    O7937389   5.129   7.504   1.007 -0.2559  0.1458 -0.3363
  456MOL    H8037390   4.947   7.480   0.910  0.1898 -1.9757  0.4550
  456MOL    H8137391   5.105   7.490   0.813 -1.2053 -2.2198 -1.6381
  456MOL    H8237392   5.144   7.596   0.992  0.6357  0.5531  2.6747
  457MOL     C137393   3.960   1.751   6.512  0.4555 -0.2285 -0.0888
  457MOL     O237394   4.029   1.875   6.464 -0.0002 -0.3690 -0.2131
  457MOL     H337395   3.996   1.734   6.614  0.2241 -0.8739 -0.1156
  457MOL     H437396   3.851   1.757   6.509  0.3324 -1.5391  1.1315
  457MOL     H537397   4.003   1.670   6.454 -0.4307  0.1498 -1.2802
  457MOL     C637398   4.170   1.868   6.480 -0.3491 -0.6557  0.3719
  457MOL     O737399   4.213   1.785   6.373 -0.4518 -0.2802  0.0999
  457MOL     H837400   4.205   1.819   6.571 -0.1923 -0.3885  0.4553
  457MOL     H937401   4.226   1.960   6.468 -0.6247 -0.4650  0.5499
  457MOL    C1037402   4.346   1.751   6.382  0.0524  0.3289  0.0807
  457MOL    O1137403   4.374   1.674   6.500  0.3534  0.1855  0.0653
  457MOL    H1237404   4.410   1.839   6.394  1.6054 -0.7252 -0.2265
  457MOL    H1337405   4.370   1.699   6.290  0.6337  0.5318  0.1139
  457MOL    C1437406   4.505   1.615   6.500 -0.0945 -0.0567  0.3076
  457MOL    O1537407   4.610   1.701   6.488 -0.1382 -0.5385  0.0092
  457MOL    H1637408   4.512   1.545   6.417 -2.6304  0.8495 -0.7345
  457MOL    H1737409   4.516   1.550   6.587 -0.2439 -0.4487  0.0328
  457MOL    C1837410   4.622   1.800   6.592 -0.4959  0.4354 -0.4374
  457MOL    O1937411   4.676   1.748   6.707  0.3551 -0.0825 -0.5458
  457MOL    H2037412   4.524   1.843   6.615 -0.7513  0.3462 -1.3218
  457MOL    H2137413   4.693   1.876   6.560  2.3192 -2.8071 -2.2311
  457MOL    C2237414   4.807   1.701   6.693  0.5437 -0.5561 -0.0436
  457MOL    O2337415   4.891   1.807   6.661 -0.2694 -0.2941 -0.4496
  457MOL    H2437416   4.809   1.634   6.607 -4.0422 -0.8621 -0.0681
  457MOL    H2537417   4.848   1.640   6.773  1.1700  0.7489  0.6513
  457MOL    C2637418   4.918   1.880   6.776  0.1595  0.3717  0.2306
  457MOL    O2737419   5.004   1.810   6.868 -0.6845 -0.6029 -0.0500
  457MOL    H2837420   4.830   1.907   6.835 -0.6869  0.0354 -0.8537
  457MOL    H2937421   4.968   1.973   6.749  0.7178 -0.3396 -1.1700
  457MOL    C3037422   5.046   1.880   6.982  0.2681 -0.0441  0.4972
  457MOL    O3137423   4.933   1.884   7.069 -0.1749  0.8458 -0.3350
  457MOL    H3237424   5.070   1.981   6.949  0.9223  0.7130  3.1600
  457MOL    H3337425   5.135   1.832   7.021  1.0776 -0.5602 -1.9470
  457MOL    C3437426   4.936   1.994   7.158 -0.1667 -0.4783  0.3053
  457MOL    O3537427   4.935   2.120   7.099  0.3157  0.3161  0.1849
  457MOL    H3637428   5.028   1.977   7.215 -0.2125 -0.7278  0.3047
  457MOL    H3737429   4.859   1.996   7.235  1.0112 -1.0829  1.5316
  457MOL    C3837430   4.807   2.142   7.052  0.3382 -0.5635 -0.5767
  457MOL    O3937431   4.796   2.273   7.002 -0.3486 -0.0691  0.4021
  457MOL    H4037432   4.742   2.149   7.139  0.2271 -1.8107 -0.5581
  457MOL    H4137433   4.775   2.063   6.985 -0.8055 -0.6158  0.0239
  457MOL    C4237434   4.869   2.279   6.886  0.4503  0.0344  0.3229
  457MOL    O4337435   4.816   2.183   6.794 -0.1914  0.0363  0.5230
  457MOL    H4437436   4.972   2.253   6.910 -0.4614 -1.8424  2.2904
  457MOL    H4537437   4.875   2.382   6.851 -0.0975 -0.1809 -0.4157
  457MOL    C4637438   4.704   2.224   6.722  0.0291  0.0425 -0.1928
  457MOL    O4737439   4.681   2.145   6.608  0.4147 -0.2948 -0.3150
  457MOL    H4837440   4.722   2.327   6.692  0.0017  0.4098  1.0415
  457MOL    H4937441   4.617   2.216   6.787  0.8152  1.8448  1.1170
  457MOL    C5037442   4.570   2.182   6.537 -0.1659 -0.0907 -0.0451
  457MOL    O5137443   4.538   2.081   6.446  0.0106  0.0061 -0.1764
  457MOL    H5237444   4.588   2.275   6.484 -1.1813 -0.3222 -0.8072
  457MOL    H5337445   4.482   2.207   6.596 -1.2718 -3.3162 -0.2221
  457MOL    C5437446   4.607   2.085   6.335 -0.6539 -0.1010 -0.5119
  457MOL    O5537447   4.556   2.184   6.249 -0.2245  0.2752  0.1444
  457MOL    H5637448   4.611   1.985   6.292  0.9284  0.1286 -0.9162
  457MOL    H5737449   4.703   2.121   6.370  0.3810 -1.3767 -2.0029
  457MOL    C5837450   4.453   2.134   6.167 -0.4975  0.0365 -0.2686
  457MOL    O5937451   4.504   2.041   6.080  0.1155  0.9400  0.6284
  457MOL    H6037452   4.410   2.219   6.115  2.0043  2.0925  0.9346
  457MOL    H6137453   4.376   2.084   6.226 -0.0592  1.5980  1.6631
  457MOL    C6237454   4.599   2.095   5.991 -0.1092 -0.0351  0.1727
  457MOL    O6337455   4.549   2.197   5.912 -0.5109 -0.3103 -0.2780
  457MOL    H6437456   4.632   2.016   5.924 -2.0777 -0.1729 -0.6739
  457MOL    H6537457   4.684   2.139   6.043 -0.9476  0.8685  0.8187
  457MOL    C6637458   4.458   2.156   5.819 -0.2621  0.0046 -0.1533
  457MOL    O6737459   4.424   2.268   5.739  0.1094 -0.4849  0.4135
  457MOL    H6837460   4.375   2.100   5.862  2.1529 -1.4912  2.7357
  457MOL    H6937461   4.493   2.085   5.744 -1.2180 -0.3830 -0.2424
  457MOL    C7037462   4.523   2.298   5.647  0.6370  0.1207  0.7874
  457MOL    O7137463   4.519   2.210   5.547 -0.0352  0.4549  0.2196
  457MOL    H7237464   4.623   2.288   5.689  0.7483 -0.7264  0.3278
  457MOL    H7337465   4.526   2.399   5.607  0.0015 -0.3169 -0.3851
  457MOL    C7437466   4.409   2.219   5.462  0.3145  0.2139 -0.6738
  457MOL    O7537467   4.414   2.340   5.402  0.3335 -0.0089  0.8103
  457MOL    H7637468   4.326   2.212   5.533 -0.0647  2.3490 -0.8679
  457MOL    H7737469   4.388   2.147   5.383 -0.2735  1.7325 -1.9472
  457MOL    C7837470   4.501   2.338   5.290  0.2391  0.5008 -0.1439
  457MOL    O7937471   4.487   2.434   5.197  0.5136 -0.1441 -0.5422
  457MOL    H8037472   4.487   2.246   5.233  5.2639 -2.3020  2.8133
  457MOL    H8137473   4.604   2.339   5.326 -0.1938 -1.4419  1.2744
  457MOL    H8237474   4.564   2.490   5.205  0.5996 -0.1479 -1.2743
  458MOL     C137475   1.677   0.135   2.094 -0.0701 -0.2963 -0.2246
  458MOL     O237476   1.800   0.197   2.054  0.1883  0.0411 -0.1817
  458MOL     H337477   1.625   0.100   2.005  0.8767 -0.3065 -0.7800
  458MOL     H437478   1.692   0.051   2.162  0.0658 -1.0333 -1.1475
  458MOL     H537479   1.597   0.195   2.137 -0.2745 -0.1530 -0.8070
  458MOL     C637480   1.774   0.308   1.971  0.8719  0.0149  0.0151
  458MOL     O737481   1.728   0.422   2.038 -0.1366  0.2168  0.3271
  458MOL     H837482   1.698   0.283   1.897  0.9351  1.3472 -0.5144
  458MOL     H937483   1.862   0.332   1.911  2.3265 -1.5811  1.4351
  458MOL    C1037484   1.829   0.481   2.110 -0.1198  0.2348 -0.2725
  458MOL    O1137485   1.923   0.541   2.027 -0.1564 -0.8042 -0.1720
  458MOL    H1237486   1.872   0.404   2.174 -1.3805  1.4336  2.0688
  458MOL    H1337487   1.775   0.546   2.178 -0.7394 -0.0136 -0.5234
  458MOL    C1437488   1.864   0.643   1.954  0.0049 -0.3442 -0.1729
  458MOL    O1537489   1.834   0.754   2.032  0.8598 -0.2575 -0.2911
  458MOL    H1637490   1.772   0.610   1.906  0.5816 -0.6752 -1.0697
  458MOL    H1737491   1.925   0.681   1.872 -0.3043 -0.5681 -0.5080
  458MOL    C1837492   1.953   0.828   2.059 -0.1461 -0.8362 -0.3567
  458MOL    O1937493   1.980   0.923   1.959 -0.1987  0.1581  0.1164
  458MOL    H2037494   2.041   0.764   2.069 -0.0359 -0.5998  0.2068
  458MOL    H2137495   1.948   0.884   2.153 -0.7683  1.5649 -1.7865
  458MOL    C2237496   1.903   1.039   1.975  0.4533 -0.0194 -0.1677
  458MOL    O2337497   1.980   1.130   2.042 -0.0946 -0.1743  0.4957
  458MOL    H2437498   1.807   1.019   2.022  0.4236 -2.5489 -1.2540
  458MOL    H2537499   1.870   1.073   1.876 -2.2408 -0.1515  0.6387
  458MOL    C2637500   1.907   1.233   2.098 -0.8530  0.6493  0.2656
  458MOL    O2737501   1.882   1.328   1.998 -0.0650 -0.1403 -0.7523
  458MOL    H2837502   1.965   1.281   2.177 -0.1014 -0.3715  0.3515
  458MOL    H2937503   1.820   1.194   2.150 -0.8028 -0.2300 -0.2953
  458MOL    C3037504   2.002   1.396   1.962 -0.7444  0.1830  0.8816
  458MOL    O3137505   2.022   1.518   2.033  0.0260  0.2771 -0.4605
  458MOL    H3237506   2.000   1.420   1.856  1.2461  1.1749  1.0365
  458MOL    H3337507   2.087   1.329   1.964  1.0300  2.3792  2.2319
  458MOL    C3437508   1.923   1.610   2.017  0.1038 -0.3628 -0.2303
  458MOL    O3537509   1.953   1.728   2.094 -0.3302  0.2740  0.6967
  458MOL    H3637510   1.825   1.570   2.043 -0.4372  0.7797 -0.4780
  458MOL    H3737511   1.913   1.631   1.910  0.4169  2.6456  0.2858
  458MOL    C3837512   1.889   1.841   2.051  0.0953  0.1311 -0.8441
  458MOL    O3937513   1.766   1.864   2.116  0.3452  0.4630 -0.0349
  458MOL    H4037514   1.879   1.844   1.943 -0.7340 -0.1179 -0.7781
  458MOL    H4137515   1.960   1.921   2.072  0.4082 -0.5730  0.8946
  458MOL    C4237516   1.779   1.895   2.249  0.1841 -0.1742  0.9531
  458MOL    O4337517   1.653   1.922   2.299  0.0580  0.4346  0.4314
  458MOL    H4437518   1.845   1.980   2.265 -0.4332  0.2858  1.0828
  458MOL    H4537519   1.808   1.805   2.304  1.5630  0.3629  1.1136
  458MOL    C4637520   1.598   2.033   2.240 -0.3580  0.1931 -0.6554
  458MOL    O4737521   1.689   2.144   2.257  0.2721  0.1485 -0.3673
  458MOL    H4837522   1.496   2.050   2.277 -1.3352 -0.7977 -2.8205
  458MOL    H4937523   1.587   2.016   2.133  0.0514  2.0935 -1.0206
  458MOL    C5037524   1.649   2.230   2.364  0.7155 -0.1335  0.0256
  458MOL    O5137525   1.675   2.180   2.487 -0.2451 -0.2179  0.5502
  458MOL    H5237526   1.543   2.255   2.356  0.4968 -1.2932 -0.8911
  458MOL    H5337527   1.699   2.327   2.357 -3.7185  2.5356  3.0510
  458MOL    C5437528   1.816   2.172   2.511  0.3591  0.0564 -0.2139
  458MOL    O5537529   1.878   2.304   2.537  0.2572 -0.0237  1.0532
  458MOL    H5637530   1.876   2.130   2.431  1.5587 -0.6769  1.0534
  458MOL    H5737531   1.836   2.102   2.592 -1.8923 -0.0864  0.2396
  458MOL    C5837532   1.909   2.342   2.663 -0.4823  0.6059 -0.3746
  458MOL    O5937533   1.984   2.250   2.732  0.4601  0.1734  0.0128
  458MOL    H6037534   1.813   2.357   2.712 -0.5744 -0.8433 -0.0938
  458MOL    H6137535   1.954   2.441   2.654 -1.2318  0.9245 -0.6799
  458MOL    C6237536   2.119   2.253   2.699 -0.2545 -1.0507  0.5291
  458MOL    O6337537   2.192   2.336   2.786  0.2933  0.5534 -0.1516
  458MOL    H6437538   2.137   2.279   2.594  1.1712 -1.4581  0.6553
  458MOL    H6537539   2.168   2.156   2.710  0.2072 -0.8768  0.0798
  458MOL    C6637540   2.176   2.289   2.913 -0.1772 -0.0189 -0.2447
  458MOL    O6737541   2.251   2.176   2.938 -0.2151  0.2402 -0.0355
  458MOL    H6837542   2.071   2.273   2.938  0.5517 -0.8690  2.5373
  458MOL    H6937543   2.214   2.364   2.983  2.2962 -0.4612 -1.0717
  458MOL    C7037544   2.243   2.136   3.070  0.0701 -0.0533 -0.0223
  458MOL    O7137545   2.117   2.090   3.108  0.0852  0.2626  0.2766
  458MOL    H7237546   2.268   2.222   3.132  1.3276 -0.1960 -0.3328
  458MOL    H7337547   2.323   2.067   3.094  0.5150  0.4674 -0.0071
  458MOL    C7437548   2.094   1.968   3.041 -0.4589  0.8805  0.4977
  458MOL    O7537549   1.963   1.927   3.079  0.1083  0.3892  0.0283
  458MOL    H7637550   2.165   1.887   3.060 -0.5659  1.1609  2.1955
  458MOL    H7737551   2.097   1.979   2.933  0.8166  0.1915  0.4500
  458MOL    C7837552   1.945   1.885   3.209  0.0200  0.5269 -0.0988
  458MOL    O7937553   1.806   1.879   3.230 -0.1207  0.1043 -0.0153
  458MOL    H8037554   1.998   1.954   3.275 -0.1026 -0.5474  1.1495
  458MOL    H8137555   1.982   1.783   3.221 -0.9327 -0.1243 -2.4012
  458MOL    H8237556   1.786   1.971   3.240  4.0454  1.2417 -0.9880
  459MOL     C137557   6.658   0.905   5.513 -0.1214  0.2772  0.1716
  459MOL     O237558   6.683   0.802   5.423  0.2104  0.3069 -0.6063
  459MOL     H337559   6.606   0.875   5.604  1.5852 -1.3434  0.6327
  459MOL     H437560   6.754   0.945   5.545  0.1997 -0.6859  0.4408
  459MOL     H537561   6.604   0.982   5.459  1.0116  0.3497 -0.8875
  459MOL     C637562   6.592   0.762   5.329 -0.3001  0.8515  0.1579
  459MOL     O737563   6.487   0.714   5.402  0.1862 -0.0448  0.7412
  459MOL     H837564   6.625   0.684   5.260 -0.0664 -0.0670  1.2856
  459MOL     H937565   6.561   0.847   5.268 -0.2669  0.0253 -1.0433
  459MOL    C1037566   6.500   0.588   5.450  0.1035  0.2897 -0.3568
  459MOL    O1137567   6.380   0.543   5.494  0.9411 -0.5438 -0.0884
  459MOL    H1237568   6.577   0.592   5.528  1.4927  2.1564 -1.7813
  459MOL    H1337569   6.535   0.515   5.377 -1.1162  1.3045 -1.9902
  459MOL    C1437570   6.292   0.535   5.391  0.4925  0.0941 -0.1015
  459MOL    O1537571   6.169   0.599   5.423 -0.6283  0.3838  0.4625
  459MOL    H1637572   6.289   0.427   5.373 -0.0796  0.3704 -1.8163
  459MOL    H1737573   6.333   0.584   5.302  3.1375 -0.1762  0.9314
  459MOL    C1837574   6.054   0.532   5.378 -0.4271  0.1884  0.4584
  459MOL    O1937575   6.042   0.521   5.234  0.3864 -0.2804  0.2630
  459MOL    H2037576   5.965   0.581   5.417  0.1098  2.4029 -0.9918
  459MOL    H2137577   6.058   0.435   5.428 -0.5238  0.3010  0.6854
  459MOL    C2237578   6.008   0.639   5.174  0.1677  0.6711 -0.3555
  459MOL    O2337579   5.869   0.671   5.181 -0.0295  0.3624  0.2997
  459MOL    H2437580   6.036   0.642   5.069  2.9651  0.6124  0.3406
  459MOL    H2537581   6.061   0.726   5.212 -1.5095  0.4187  2.7325
  459MOL    C2637582   5.787   0.579   5.116  0.2751 -0.1187 -0.3053
  459MOL    O2737583   5.775   0.609   4.985 -0.0718  0.1257  1.0203
  459MOL    H2837584   5.697   0.596   5.176  0.9772  0.5805  0.5722
  459MOL    H2937585   5.817   0.476   5.134  2.2954  0.2837 -1.3025
  459MOL    C3037586   5.695   0.725   4.955 -0.9581 -0.1461 -0.1574
  459MOL    O3137587   5.564   0.714   5.009  0.0927  0.3679  0.2865
  459MOL    H3237588   5.708   0.752   4.851  0.3296  1.0598  0.3078
  459MOL    H3337589   5.746   0.805   5.009  0.9618 -2.0413  0.9053
  459MOL    C3437590   5.479   0.655   4.926 -0.4653  0.2705 -0.1472
  459MOL    O3537591   5.448   0.721   4.808 -0.9819  0.7087  0.2024
  459MOL    H3637592   5.385   0.630   4.974 -0.6689 -2.4414 -1.8249
  459MOL    H3737593   5.515   0.555   4.902  1.0481  0.9395 -0.7319
  459MOL    C3837594   5.350   0.820   4.828 -0.0583 -0.2436 -0.2211
  459MOL    O3937595   5.237   0.764   4.877  0.4806 -0.1973 -0.1007
  459MOL    H4037596   5.335   0.881   4.739  0.5668  0.9796  0.5143
  459MOL    H4137597   5.388   0.888   4.904  0.8701 -1.9836  0.9103
  459MOL    C4237598   5.137   0.862   4.916  0.4350  0.5321 -0.0340
  459MOL    O4337599   5.080   0.930   4.808  0.1625  0.3574 -0.6308
  459MOL    H4437600   5.178   0.938   4.982  0.6289 -0.5997  1.1589
  459MOL    H4537601   5.065   0.809   4.978  3.4974 -2.9693  0.7293
  459MOL    C4637602   5.013   0.850   4.705 -0.6573 -0.5072  0.0771
  459MOL    O4737603   4.919   0.757   4.745 -0.4588 -0.3477 -0.3833
  459MOL    H4837604   5.100   0.814   4.649 -1.3269 -1.2897 -0.4835
  459MOL    H4937605   4.971   0.902   4.619  0.3159 -0.2110 -0.2307
  459MOL    C5037606   4.805   0.814   4.805 -0.4139  0.2004  0.0173
  459MOL    O5137607   4.734   0.892   4.716 -0.0045  0.0126 -0.3598
  459MOL    H5237608   4.833   0.880   4.887  1.6048  0.2612 -0.7139
  459MOL    H5337609   4.735   0.741   4.846  0.8872 -0.3185  1.3440
  459MOL    C5437610   4.677   0.824   4.609  0.7226 -0.7941 -0.9992
  459MOL    O5537611   4.626   0.914   4.511 -0.5091  0.6585  0.3839
  459MOL    H5637612   4.611   0.750   4.653  0.5722 -1.8925 -3.0204
  459MOL    H5737613   4.750   0.764   4.556  0.1170 -0.4783 -2.2118
  459MOL    C5837614   4.496   0.939   4.547 -0.2200  0.0408 -0.4509
  459MOL    O5937615   4.408   0.829   4.529  0.0440 -0.2909 -0.6955
  459MOL    H6037616   4.473   1.020   4.478 -0.7211 -0.0371 -0.3734
  459MOL    H6137617   4.480   0.972   4.649  0.4555 -1.4427  0.1484
  459MOL    C6237618   4.273   0.866   4.539 -0.0880 -0.1766  0.1576
  459MOL    O6337619   4.245   0.921   4.666 -0.5781  0.0662  0.4331
  459MOL    H6437620   4.207   0.782   4.517 -0.5661  0.0006  0.8781
  459MOL    H6537621   4.252   0.941   4.463  1.7865  0.2047 -0.0146
  459MOL    C6637622   4.255   0.817   4.767 -0.1405  0.0022 -0.5322
  459MOL    O6737623   4.386   0.783   4.812  0.3228 -0.6123 -0.1032
  459MOL    H6837624   4.210   0.724   4.734  0.0757 -0.9289  1.6538
  459MOL    H6937625   4.195   0.846   4.854  0.3553 -0.8111  0.0914
  459MOL    C7037626   4.426   0.873   4.916 -0.6834 -0.9594  0.1273
  459MOL    O7137627   4.406   0.815   5.041 -0.0381 -0.1173 -0.5676
  459MOL    H7237628   4.380   0.970   4.929  1.0302 -0.4010  2.2421
  459MOL    H7337629   4.529   0.904   4.895 -0.5968 -2.4217 -1.7519
  459MOL    C7437630   4.486   0.697   5.063 -0.4092 -0.8771  0.3210
  459MOL    O7537631   4.623   0.721   5.068  0.0066  0.3589  0.1945
  459MOL    H7637632   4.473   0.625   4.982  1.5975  0.0575 -0.8562
  459MOL    H7737633   4.450   0.650   5.155 -0.6571  0.6775  1.0321
  459MOL    C7837634   4.658   0.786   5.176  0.5195  0.1610 -0.2897
  459MOL    O7937635   4.798   0.814   5.169 -0.2260 -0.4642  0.3549
  459MOL    H8037636   4.638   0.718   5.259  0.1816 -1.1308 -1.4157
  459MOL    H8137637   4.602   0.879   5.180 -1.8406 -1.1939 -0.6714
  459MOL    H8237638   4.843   0.734   5.191 -0.7158 -1.4692 -2.1113
  460MOL     C137639   2.956   4.443   5.595  0.0566 -0.0489  0.6884
  460MOL     O237640   2.811   4.458   5.578  0.3060 -0.1380  0.6517
  460MOL     H337641   3.003   4.500   5.514 -1.4156  1.6676  0.9998
  460MOL     H437642   2.990   4.478   5.692  1.6998 -1.2088  0.5495
  460MOL     H537643   2.985   4.338   5.595 -1.1098 -0.3809 -0.4910
  460MOL     C637644   2.740   4.439   5.696  0.0602  0.2305 -0.0504
  460MOL     O737645   2.729   4.307   5.721  0.4122  0.1719 -0.3556
  460MOL     H837646   2.641   4.486   5.698 -0.9175 -1.8098  1.8316
  460MOL     H937647   2.790   4.478   5.785 -1.5962 -1.4877  1.6779
  460MOL    C1037648   2.649   4.243   5.633  0.4431  0.4135 -0.1060
  460MOL    O1137649   2.515   4.236   5.671  0.1834 -0.2934  0.5853
  460MOL    H1237650   2.698   4.147   5.626  0.5313  0.3051  1.6824
  460MOL    H1337651   2.644   4.283   5.532  1.1412 -0.0009 -0.3005
  460MOL    C1437652   2.484   4.151   5.777 -0.0389  0.1579  0.9796
  460MOL    O1537653   2.502   4.015   5.749 -0.0416  0.3196 -0.5887
  460MOL    H1637654   2.376   4.167   5.781 -0.0016  1.0787 -0.8444
  460MOL    H1737655   2.534   4.183   5.868  0.2325  0.2741  0.7926
  460MOL    C1837656   2.510   3.946   5.865  0.3544 -0.2349 -1.1938
  460MOL    O1937657   2.640   3.937   5.905  0.2518 -0.1781  0.0971
  460MOL    H2037658   2.457   3.851   5.865 -2.7312  1.3912  1.2564
  460MOL    H2137659   2.461   4.006   5.942  0.8080 -2.6340  1.0228
  460MOL    C2237660   2.706   3.823   5.856 -0.4018 -0.4396 -0.4797
  460MOL    O2337661   2.845   3.831   5.861  0.2992 -0.3517  0.5573
  460MOL    H2437662   2.682   3.806   5.751 -0.0551 -0.6869 -0.5191
  460MOL    H2537663   2.669   3.745   5.923  1.9918 -0.6975  0.5800
  460MOL    C2637664   2.893   3.919   5.763  0.0287  0.4707 -0.1771
  460MOL    O2737665   2.889   3.855   5.630  0.1049  0.0842  0.0215
  460MOL    H2837666   2.994   3.949   5.790 -0.0071  0.9701 -0.5802
  460MOL    H2937667   2.831   4.009   5.759  0.3624  0.7621  0.9042
  460MOL    C3037668   2.943   3.931   5.525  0.4496  0.8758 -0.0961
  460MOL    O3137669   3.081   3.916   5.517 -0.1809  0.5491 -0.0523
  460MOL    H3237670   2.898   4.030   5.530  0.1378  0.7378 -0.1099
  460MOL    H3337671   2.897   3.886   5.437 -2.8664  0.5881  1.7014
  460MOL    C3437672   3.147   4.044   5.532 -0.2938 -0.2811  0.1508
  460MOL    O3537673   3.192   4.061   5.665  0.2143 -0.0561  0.0517
  460MOL    H3637674   3.092   4.136   5.514  0.0099 -0.5092 -2.1895
  460MOL    H3737675   3.234   4.034   5.467 -0.5842  1.3548 -0.5185
  460MOL    C3837676   3.287   3.971   5.701 -0.3913 -0.6095  0.0300
  460MOL    O3937677   3.351   4.022   5.815 -0.4806  0.7727  0.4518
  460MOL    H4037678   3.368   3.948   5.632 -0.1931  1.9115 -0.6144
  460MOL    H4137679   3.249   3.872   5.725  0.3384 -0.7376  0.6809
  460MOL    C4237680   3.272   4.020   5.924 -0.3344 -0.1645  0.3947
  460MOL    O4337681   3.286   4.139   5.999  0.0251  0.0645  0.1456
  460MOL    H4437682   3.300   3.946   6.000  0.7015 -0.8064 -0.5908
  460MOL    H4537683   3.168   4.004   5.897 -0.6551  1.1042  0.8426
  460MOL    C4637684   3.211   4.248   5.942 -0.1200 -0.3870  0.2424
  460MOL    O4737685   3.072   4.225   5.935 -0.0183  0.3913 -0.5123
  460MOL    H4837686   3.239   4.265   5.838 -2.2063 -1.2837 -0.4939
  460MOL    H4937687   3.236   4.337   5.999  2.7942 -1.1371  0.2504
  460MOL    C5037688   3.006   4.223   6.056 -0.8810  0.1086  0.1973
  460MOL    O5137689   2.896   4.309   6.056  0.2276 -0.5324  0.1882
  460MOL    H5237690   3.071   4.258   6.136  1.4615  1.2951 -2.1420
  460MOL    H5337691   2.971   4.121   6.069 -0.1945  0.0080  1.2784
  460MOL    C5437692   2.778   4.255   5.997 -0.0851 -0.3660  0.1837
  460MOL    O5537693   2.724   4.162   6.085 -0.3664  0.2378 -0.5382
  460MOL    H5637694   2.798   4.186   5.915  0.6740  0.5240 -0.4011
  460MOL    H5737695   2.711   4.335   5.965 -1.4025 -1.9876 -1.1970
  460MOL    C5837696   2.652   4.219   6.183  0.2358 -0.3268  0.4908
  460MOL    O5937697   2.517   4.257   6.142  0.6815  0.2782 -0.4861
  460MOL    H6037698   2.703   4.309   6.217 -0.2689  0.0639  0.2106
  460MOL    H6137699   2.653   4.136   6.254  0.9433 -0.3910  0.4022
  460MOL    C6237700   2.426   4.156   6.180 -0.0751 -0.2549  0.3212
  460MOL    O6337701   2.314   4.171   6.098 -0.1666  0.3783 -0.0674
  460MOL    H6437702   2.396   4.143   6.284  1.5881 -0.8187  0.7456
  460MOL    H6537703   2.450   4.053   6.157 -0.3011  0.2672 -2.3533
  460MOL    C6637704   2.250   4.291   6.123 -1.0182 -0.2983  0.2504
  460MOL    O6737705   2.183   4.298   6.243 -0.6132 -0.2014 -0.1395
  460MOL    H6837706   2.170   4.300   6.050 -4.0770 -0.0379  3.4671
  460MOL    H6937707   2.314   4.378   6.117 -0.8761 -0.5177 -1.8066
  460MOL    C7037708   2.052   4.247   6.243  0.7529  0.4525  0.2480
  460MOL    O7137709   1.965   4.324   6.167  0.3352  0.1726 -0.5665
  460MOL    H7237710   2.016   4.242   6.346  1.5763  4.1227  0.7825
  460MOL    H7337711   2.054   4.142   6.214 -0.3992  0.2644  0.8171
  460MOL    C7437712   1.959   4.455   6.209  0.5241 -0.5845 -0.3613
  460MOL    O7537713   1.895   4.473   6.328  0.4127 -0.4986 -0.2835
  460MOL    H7637714   1.910   4.524   6.139 -0.5864  1.4262  2.2750
  460MOL    H7737715   2.057   4.501   6.221  0.5292 -0.0848 -2.2060
  460MOL    C7837716   1.759   4.456   6.316 -0.3026 -0.0637  0.1776
  460MOL    O7937717   1.686   4.541   6.408 -0.4929 -0.2037 -0.0262
  460MOL    H8037718   1.723   4.353   6.324 -0.7070  0.0306 -0.3697
  460MOL    H8137719   1.718   4.486   6.220  1.8250 -1.1447 -1.1163
  460MOL    H8237720   1.723   4.529   6.494 -0.1504 -2.6834 -0.4662
  461MOL     C137721   1.316   1.792   1.037  0.1275  0.8752  1.1119
  461MOL     O237722   1.335   1.666   0.976  0.1864  0.4095  0.1808
  461MOL     H337723   1.258   1.780   1.129 -3.4177  0.7000 -1.0256
  461MOL     H437724   1.410   1.840   1.065  0.5653  0.6050  0.1291
  461MOL     H537725   1.257   1.874   0.996 -1.2073  0.5106  2.2530
  461MOL     C637726   1.437   1.649   0.879 -0.1283  0.0727 -0.1279
  461MOL     O737727   1.438   1.520   0.829 -0.3254 -0.3129  0.1851
  461MOL     H837728   1.533   1.680   0.921 -0.1906 -0.7716  0.6568
  461MOL     H937729   1.403   1.724   0.807 -1.6077 -0.7247 -0.2729
  461MOL    C1037730   1.317   1.480   0.766  0.1088 -0.1699  0.5682
  461MOL    O1137731   1.281   1.566   0.662 -0.2879 -0.2082  0.1856
  461MOL    H1237732   1.236   1.472   0.839  0.4269 -0.3751  0.8953
  461MOL    H1337733   1.350   1.384   0.729  2.1603  0.5394  0.4938
  461MOL    C1437734   1.360   1.547   0.542  0.1748  0.7608 -0.3918
  461MOL    O1537735   1.348   1.663   0.467  0.0295  0.2148  0.0689
  461MOL    H1637736   1.330   1.462   0.480  0.7387  0.3152 -0.0601
  461MOL    H1737737   1.460   1.518   0.572  0.0084  1.0134  0.4297
  461MOL    C1837738   1.451   1.746   0.499  0.2230  0.4281 -0.0010
  461MOL    O1937739   1.578   1.704   0.445  0.4936 -0.0232 -0.5449
  461MOL    H2037740   1.472   1.748   0.606 -0.4064 -0.5128  0.1511
  461MOL    H2137741   1.427   1.850   0.476 -2.0008 -0.4109 -1.7239
  461MOL    C2237742   1.577   1.712   0.305 -0.4280 -0.0056 -0.0999
  461MOL    O2337743   1.683   1.643   0.250  0.7256  0.1027  0.6215
  461MOL    H2437744   1.599   1.818   0.288 -0.3603 -0.0509 -0.2850
  461MOL    H2537745   1.487   1.692   0.248  0.2607 -1.3589 -0.7213
  461MOL    C2637746   1.657   1.506   0.264  0.3956 -0.1382 -0.3362
  461MOL    O2737747   1.747   1.429   0.204 -0.2843 -0.1864  0.1725
  461MOL    H2837748   1.561   1.468   0.229 -0.6990  0.2139  2.1748
  461MOL    H2937749   1.672   1.482   0.370  2.3056 -1.5226 -0.9045
  461MOL    C3037750   1.739   1.431   0.067 -0.3804 -0.4707  0.8325
  461MOL    O3137751   1.650   1.335   0.033 -0.1229  0.3453 -0.2489
  461MOL    H3237752   1.835   1.399   0.026 -0.4624  0.3590 -0.0148
  461MOL    H3337753   1.716   1.532   0.034 -1.3097 -0.5596  1.1997
  461MOL    C3437754   1.629   1.326   7.681 -0.4226 -0.9398  0.1938
  461MOL    O3537755   1.535   1.220   7.659  0.3065 -0.1659  0.3104
  461MOL    H3637756   1.712   1.324   7.611 -0.5048  2.4966 -0.0614
  461MOL    H3737757   1.586   1.420   7.646  0.8314 -0.1625  0.7181
  461MOL    C3837758   1.596   1.097   7.648  0.7338  0.6187 -0.4181
  461MOL    O3937759   1.699   1.091   7.559  1.1659 -0.0855  0.5448
  461MOL    H4037760   1.520   1.018   7.652 -1.5132  2.8318  3.5500
  461MOL    H4137761   1.633   1.084   7.750 -2.1367 -1.8976  0.3912
  461MOL    C4237762   1.661   1.110   7.423  0.1199 -1.3132  0.8135
  461MOL    O4337763   1.774   1.103   7.336  0.3358 -0.3172  0.3612
  461MOL    H4437764   1.602   1.201   7.412  1.0274 -0.8579 -0.3079
  461MOL    H4537765   1.593   1.030   7.392 -0.1506  0.1945 -2.7315
  461MOL    C4637766   1.856   1.214   7.345  0.8017  0.0778 -0.3508
  461MOL    O4737767   1.936   1.227   7.228  0.1049  0.1006  0.3871
  461MOL    H4837768   1.913   1.206   7.438  0.2445 -1.3523 -0.1069
  461MOL    H4937769   1.797   1.305   7.352  0.9045  0.1289 -0.1427
  461MOL    C5037770   2.057   1.157   7.243 -0.6703 -0.5256 -0.3777
  461MOL    O5137771   2.136   1.215   7.338 -0.2730  0.4255 -0.0399
  461MOL    H5237772   2.101   1.142   7.145  0.4826  0.5224 -0.0413
  461MOL    H5337773   2.033   1.062   7.290  0.7949 -0.7911 -0.1367
  461MOL    C5437774   2.272   1.186   7.319  1.0000 -0.1851 -0.1696
  461MOL    O5537775   2.323   1.243   7.201  0.2728  0.6405  0.4057
  461MOL    H5637776   2.288   1.078   7.331 -0.1718 -0.2125  1.1907
  461MOL    H5737777   2.324   1.218   7.409 -2.2415 -1.2338  2.1779
  461MOL    C5837778   2.316   1.376   7.194  0.0269 -0.3898 -0.0779
  461MOL    O5937779   2.414   1.432   7.272  0.3816  0.6743  0.5218
  461MOL    H6037780   2.216   1.409   7.221  0.3694  0.1584  0.5543
  461MOL    H6137781   2.328   1.405   7.090  2.7592  1.7044  0.7561
  461MOL    C6237782   2.447   1.563   7.239  0.3779 -0.0829  0.5775
  461MOL    O6337783   2.497   1.572   7.107 -0.2009 -0.2129  0.2209
  461MOL    H6437784   2.528   1.583   7.309  2.2437 -0.7340 -1.3319
  461MOL    H6537785   2.364   1.634   7.241  0.6973  0.3332 -0.4426
  461MOL    C6637786   2.638   1.554   7.105 -0.3468 -0.2241  0.2740
  461MOL    O6737787   2.709   1.655   7.175  0.6817 -0.7432 -0.4721
  461MOL    H6837788   2.675   1.559   7.003 -1.9479 -2.4015 -0.4372
  461MOL    H6937789   2.668   1.461   7.153 -2.0841  0.1113  2.0911
  461MOL    C7037790   2.709   1.778   7.112 -0.0941  1.0942  0.1467
  461MOL    O7137791   2.767   1.867   7.196 -0.0614 -0.1110  0.7609
  461MOL    H7237792   2.608   1.816   7.092 -1.4949 -1.8493  1.3012
  461MOL    H7337793   2.769   1.764   7.022  0.5786 -0.1382  0.7788
  461MOL    C7437794   2.684   1.910   7.304 -0.3044  0.0068  0.8790
  461MOL    O7537795   2.580   1.993   7.262  0.1967  0.1868 -0.3997
  461MOL    H7637796   2.757   1.962   7.367 -0.3823  0.8722  0.2681
  461MOL    H7737797   2.653   1.822   7.359  0.5493 -0.8676 -0.0100
  461MOL    C7837798   2.625   2.107   7.205  0.2175 -0.9037  0.0388
  461MOL    O7937799   2.518   2.186   7.160 -0.2557 -0.2150  0.1277
  461MOL    H8037800   2.683   2.087   7.115 -0.9215  0.0935 -0.9421
  461MOL    H8137801   2.680   2.163   7.281 -0.5243 -0.2843  0.1242
  461MOL    H8237802   2.529   2.273   7.196  1.5188 -0.9147  1.3152
  462MOL     C137803   6.783   0.256   1.857  0.3406 -0.1656  0.6152
  462MOL     O237804   6.662   0.183   1.834 -0.0347 -0.7895  0.8944
  462MOL     H337805   6.805   0.304   1.761  3.3212 -0.7839  0.9315
  462MOL     H437806   6.774   0.336   1.930 -0.0748 -0.2246  0.6309
  462MOL     H537807   6.866   0.192   1.885  1.4498  0.7560 -0.4786
  462MOL     C637808   6.607   0.125   1.947 -0.6789  0.1002 -0.0939
  462MOL     O737809   6.689   0.033   2.003 -0.1846 -0.3831 -0.1396
  462MOL     H837810   6.508   0.088   1.921 -1.1627  1.3451 -0.0600
  462MOL     H937811   6.574   0.206   2.011  0.4124  0.7072 -0.2796
  462MOL    C1037812   6.690   7.699   1.939 -0.5454 -0.5376  0.0611
  462MOL    O1137813   6.782   7.705   1.833  0.6878 -0.2616 -0.1043
  462MOL    H1237814   6.593   7.664   1.905 -1.2674  1.0339  0.4701
  462MOL    H1337815   6.735   7.630   2.011 -3.4175 -1.5335  0.9589
  462MOL    C1437816   6.909   7.701   1.875 -0.9050  0.1047  0.4464
  462MOL    O1537817   6.950   7.578   1.913  0.2418  0.3660 -0.1378
  462MOL    H1637818   6.923   7.764   1.963  0.4311 -2.6442  2.2598
  462MOL    H1737819   6.976   7.740   1.799 -2.5880  0.2199 -1.0312
  462MOL    C1837820   7.083   7.573   1.968 -0.6720 -0.0476 -0.7290
  462MOL    O1937821   7.079   7.628   2.097  0.0329 -0.1626  0.1625
  462MOL    H2037822   7.144   7.643   1.910  0.5287  1.0048  1.7674
  462MOL    H2137823   7.124   7.472   1.961 -0.7738 -0.2293  1.1572
  462MOL    C2237824   7.185   7.594   2.177 -0.0491 -0.4260 -0.7022
  462MOL    O2337825   7.208   7.458   2.198  0.0101  0.6865 -0.0896
  462MOL    H2437826   7.168   7.642   2.274 -2.0176  0.0865 -1.2771
  462MOL    H2537827   7.275   7.627   2.127  0.9846 -2.1767 -0.0539
  462MOL    C2637828   7.104   7.384   2.264  0.0990  0.1662  0.1102
  462MOL    O2737829   7.144   7.276   2.340 -0.1794  0.2318 -0.4957
  462MOL    H2837830   7.020   7.348   2.204 -0.9898  0.8157  1.2211
  462MOL    H2937831   7.040   7.450   2.323 -1.7232 -0.8813 -0.6483
  462MOL    C3037832   7.203   7.177   2.257  0.8114 -0.1811 -0.1395
  462MOL    O3137833   7.110   7.126   2.169  0.0343 -0.1408 -0.3094
  462MOL    H3237834   7.244   7.102   2.325  1.2150  0.1247 -0.0441
  462MOL    H3337835   7.281   7.222   2.197  1.0051 -0.4185 -0.0658
  462MOL    C3437836   7.163   7.027   2.094 -0.3466  0.0127  0.5696
  462MOL    O3537837   7.250   7.084   2.002  0.4664  0.1521  0.3717
  462MOL    H3637838   7.089   6.971   2.037  2.7225 -0.8699 -2.7279
  462MOL    H3737839   7.215   6.952   2.155 -0.3086  0.7486  1.4571
  462MOL    C3837840   7.178   7.134   1.888 -0.1713  0.1337 -0.3246
  462MOL    O3937841   7.131   7.040   1.800  0.0513  0.1931  1.1621
  462MOL    H4037842   7.237   7.216   1.847  0.1865  0.1485  0.2118
  462MOL    H4137843   7.086   7.183   1.921 -0.2515  1.0886 -1.8797
  462MOL    C4237844   7.232   7.001   1.708  0.5817  0.9972 -0.3371
  462MOL    O4337845   7.285   7.099   1.629  0.2980 -0.0259  0.6826
  462MOL    H4437846   7.189   6.927   1.641 -0.2866  0.4865  0.7680
  462MOL    H4537847   7.312   6.959   1.768 -0.9897  1.0570  1.9010
  462MOL    C4637848   7.193   7.162   1.542 -0.0151 -0.4595 -0.1459
  462MOL    O4737849   7.136   7.270   1.601 -0.2287  1.0515 -0.1105
  462MOL    H4837850   7.115   7.095   1.508  0.2363 -0.9914  0.3125
  462MOL    H4937851   7.252   7.192   1.456  2.1906  0.5214  1.6340
  462MOL    C5037852   7.223   7.377   1.611 -0.4360  0.1699  0.1159
  462MOL    O5137853   7.214   7.466   1.506 -0.7180 -0.1648 -0.2815
  462MOL    H5237854   7.328   7.358   1.636 -1.2005 -0.8726  2.7463
  462MOL    H5337855   7.212   7.440   1.699 -2.0100  2.5072 -1.7016
  462MOL    C5437856   7.096   7.547   1.511 -0.4169  0.2148 -0.0738
  462MOL    O5537857   7.087   7.643   1.601  0.3875 -0.2479  0.3637
  462MOL    H5637858   7.022   7.469   1.528  0.6098 -0.8155 -0.3368
  462MOL    H5737859   7.076   7.587   1.411 -3.0434  1.7371  1.0204
  462MOL    C5837860   7.193   7.737   1.578 -0.0837 -0.2756 -0.3050
  462MOL    O5937861   7.162   0.043   1.476 -0.4164  0.1717  0.2565
  462MOL    H6037862   7.281   7.685   1.540 -0.1010  0.1278 -0.9088
  462MOL    H6137863   7.225   0.010   1.666  0.4802 -1.3277  0.1698
  462MOL    C6237864   7.060   0.136   1.504 -0.1438 -0.5621  0.0552
  462MOL    O6337865   7.106   0.253   1.571 -0.2862 -0.3058  0.0329
  462MOL    H6437866   6.992   0.089   1.575 -1.8576 -0.8615 -1.7606
  462MOL    H6537867   6.992   0.149   1.420  0.1850 -0.2284 -0.1593
  462MOL    C6637868   7.152   0.348   1.488 -0.1928  1.1361  0.2475
  462MOL    O6737869   7.062   0.390   1.397 -0.1367  0.1562  0.0881
  462MOL    H6837870   7.227   0.311   1.418  2.0170  1.5682  2.3266
  462MOL    H6937871   7.188   0.426   1.554  0.3026 -0.7319  2.2387
  462MOL    C7037872   6.988   0.496   1.456 -0.1867  0.3516 -0.5763
  462MOL    O7137873   6.875   0.526   1.375 -0.2263  0.9172 -0.4176
  462MOL    H7237874   7.060   0.577   1.470  0.5206 -0.5497  1.1765
  462MOL    H7337875   6.966   0.473   1.560  1.7253 -3.1368 -0.8520
  462MOL    C7437876   6.761   0.463   1.415  0.2789 -0.4369 -0.1040
  462MOL    O7537877   6.718   0.518   1.536 -0.2436  0.1709 -0.4332
  462MOL    H7637878   6.772   0.355   1.427  1.8253 -0.4052 -1.0256
  462MOL    H7737879   6.691   0.482   1.334 -0.2017 -1.7984 -0.0148
  462MOL    C7837880   6.665   0.647   1.518  0.6450  0.6719  0.3899
  462MOL    O7937881   6.635   0.704   1.641  0.0810 -0.0530  0.5447
  462MOL    H8037882   6.574   0.654   1.458 -0.4098  3.0347  2.1989
  462MOL    H8137883   6.743   0.711   1.475  0.8038  0.3295  0.1638
  462MOL    H8237884   6.570   0.648   1.680  1.2421 -1.6320  0.2873
  463MOL     C137885   1.416   0.143   6.653  0.0733  0.1224 -0.0201
  463MOL     O237886   1.420   0.220   6.774  0.1174  0.1564  0.0545
  463MOL     H337887   1.484   0.058   6.650  0.6116  0.5055  0.9005
  463MOL     H437888   1.318   0.097   6.644  0.2479 -0.4259  0.7793
  463MOL     H537889   1.423   0.211   6.568 -0.6555  0.9827  0.5970
  463MOL     C637890   1.375   0.144   6.882 -0.4746  0.3773  0.3191
  463MOL     O737891   1.430   0.019   6.870 -0.0215 -0.1213  0.1919
  463MOL     H837892   1.267   0.139   6.871 -0.3989 -2.6100  0.4174
  463MOL     H937893   1.397   0.200   6.972 -0.9956  0.8115  0.1776
  463MOL    C1037894   1.362   7.703   6.937 -0.2658  0.0611 -0.1177
  463MOL    O1137895   1.228   7.679   6.899 -0.0600 -0.8701 -0.4290
  463MOL    H1237896   1.357   7.722   7.044 -0.9979  1.3742 -0.3784
  463MOL    H1337897   1.426   7.615   6.933  1.2615  1.2421 -3.7973
  463MOL    C1437898   1.209   7.579   6.803 -0.2656 -0.3738 -0.2026
  463MOL    O1537899   1.197   7.453   6.865 -0.0112  0.2640  0.8629
  463MOL    H1637900   1.297   7.573   6.739  2.3840  0.5381  3.1486
  463MOL    H1737901   1.126   7.603   6.737 -0.7281 -0.4117  0.3570
  463MOL    C1837902   1.073   7.438   6.930 -0.7791 -0.2592  0.4811
  463MOL    O1937903   0.978   7.383   6.839  0.2601  0.7067 -0.4388
  463MOL    H2037904   1.030   7.527   6.976 -1.8680  0.9068 -2.6546
  463MOL    H2137905   1.086   7.371   7.014 -1.2447 -0.9816 -0.0104
  463MOL    C2237906   1.024   7.259   6.802 -0.2360  0.0508 -0.5857
  463MOL    O2337907   0.941   7.207   6.703 -0.0805  0.0938  0.2614
  463MOL    H2437908   1.023   7.198   6.892  1.6868  2.5821  1.2545
  463MOL    H2537909   1.121   7.267   6.753 -0.0001 -3.6445 -0.8657
  463MOL    C2637910   0.926   7.272   6.575 -0.0936  0.3492 -0.5975
  463MOL    O2737911   1.028   7.249   6.484  0.1679  0.2345 -0.3016
  463MOL    H2837912   0.896   7.376   6.588 -0.4379  0.1993 -0.1849
  463MOL    H2937913   0.836   7.224   6.537 -1.5239  2.0639  0.5088
  463MOL    C3037914   1.013   7.336   6.377 -0.1609  0.1445  0.1710
  463MOL    O3137915   1.045   7.476   6.406 -0.1245  0.5600  0.3146
  463MOL    H3237916   0.914   7.326   6.334  1.2545 -1.2106 -2.9645
  463MOL    H3337917   1.072   7.293   6.295 -1.2642 -0.7157 -0.1748
  463MOL    C3437918   1.173   7.512   6.367  0.1482  0.3736  0.0644
  463MOL    O3537919   1.175   7.575   6.244  0.3003 -0.0118 -0.5749
  463MOL    H3637920   1.239   7.426   6.361 -0.8087 -0.4503  1.0107
  463MOL    H3737921   1.211   7.559   6.457  3.0585  0.2430 -1.0678
  463MOL    C3837922   1.106   7.701   6.252  0.3742  0.9911  0.5671
  463MOL    O3937923   1.190   7.781   6.331  0.2261  0.2485 -0.4191
  463MOL    H4037924   1.009   7.690   6.301 -0.6552 -1.6079 -1.8878
  463MOL    H4137925   1.099   7.741   6.151  2.6241  0.0783  0.0327
  463MOL    C4237926   1.305   0.039   6.267 -0.7664  0.4918  0.4695
  463MOL    O4337927   1.289   0.126   6.162 -0.2866 -0.3074  0.1271
  463MOL    H4437928   1.360   7.737   6.229 -4.8767 -1.3094 -1.8584
  463MOL    H4537929   1.368   0.082   6.344  0.3888 -0.8672  0.3054
  463MOL    C4637930   1.218   0.242   6.195 -0.0535 -0.4279  0.2643
  463MOL    O4737931   1.275   0.325   6.290 -0.4381 -0.3655  0.6224
  463MOL    H4837932   1.117   0.215   6.228 -0.7314 -2.1229 -2.9602
  463MOL    H4937933   1.210   0.300   6.103  0.4775  0.7285  0.9343
  463MOL    C5037934   1.391   0.393   6.243  0.5195  0.2141 -0.0434
  463MOL    O5137935   1.360   0.495   6.154 -0.3713  0.3141 -0.3425
  463MOL    H5237936   1.454   0.322   6.189  0.1101 -1.8499  2.1188
  463MOL    H5337937   1.450   0.432   6.326 -2.1531 -0.1441  2.0945
  463MOL    C5437938   1.296   0.599   6.216  0.3072 -0.0444  0.5429
  463MOL    O5537939   1.274   0.699   6.123  0.0356 -0.5502 -0.3151
  463MOL    H5637940   1.345   0.634   6.306 -0.4848 -0.6378  1.2147
  463MOL    H5737941   1.193   0.565   6.233 -0.5337  1.3856 -1.5539
  463MOL    C5837942   1.392   0.762   6.092  0.5628 -0.2315 -0.1597
  463MOL    O5937943   1.369   0.873   6.005  0.7155  1.1774  0.3730
  463MOL    H6037944   1.452   0.685   6.044  0.7741 -0.3132  0.2317
  463MOL    H6137945   1.456   0.788   6.177 -0.9396  0.1588  0.8733
  463MOL    C6237946   1.364   0.838   5.870  0.2784 -0.3828  0.1593
  463MOL    O6337947   1.487   0.782   5.822 -0.8990  0.4431 -0.0971
  463MOL    H6437948   1.338   0.926   5.810 -1.7264 -1.5883 -0.8067
  463MOL    H6537949   1.282   0.772   5.841 -0.4584 -0.3042  2.0086
  463MOL    C6637950   1.576   0.884   5.783 -0.3646 -0.1948 -1.3068
  463MOL    O6737951   1.529   0.952   5.677 -0.0231 -0.4351  0.3492
  463MOL    H6837952   1.676   0.846   5.762  0.9265  0.9108  2.3930
  463MOL    H6937953   1.585   0.956   5.865 -1.3180 -0.7745 -0.6837
  463MOL    C7037954   1.538   0.883   5.555 -0.1888 -0.1206 -0.2577
  463MOL    O7137955   1.671   0.876   5.521  0.8887  0.0020  0.3877
  463MOL    H7237956   1.481   0.941   5.483  1.4847  3.0281  0.8439
  463MOL    H7337957   1.499   0.782   5.555 -1.5429  0.3821  0.8624
  463MOL    C7437958   1.733   0.999   5.478 -0.4198 -0.2908 -0.0549
  463MOL    O7537959   1.694   1.026   5.345  0.2843  0.2079  1.0165
  463MOL    H7637960   1.840   0.978   5.484 -0.3858 -0.0922  0.0296
  463MOL    H7737961   1.707   1.075   5.551 -2.5947  1.1976 -2.2771
  463MOL    C7837962   1.724   0.932   5.258  0.1017  0.5608 -0.3554
  463MOL    O7937963   1.700   0.980   5.133  0.6793  0.2974  0.3129
  463MOL    H8037964   1.662   0.845   5.277 -0.7341  1.5951  1.8191
  463MOL    H8137965   1.831   0.912   5.263 -0.1028 -0.5354 -0.1858
  463MOL    H8237966   1.754   1.058   5.127 -0.1599  0.8118 -0.7262
  464MOL     C137967   1.461   1.196   3.267  0.0255  0.3898  0.0326
  464MOL     O237968   1.322   1.223   3.245  0.2695 -0.4242 -0.0213
  464MOL     H337969   1.501   1.261   3.346 -2.7538  1.0660  0.9401
  464MOL     H437970   1.477   1.089   3.277 -1.2924 -0.0003 -1.8842
  464MOL     H537971   1.513   1.224   3.175  2.2495  1.7540  1.6412
  464MOL     C637972   1.289   1.337   3.169 -0.1524 -0.1448  0.1359
  464MOL     O737973   1.154   1.342   3.152  0.2666  0.2549 -0.4448
  464MOL     H837974   1.346   1.329   3.077  0.3468  0.0514  0.4247
  464MOL     H937975   1.331   1.422   3.224  2.1186 -0.8166 -0.5115
  464MOL    C1037976   1.127   1.474   3.126  0.7445  0.0221  0.5493
  464MOL    O1137977   1.189   1.520   3.012  0.2601  0.5994  0.4381
  464MOL    H1237978   1.162   1.534   3.210  0.7062 -3.2040  2.9423
  464MOL    H1337979   1.020   1.491   3.116 -0.0065 -3.3926  2.1506
  464MOL    C1437980   1.126   1.479   2.893 -0.8490  0.1334  0.1127
  464MOL    O1537981   1.214   1.492   2.780 -0.1041 -0.0948  0.2423
  464MOL    H1637982   1.048   1.554   2.884  0.1623  1.2359  0.4692
  464MOL    H1737983   1.094   1.376   2.909 -1.3652  0.5188  1.6378
  464MOL    C1837984   1.217   1.622   2.738  0.0745 -0.6411  0.1884
  464MOL    O1937985   1.110   1.651   2.656  0.7794  0.1205  0.6343
  464MOL    H2037986   1.304   1.642   2.676 -1.0909  1.3595 -0.8335
  464MOL    H2137987   1.226   1.693   2.820 -0.0441  0.7149 -0.9599
  464MOL    C2237988   1.106   1.563   2.543 -0.0862 -0.6707  0.3639
  464MOL    O2337989   1.192   1.613   2.446 -0.2557 -0.4187 -0.2047
  464MOL    H2437990   1.010   1.557   2.492 -0.6598 -1.5054  1.5266
  464MOL    H2537991   1.127   1.458   2.560 -1.1510 -1.0373 -0.5327
  464MOL    C2637992   1.172   1.746   2.414 -0.2120  0.2070 -0.2240
  464MOL    O2737993   1.207   1.761   2.277  0.1693  0.1837 -0.1744
  464MOL    H2837994   1.240   1.804   2.475  0.3463  0.5929 -1.1961
  464MOL    H2937995   1.072   1.782   2.439 -0.3219 -1.1864  1.3979
  464MOL    C3037996   1.106   1.734   2.192  0.2266  0.2396  0.5895
  464MOL    O3137997   1.013   1.840   2.198 -0.4302 -0.1089  0.6519
  464MOL    H3237998   1.053   1.640   2.208 -1.0870  0.6456 -1.2754
  464MOL    H3337999   1.150   1.720   2.094 -0.9812 -0.6058  0.1508
  464MOL    C3438000   0.915   1.824   2.094  0.2102  0.3818 -0.1657
  464MOL    O3538001   0.846   1.943   2.081 -0.2880  0.2422  0.5037
  464MOL    H3638002   0.851   1.743   2.128 -1.7948  2.2903  0.7248
  464MOL    H3738003   0.963   1.792   2.002  0.6119  0.4575  0.0186
  464MOL    C3838004   0.922   2.033   2.006 -0.2222  0.1248 -0.3531
  464MOL    O3938005   0.891   2.010   1.867 -0.0569  0.2471 -0.8200
  464MOL    H4038006   1.029   2.026   2.027 -0.5632  0.6333  1.5960
  464MOL    H4138007   0.887   2.133   2.029  0.9747  0.2631  0.9782
  464MOL    C4238008   0.990   2.062   1.792  0.5020 -0.4881  0.0632
  464MOL    O4338009   1.103   1.982   1.800 -0.1936 -0.1800 -0.0054
  464MOL    H4438010   1.026   2.161   1.822 -1.4622  0.6614 -1.2485
  464MOL    H4538011   0.960   2.077   1.688  2.2793  1.4245 -0.2036
  464MOL    C4638012   1.094   1.869   1.728  0.2375 -0.0479  0.0253
  464MOL    O4738013   1.135   1.902   1.596  1.0486  0.2328  0.2069
  464MOL    H4838014   0.991   1.836   1.712  0.3033 -0.7250  1.0285
  464MOL    H4938015   1.138   1.780   1.772 -1.3980 -0.1363  1.5509
  464MOL    C5038016   1.274   1.913   1.583  0.3195  0.3461 -0.5824
  464MOL    O5138017   1.331   1.786   1.574 -0.1532 -0.6508  0.3751
  464MOL    H5238018   1.324   1.963   1.666  0.4229  0.4610 -0.7139
  464MOL    H5338019   1.291   1.971   1.493 -0.6292  0.5778 -0.6162
  464MOL    C5438020   1.294   1.730   1.449 -0.3416  0.3797  1.2171
  464MOL    O5538021   1.308   1.595   1.466 -0.3330  0.5484  0.6656
  464MOL    H5638022   1.359   1.765   1.369  0.4748  0.5136  1.9199
  464MOL    H5738023   1.192   1.753   1.420 -0.3702  0.3272  1.2772
  464MOL    C5838024   1.441   1.560   1.482 -0.2737  0.7389 -0.3825
  464MOL    O5938025   1.510   1.590   1.364 -0.3569  0.4082  0.0605
  464MOL    H6038026   1.445   1.454   1.503  1.5077  0.2357 -2.9550
  464MOL    H6138027   1.491   1.618   1.559  0.1291 -0.2139  0.0719
  464MOL    C6238028   1.484   1.503   1.258 -0.4606 -0.3563  0.3274
  464MOL    O6338029   1.543   1.380   1.269 -0.1715  0.2392 -0.0593
  464MOL    H6438030   1.527   1.564   1.179  0.6488 -2.2961 -0.5921
  464MOL    H6538031   1.376   1.491   1.247 -0.6837  0.3486  1.6332
  464MOL    C6638032   1.680   1.386   1.256  0.4611 -0.2096 -0.2652
  464MOL    O6738033   1.723   1.420   1.134 -0.2170  0.2957  0.0671
  464MOL    H6838034   1.719   1.292   1.294 -1.4608 -1.5581 -1.5274
  464MOL    H6938035   1.723   1.467   1.315 -0.6626  0.4162 -0.2881
  464MOL    C7038036   1.673   1.329   1.035 -0.1998  0.3748 -0.3748
  464MOL    O7138037   1.730   1.202   1.050 -0.1458 -0.1956 -0.2538
  464MOL    H7238038   1.701   1.361   0.934 -0.2317  0.7530 -0.2647
  464MOL    H7338039   1.564   1.319   1.028 -0.0241  0.2926 -3.8077
  464MOL    C7438040   1.859   1.203   1.007 -0.9285  0.0456  0.4381
  464MOL    O7538041   1.911   1.075   1.021  0.1424  0.0267  0.4477
  464MOL    H7638042   1.924   1.263   1.071  1.2843  0.2726 -1.9131
  464MOL    H7738043   1.852   1.224   0.900 -0.0613 -2.7613 -0.2048
  464MOL    C7838044   1.907   1.022   1.144  0.2714  0.3552 -0.2579
  464MOL    O7938045   1.975   0.898   1.156  0.0769 -0.2047  0.3964
  464MOL    H8038046   1.804   1.012   1.178  0.0702  1.5223 -0.4873
  464MOL    H8138047   1.958   1.086   1.215  0.9935 -1.2820  0.7079
  464MOL    H8238048   1.934   0.838   1.096  0.4095  0.0880 -0.1288
  465MOL     C138049   4.609   6.017   6.654 -0.1751 -0.0481  0.5659
  465MOL     O238050   4.737   6.061   6.616  0.0008  0.3172 -0.2277
  465MOL     H338051   4.567   6.041   6.752 -0.5723  1.4025  0.0422
  465MOL     H438052   4.533   6.049   6.583  0.0175 -0.6315  0.0896
  465MOL     H538053   4.606   5.908   6.654  2.1557 -0.1683 -1.6082
  465MOL     C638054   4.790   6.158   6.700  0.2092 -0.2613 -0.7418
  465MOL     O738055   4.919   6.133   6.736  0.1529  0.8039  0.1118
  465MOL     H838056   4.733   6.172   6.792 -0.5804 -1.3637 -1.0562
  465MOL     H938057   4.777   6.253   6.647  3.4641 -0.6192 -2.2687
  465MOL    C1038058   5.007   6.156   6.629 -0.3077 -0.4005  0.5522
  465MOL    O1138059   5.138   6.107   6.653  0.0749  0.6005  0.3064
  465MOL    H1238060   5.017   6.263   6.608  1.0662 -0.8746 -1.2927
  465MOL    H1338061   4.963   6.117   6.538  1.5187  1.1256 -1.0366
  465MOL    C1438062   5.187   6.164   6.769 -0.7648  0.3505  0.2855
  465MOL    O1538063   5.322   6.139   6.794 -0.3121  0.0463  0.4104
  465MOL    H1638064   5.126   6.131   6.853  0.5293  0.8263  1.4279
  465MOL    H1738065   5.161   6.269   6.784 -1.2896  0.1625  0.7137
  465MOL    C1838066   5.336   6.006   6.826 -0.3429  0.2936  0.4158
  465MOL    O1938067   5.290   5.991   6.956  0.2454 -0.3232 -0.3572
  465MOL    H2038068   5.441   5.978   6.824 -0.5639 -1.1509  4.4334
  465MOL    H2138069   5.282   5.935   6.764 -0.0308 -1.0631  1.6835
  465MOL    C2238070   5.329   5.871   7.017 -0.3135  0.0281  0.3690
  465MOL    O2338071   5.275   5.752   6.962  0.5255 -0.0132  0.1485
  465MOL    H2438072   5.293   5.871   7.120  0.9120  1.0832  0.8062
  465MOL    H2538073   5.436   5.882   7.030 -0.6763  1.0863  2.7981
  465MOL    C2638074   5.136   5.755   6.958  0.3028 -0.3724  1.2056
  465MOL    O2738075   5.087   5.744   7.087  0.2410 -0.0570 -0.9829
  465MOL    H2838076   5.103   5.675   6.891  0.4912  0.3373  0.2591
  465MOL    H2938077   5.096   5.847   6.915 -1.6228 -1.4398  0.6253
  465MOL    C3038078   5.108   5.623   7.144  0.0854  0.8536 -0.7599
  465MOL    O3138079   5.019   5.523   7.092  0.2076 -0.4802 -0.0644
  465MOL    H3238080   5.088   5.639   7.250 -2.1113 -1.4664 -0.7761
  465MOL    H3338081   5.210   5.590   7.129 -0.6586 -3.1052  1.9053
  465MOL    C3438082   4.883   5.550   7.120  0.4522  0.1598 -0.6179
  465MOL    O3538083   4.799   5.454   7.061 -0.4750  0.0933 -0.4437
  465MOL    H3638084   4.860   5.651   7.087 -0.6587  0.1466  0.0804
  465MOL    H3738085   4.873   5.561   7.228  1.3152 -2.5482 -0.2112
  465MOL    C3838086   4.793   5.333   7.134 -0.2111 -0.6721  0.5758
  465MOL    O3938087   4.738   5.355   7.258 -0.4099  0.0137  0.4834
  465MOL    H4038088   4.889   5.285   7.155  0.4315  0.5061  0.4444
  465MOL    H4138089   4.745   5.256   7.075 -0.0527  1.2649 -2.1576
  465MOL    C4238090   4.607   5.398   7.244  0.6022 -0.1565  0.1866
  465MOL    O4338091   4.529   5.296   7.199 -0.1831 -0.0555  0.1523
  465MOL    H4438092   4.596   5.473   7.165 -0.0127 -1.6768 -1.2047
  465MOL    H4538093   4.567   5.439   7.336  2.7811 -0.1133  1.1533
  465MOL    C4638094   4.505   5.186   7.278  0.1101  0.5937 -0.5838
  465MOL    O4738095   4.413   5.099   7.213  0.1023  0.0300 -0.0245
  465MOL    H4838096   4.463   5.236   7.365  0.4750 -1.4834  0.8252
  465MOL    H4938097   4.600   5.137   7.301  0.2889  1.6503  0.9863
  465MOL    C5038098   4.470   5.034   7.100 -0.8589  0.6358  0.4858
  465MOL    O5138099   4.578   4.957   7.149 -0.2186 -0.0455  0.6661
  465MOL    H5238100   4.508   5.109   7.032 -0.1394 -0.5324 -0.4255
  465MOL    H5338101   4.394   4.968   7.058 -0.5349  1.4375 -1.3696
  465MOL    C5438102   4.636   4.886   7.048 -0.1609 -0.6054 -0.1940
  465MOL    O5538103   4.674   4.972   6.947 -0.4381 -0.3577  0.2308
  465MOL    H5638104   4.559   4.811   7.027  1.2688 -2.6953  1.8243
  465MOL    H5738105   4.726   4.832   7.077  0.2063  1.0108  1.8263
  465MOL    C5838106   4.712   4.912   6.825 -0.0545  0.0312 -0.4706
  465MOL    O5938107   4.832   4.839   6.835 -0.3522  0.1617  0.1913
  465MOL    H6038108   4.730   4.998   6.760  1.0235  0.1533 -0.0220
  465MOL    H6138109   4.630   4.849   6.791 -1.5892  1.8949 -0.2663
  465MOL    C6238110   4.814   4.698   6.836 -0.3003  0.8487 -0.4917
  465MOL    O6338111   4.802   4.654   6.703 -0.1580  0.0742 -0.1216
  465MOL    H6438112   4.741   4.657   6.906 -2.2879  0.8453 -2.5003
  465MOL    H6538113   4.913   4.672   6.874  0.7150  3.8132 -0.9951
  465MOL    C6638114   4.846   4.520   6.685 -0.3493 -0.0602 -0.5219
  465MOL    O6738115   4.785   4.430   6.772  0.3387 -0.3844  0.0793
  465MOL    H6838116   4.949   4.516   6.720 -1.1736  1.4268  2.2070
  465MOL    H6938117   4.833   4.477   6.585 -4.3149 -1.9746  0.7200
  465MOL    C7038118   4.655   4.414   6.740  0.0202  0.8389 -0.1419
  465MOL    O7138119   4.573   4.502   6.814 -0.4335 -0.0551  0.3239
  465MOL    H7238120   4.632   4.308   6.750  2.4827  0.2696 -0.1092
  465MOL    H7338121   4.629   4.425   6.635  1.7026  2.1558 -0.4476
  465MOL    C7438122   4.550   4.463   6.941 -0.2002  0.2566 -0.3070
  465MOL    O7538123   4.491   4.565   7.014  0.3879 -0.2976 -0.0501
  465MOL    H7638124   4.634   4.419   6.995  0.3253 -0.9532 -2.0666
  465MOL    H7738125   4.474   4.384   6.936 -1.8005  1.6220  1.6299
  465MOL    C7838126   4.361   4.601   6.976 -0.4524 -0.1561  0.0072
  465MOL    O7938127   4.292   4.689   7.058  0.5586 -0.6761 -0.2058
  465MOL    H8038128   4.304   4.510   6.955 -0.8724  0.3047 -0.8382
  465MOL    H8138129   4.359   4.641   6.875  0.0837 -0.0726  0.0274
  465MOL    H8238130   4.269   4.640   7.136 -1.9231  1.2280  0.3083
  466MOL     C138131   3.135   2.241   0.960  0.4776 -0.2327  0.1385
  466MOL     O238132   3.179   2.139   0.877  0.3271  0.4546  0.4669
  466MOL     H338133   3.027   2.243   0.976  0.5857  1.5991  0.7766
  466MOL     H438134   3.170   2.235   1.063  0.4671  1.3300  0.2545
  466MOL     H538135   3.170   2.334   0.916 -1.1208  0.9219  1.2159
  466MOL     C638136   3.142   2.150   0.747 -0.2266 -0.1060  0.1771
  466MOL     O738137   3.217   2.250   0.681  0.1569 -0.2926  0.5177
  466MOL     H838138   3.034   2.164   0.745 -0.2525 -0.4170 -1.0741
  466MOL     H938139   3.155   2.050   0.704 -3.7993 -1.1897  1.4787
  466MOL    C1038140   3.340   2.200   0.639  0.7245  0.5761  0.2798
  466MOL    O1138141   3.309   2.122   0.527 -0.3240 -0.5440  0.5819
  466MOL    H1238142   3.385   2.135   0.714 -0.5812 -0.1773  0.4205
  466MOL    H1338143   3.405   2.281   0.607  1.5395 -0.4039 -0.5993
  466MOL    C1438144   3.427   2.078   0.472  0.2103 -0.3209 -0.6385
  466MOL    O1538145   3.484   1.979   0.554 -0.0716  0.2495  0.4098
  466MOL    H1638146   3.504   2.155   0.463  1.3102 -1.1360  1.2820
  466MOL    H1738147   3.403   2.040   0.373  1.5881  0.4640 -1.2940
  466MOL    C1838148   3.597   1.922   0.498 -0.4145  0.1103  0.1414
  466MOL    O1938149   3.627   1.810   0.563  0.1978 -0.6935 -0.6600
  466MOL    H2038150   3.670   2.002   0.513 -1.1509  0.5313  1.5572
  466MOL    H2138151   3.586   1.912   0.390  0.7883  1.3043 -0.1126
  466MOL    C2238152   3.760   1.775   0.558 -0.0455  1.3362 -0.6578
  466MOL    O2338153   3.795   1.747   0.428  0.2420  0.3638  0.4837
  466MOL    H2438154   3.766   1.685   0.619  0.1278  3.3332  2.3527
  466MOL    H2538155   3.829   1.848   0.600 -0.8849  1.2090  0.9839
  466MOL    C2638156   3.744   1.631   0.376  0.0968  0.6503  0.7883
  466MOL    O2738157   3.848   1.537   0.371  0.2835 -0.0294 -0.3415
  466MOL    H2838158   3.700   1.649   0.277 -1.6132 -2.1517  1.0028
  466MOL    H2938159   3.657   1.587   0.424  1.4107 -0.9577  1.7277
  466MOL    C3038160   3.796   1.407   0.353 -0.1077 -0.3202  0.3178
  466MOL    O3138161   3.710   1.394   0.239 -0.0341 -0.5890  0.2822
  466MOL    H3238162   3.722   1.381   0.428 -0.4308 -2.9221 -0.8460
  466MOL    H3338163   3.886   1.345   0.359  0.4273  0.2130 -1.5269
  466MOL    C3438164   3.776   1.415   0.119  0.1086 -0.0149  0.0225
  466MOL    O3538165   3.891   1.337   0.106  0.3070  0.2582 -0.1290
  466MOL    H3638166   3.818   1.515   0.130  3.1341 -1.4988  2.7482
  466MOL    H3738167   3.696   1.405   0.045 -0.3586  0.9710  0.3726
  466MOL    C3838168   3.864   1.210   0.059 -0.1481 -0.1419  0.7983
  466MOL    O3938169   3.811   1.202   7.709 -0.5004  0.3124 -0.4189
  466MOL    H4038170   3.794   1.166   0.129 -3.7604  0.3654 -2.3553
  466MOL    H4138171   3.952   1.145   0.063 -0.2900 -0.3463  0.6184
  466MOL    C4238172   3.889   1.249   7.608  0.3913  0.2476 -0.1397
  466MOL    O4338173   3.997   1.160   7.585  0.5317  0.1934 -0.0099
  466MOL    H4438174   3.938   1.341   7.639 -0.5555  0.4453  0.7721
  466MOL    H4538175   3.837   1.261   7.514  2.8106 -0.1146 -1.5685
  466MOL    C4638176   3.963   1.032   7.533  0.3544  0.1530  0.5188
  466MOL    O4738177   3.898   1.046   7.418 -0.2401  0.4936 -0.1865
  466MOL    H4838178   3.895   0.982   7.601  1.4637 -0.2357  1.3573
  466MOL    H4938179   4.048   0.964   7.525  0.8915  0.7004  1.5068
  466MOL    C5038180   3.987   1.091   7.322  0.3836  0.8015 -0.7071
  466MOL    O5138181   3.909   1.104   7.198 -0.3207  0.3820  0.0652
  466MOL    H5238182   4.061   1.013   7.299 -2.1414 -1.8628 -0.0703
  466MOL    H5338183   4.044   1.180   7.346 -0.9585  1.4302  0.1947
  466MOL    C5438184   3.815   1.217   7.195 -0.1469 -0.1971  0.1243
  466MOL    O5538185   3.755   1.226   7.070 -0.1773  0.3365 -0.1891
  466MOL    H5638186   3.846   1.317   7.226 -2.5935 -0.2382  2.8906
  466MOL    H5738187   3.742   1.187   7.270 -1.6026  3.0651  0.1274
  466MOL    C5838188   3.847   1.286   6.982 -0.0598 -0.9739  0.6752
  466MOL    O5938189   3.873   1.417   7.024  0.1937  0.1404  0.0674
  466MOL    H6038190   3.805   1.281   6.882  1.4145  1.2516 -0.0838
  466MOL    H6138191   3.938   1.228   6.969 -0.3303 -1.2750  0.0989
  466MOL    C6238192   3.769   1.512   7.019 -0.3598 -0.8510  0.3316
  466MOL    O6338193   3.736   1.554   6.892  0.2319  0.2821  0.5505
  466MOL    H6438194   3.799   1.589   7.090 -0.6740  0.0057 -0.4602
  466MOL    H6538195   3.685   1.462   7.066  1.5254 -3.1525  1.3513
  466MOL    C6638196   3.831   1.641   6.838 -0.7907  0.0153  0.5138
  466MOL    O6738197   3.823   1.772   6.896 -0.6165 -1.4132 -0.2798
  466MOL    H6838198   3.812   1.644   6.731  0.7092  0.3803  0.2565
  466MOL    H6938199   3.928   1.599   6.864 -0.3191  0.2841 -0.7893
  466MOL    C7038200   3.720   1.851   6.840  1.1583 -0.2705  0.3978
  466MOL    O7138201   3.590   1.804   6.882 -0.1249 -0.2568  0.2574
  466MOL    H7238202   3.715   1.845   6.732 -2.0242 -0.0328  0.4640
  466MOL    H7338203   3.740   1.956   6.861  2.9695 -0.2796 -1.1672
  466MOL    C7438204   3.555   1.824   7.021 -0.3915  0.0262  0.6757
  466MOL    O7538205   3.471   1.935   7.037  0.4058  0.1961 -0.1533
  466MOL    H7638206   3.639   1.850   7.086  1.5480  0.7727 -2.0456
  466MOL    H7738207   3.510   1.740   7.073  1.5703  0.2978  2.8739
  466MOL    C7838208   3.350   1.912   6.973  0.6342 -0.0673  0.7350
  466MOL    O7938209   3.261   2.009   7.026  0.6966 -0.6128 -0.2427
  466MOL    H8038210   3.307   1.815   6.994  2.2036 -0.4346  2.4243
  466MOL    H8138211   3.352   1.915   6.864  2.3452 -5.0546  0.4921
  466MOL    H8238212   3.263   2.075   6.959  0.3560 -0.1388  0.2101
  467MOL     C138213   0.819   0.409   0.259 -0.2130  0.1818  0.4996
  467MOL     O238214   0.752   0.285   0.236 -0.5681 -0.1903 -0.3012
  467MOL     H338215   0.912   0.419   0.204  0.0300 -0.9261  0.7101
  467MOL     H438216   0.746   0.491   0.254 -1.7586 -1.0625  2.2081
  467MOL     H538217   0.853   0.413   0.363  0.1879 -0.7141  0.4080
  467MOL     C638218   0.671   0.272   0.122  0.1728 -0.0638  0.3765
  467MOL     O738219   0.653   0.134   0.089  0.5688  0.3684  0.2125
  467MOL     H838220   0.722   0.329   0.044  2.0708 -1.9092  0.2136
  467MOL     H938221   0.576   0.326   0.131 -0.8746 -1.5974 -1.1104
  467MOL    C1038222   0.537   0.083   0.148 -0.0728  0.1693  0.5664
  467MOL    O1138223   0.417   0.120   0.085 -0.4139  0.1840  0.3457
  467MOL    H1238224   0.534   0.105   0.255 -2.9626  0.9280  0.3600
  467MOL    H1338225   0.549   7.759   0.140 -4.0625 -0.3134 -0.0102
  467MOL    C1438226   0.316   0.038   0.128 -0.6338  0.2065 -0.4060
  467MOL    O1538227   0.322   7.697   0.060 -0.6100 -0.4069  0.2140
  467MOL    H1638228   0.220   0.088   0.118 -1.0834 -0.6726 -0.4570
  467MOL    H1738229   0.329   0.018   0.234 -0.0371 -1.3159 -0.7487
  467MOL    C1838230   0.201   7.628   0.075 -0.8158 -0.0700 -0.6365
  467MOL    O1938231   0.188   7.574   0.204 -0.2610 -0.2968 -0.1162
  467MOL    H2038232   0.184   7.546   0.006  1.6956 -2.1132  1.0724
  467MOL    H2138233   0.115   7.695   0.069 -0.5834  0.2157 -0.8256
  467MOL    C2238234   0.279   7.473   0.236  0.4694 -0.9087 -0.2503
  467MOL    O2338235   0.265   7.364   0.160 -0.2884 -0.1290  0.3540
  467MOL    H2438236   0.270   7.452   0.342 -1.5604 -1.0355 -0.4459
  467MOL    H2538237   0.376   7.523   0.223 -0.3188  1.1266  1.4683
  467MOL    C2638238   0.144   7.299   0.178 -0.5280  0.0321  0.1158
  467MOL    O2738239   0.048   7.358   0.099  0.5840  0.2973  0.1233
  467MOL    H2838240   0.117   7.285   0.283 -2.7001  3.4886  0.1064
  467MOL    H2938241   0.169   7.203   0.135 -0.6455  1.0023 -2.1681
  467MOL    C3038242   7.738   7.272   0.040  0.4979  1.5090 -0.5799
  467MOL    O3138243   0.017   7.195   7.719 -0.4209  0.3420 -0.4348
  467MOL    H3238244   7.665   7.342   7.782  1.4529  1.6204 -2.1297
  467MOL    H3338245   7.693   7.215   0.120 -1.6750  3.6410 -0.2116
  467MOL    C3438246   7.783   7.247   7.590  0.6085  0.4071  0.5332
  467MOL    O3538247   0.060   7.375   7.573  0.8303 -0.3177 -0.4378
  467MOL    H3638248   7.678   7.265   7.566  1.0446 -0.4523 -2.1309
  467MOL    H3738249   0.039   7.171   7.523  1.5009 -1.1466  2.7537
  467MOL    C3838250   0.200   7.355   7.581 -0.0408  0.0738  0.2474
  467MOL    O3938251   0.256   7.313   7.462  0.2821 -0.7625  0.0097
  467MOL    H4038252   0.242   7.309   7.671  1.3988 -0.7628 -0.8309
  467MOL    H4138253   0.233   7.458   7.596  0.3331  0.2206 -1.5286
  467MOL    C4238254   0.380   7.361   7.442  0.1923  0.7800  0.1236
  467MOL    O4338255   0.388   7.495   7.405  0.6299 -0.2045 -0.0724
  467MOL    H4438256   0.406   7.313   7.348 -1.7253  1.5091 -0.8121
  467MOL    H4538257   0.446   7.335   7.525 -2.0542  0.2126  1.7954
  467MOL    C4638258   0.506   7.552   7.463  0.3302 -0.4490  0.1464
  467MOL    O4738259   0.624   7.487   7.426 -0.2269 -0.2279 -0.6662
  467MOL    H4838260   0.499   7.542   7.572 -0.4712  3.3357  0.5126
  467MOL    H4938261   0.510   7.659   7.444  1.0345 -0.5649 -0.3676
  467MOL    C5038262   0.648   7.501   7.287 -0.3489  0.0733 -0.0823
  467MOL    O5138263   0.655   7.379   7.221  0.3264  0.5536 -0.8156
  467MOL    H5238264   0.738   7.559   7.267  1.1593 -2.5193 -1.1024
  467MOL    H5338265   0.565   7.545   7.232 -0.0087 -0.0750 -0.7192
  467MOL    C5438266   0.772   7.312   7.256  0.5964  0.0987 -0.1291
  467MOL    O5538267   0.882   7.382   7.220  0.0201 -0.4768  0.0374
  467MOL    H5638268   0.784   7.223   7.193  0.3051  0.6745 -1.0077
  467MOL    H5738269   0.775   7.269   7.356 -0.7594 -0.5852 -0.3637
  467MOL    C5838270   0.955   7.421   7.341 -0.4147  0.4650  0.5158
  467MOL    O5938271   1.046   7.324   7.387 -0.3774  0.1594  0.4502
  467MOL    H6038272   0.890   7.446   7.425  1.6925  0.0028  2.3303
  467MOL    H6138273   1.006   7.515   7.321  1.0595 -0.7001 -1.3997
  467MOL    C6238274   1.154   7.319   7.307 -0.2436 -0.6980 -0.3580
  467MOL    O6338275   1.230   7.441   7.314 -0.3227  0.1891  0.3696
  467MOL    H6438276   1.132   7.291   7.204  0.8147  1.6834 -1.2612
  467MOL    H6538277   1.219   7.235   7.332  0.8511  0.5334  1.0256
  467MOL    C6638278   1.286   7.454   7.441 -0.1740  0.5620 -0.3734
  467MOL    O6738279   1.340   7.581   7.459  0.1229 -0.5031 -0.0656
  467MOL    H6838280   1.352   7.369   7.458 -3.7475 -2.1842  0.3416
  467MOL    H6938281   1.204   7.457   7.513 -1.5372 -1.2977 -1.7918
  467MOL    C7038282   1.253   7.691   7.482  0.1030  0.0462  0.5607
  467MOL    O7138283   1.165   7.673   7.585  0.6725  0.0018 -0.0502
  467MOL    H7238284   1.200   7.687   7.386 -1.1902 -3.5001  1.3129
  467MOL    H7338285   1.301   0.004   7.492  2.1544 -1.0250  1.2192
  467MOL    C7438286   1.076   0.000   7.595 -1.0857 -0.4433  0.0467
  467MOL    O7538287   0.986   0.001   7.483 -0.2436 -0.0653  0.5325
  467MOL    H7638288   1.119   0.099   7.612 -0.6693 -0.9021  1.7621
  467MOL    H7738289   1.019   7.772   7.687 -3.5339 -0.8660 -1.4775
  467MOL    C7838290   0.869   0.067   7.515  0.9648  0.2822 -0.0676
  467MOL    O7938291   0.770   0.047   7.419 -0.1490 -0.3202 -0.2975
  467MOL    H8038292   0.898   0.171   7.504 -0.8460  0.7399 -0.6814
  467MOL    H8138293   0.827   0.056   7.615 -0.0672 -1.5594 -0.6762
  467MOL    H8238294   0.796   0.079   7.334  0.7672 -0.0824  0.0560
  468MOL     C138295   1.009   6.045   3.953  0.6491  0.1130  0.5372
  468MOL     O238296   1.028   6.096   4.082 -0.9272  0.0751  0.1389
  468MOL     H338297   0.944   5.957   3.955  1.7503 -0.7693 -1.0844
  468MOL     H438298   0.957   6.112   3.885  1.7547 -1.1176 -1.5698
  468MOL     H538299   1.107   6.016   3.913 -0.0377  1.4999 -2.2988
  468MOL     C638300   0.915   6.153   4.137 -0.1236 -0.3238 -1.2307
  468MOL     O738301   0.807   6.064   4.151  0.2336  0.4090 -0.0433
  468MOL     H838302   0.886   6.233   4.069 -0.1744  0.9341  0.2542
  468MOL     H938303   0.945   6.207   4.227 -0.2275 -1.2644 -0.6246
  468MOL    C1038304   0.787   6.010   4.281 -0.1496 -0.2839 -0.0899
  468MOL    O1138305   0.719   6.094   4.363 -0.2236 -0.2266 -0.6539
  468MOL    H1238306   0.886   5.978   4.314  0.1232 -1.2883 -1.8546
  468MOL    H1338307   0.728   5.921   4.259 -0.0300 -0.2988 -0.3484
  468MOL    C1438308   0.594   6.125   4.324  0.3133  0.1947  0.1892
  468MOL    O1538309   0.503   6.020   4.347 -0.6929  0.0230  0.0658
  468MOL    H1638310   0.595   6.162   4.221 -3.5633  0.7597  0.2570
  468MOL    H1738311   0.563   6.206   4.391  0.1591  2.0598 -2.0675
  468MOL    C1838312   0.370   6.060   4.338 -0.5357  0.2208 -0.3574
  468MOL    O1938313   0.344   6.112   4.212 -0.0380  0.8038  0.0223
  468MOL    H2038314   0.357   6.132   4.419 -0.0959 -1.3477  1.1506
  468MOL    H2138315   0.298   5.981   4.359 -1.1644  1.0384  0.5972
  468MOL    C2238316   0.333   6.009   4.119  0.9830  0.3482  0.2344
  468MOL    O2338317   0.200   5.962   4.114  0.4340  0.0400  0.3647
  468MOL    H2438318   0.399   5.923   4.138  2.3636  1.1924 -0.6557
  468MOL    H2538319   0.362   6.063   4.028 -1.6542  1.9552  0.3106
  468MOL    C2638320   0.106   6.053   4.057  0.1291 -0.3915  1.1311
  468MOL    O2738321   0.120   6.067   3.917  0.1605  0.0934 -0.0999
  468MOL    H2838322   0.096   6.149   4.106 -3.5096 -0.2765  0.2898
  468MOL    H2938323   0.010   6.006   4.078 -0.0793 -0.4479  0.0500
  468MOL    C3038324   0.010   6.120   3.847 -0.2311  0.6205  0.6079
  468MOL    O3138325   7.689   6.037   3.841  0.1025 -0.3163 -0.4409
  468MOL    H3238326   0.040   6.138   3.744 -2.6245 -1.4181 -0.4813
  468MOL    H3338327   7.761   6.216   3.887  0.2174  0.8999  0.3127
  468MOL    C3438328   7.722   5.922   3.779 -0.5240 -0.1614 -0.2514
  468MOL    O3538329   7.608   5.837   3.768  0.2578  0.2231 -0.7971
  468MOL    H3638330   0.019   5.864   3.825 -1.6183 -1.2776  0.2814
  468MOL    H3738331   7.756   5.942   3.677 -1.0277  0.9704 -0.1957
  468MOL    C3838332   7.588   5.768   3.885 -0.5194  0.1525 -0.1264
  468MOL    O3938333   7.667   5.647   3.887  0.1062 -0.2249 -0.1436
  468MOL    H4038334   7.482   5.742   3.882 -0.4096 -0.5638  1.5795
  468MOL    H4138335   7.614   5.817   3.979  0.2960 -1.6074  0.5769
  468MOL    C4238336   7.609   5.539   3.822  0.0591 -0.0893 -0.7194
  468MOL    O4338337   7.518   5.474   3.902  0.5303 -0.6607  0.0697
  468MOL    H4438338   7.687   5.469   3.792  0.3928  0.5973 -1.4752
  468MOL    H4538339   7.561   5.574   3.730 -0.3814 -0.4983 -0.6458
  468MOL    C4638340   7.578   5.406   4.016  0.1218  0.0620 -0.5267
  468MOL    O4738341   7.488   5.348   4.106 -0.6239 -0.1167  0.3162
  468MOL    H4838342   7.653   5.460   4.074 -0.3071 -1.3267  1.3510
  468MOL    H4938343   7.634   5.329   3.965  0.3434 -0.0351 -0.1389
  468MOL    C5038344   7.408   5.437   4.178 -0.1643 -0.2137  0.1017
  468MOL    O5138345   7.480   5.485   4.284  0.3182  0.0427  0.0508
  468MOL    H5238346   7.328   5.382   4.227 -0.7396  0.3575 -0.1891
  468MOL    H5338347   7.363   5.511   4.111  0.4083 -0.9856 -1.1602
  468MOL    C5438348   7.525   5.610   4.274  0.2638  0.1267  0.0355
  468MOL    O5538349   7.575   5.659   4.395 -0.7091  0.0601 -0.3896
  468MOL    H5638350   7.430   5.657   4.249 -0.8209 -2.0191  0.1152
  468MOL    H5738351   7.589   5.639   4.190  1.6572  0.1609  1.0825
  468MOL    C5838352   7.700   5.597   4.427  0.4047 -0.4168 -0.0422
  468MOL    O5938353   0.017   5.625   4.339 -0.3158  0.3410  0.4636
  468MOL    H6038354   7.684   5.490   4.435  0.1067 -0.2340  2.2343
  468MOL    H6138355   7.733   5.623   4.527  1.0106  2.3603 -0.9342
  468MOL    C6238356   0.085   5.742   4.360  0.1258  0.1658  0.2597
  468MOL    O6338357   0.165   5.737   4.471 -0.1408 -0.1993 -0.2514
  468MOL    H6438358   0.009   5.820   4.372  1.2260  1.0332  1.7974
  468MOL    H6538359   0.139   5.767   4.270 -1.4116  0.7957 -0.5095
  468MOL    C6638360   0.281   5.661   4.454 -0.3348  0.5454 -0.1176
  468MOL    O6738361   0.370   5.727   4.370 -0.1863 -0.2721  0.5173
  468MOL    H6838362   0.253   5.562   4.418  0.5076  0.1172  0.3845
  468MOL    H6938363   0.333   5.631   4.545 -0.3664  1.9808  0.3805
  468MOL    C7038364   0.485   5.653   4.359  0.1149 -0.2715  0.7790
  468MOL    O7138365   0.461   5.529   4.285  0.3336 -0.1474  0.3307
  468MOL    H7238366   0.531   5.641   4.457  1.3054  0.7615  0.3674
  468MOL    H7338367   0.556   5.713   4.301 -0.4644  0.5779  0.9281
  468MOL    C7438368   0.565   5.436   4.312 -0.0649 -0.6787  0.0039
  468MOL    O7538369   0.554   5.384   4.444 -0.0512  0.2463  0.2880
  468MOL    H7638370   0.668   5.469   4.296 -0.3313  0.1092 -0.1117
  468MOL    H7738371   0.547   5.353   4.244 -0.7573 -0.2266 -0.3666
  468MOL    C7838372   0.447   5.303   4.469 -0.2884  0.4148 -0.8315
  468MOL    O7938373   0.452   5.268   4.608 -0.3035 -0.0848 -0.3361
  468MOL    H8038374   0.458   5.213   4.409 -0.8607 -0.5001  0.4022
  468MOL    H8138375   0.350   5.349   4.447  0.2071  1.5802 -0.6561
  468MOL    H8238376   0.514   5.198   4.617 -1.2397 -1.0013 -0.8458
  469MOL     C138377   1.069   1.347   7.075  0.7777 -0.0069 -0.0321
  469MOL     O238378   0.967   1.252   7.046  0.4158 -0.1171  0.0855
  469MOL     H338379   1.107   1.402   6.989  2.1764 -0.6484  0.1619
  469MOL     H438380   1.041   1.424   7.147  0.1665 -1.2596  1.0916
  469MOL     H538381   1.158   1.293   7.106  1.7249  0.1159 -2.4082
  469MOL     C638382   0.936   1.230   6.914  0.4353  0.6400  0.5679
  469MOL     O738383   0.905   1.349   6.846  0.2636 -0.4803 -0.3845
  469MOL     H838384   0.852   1.161   6.911 -0.5776  1.8193  1.2361
  469MOL     H938385   1.013   1.178   6.857 -1.1474 -3.3122  1.8492
  469MOL    C1038386   0.783   1.410   6.886  0.1523 -0.1462 -0.9896
  469MOL    O1138387   0.752   1.522   6.815 -0.1893 -0.2388 -0.2507
  469MOL    H1238388   0.785   1.435   6.992 -0.8367  0.0022 -0.9930
  469MOL    H1338389   0.701   1.340   6.869 -1.4922  1.6102 -0.4938
  469MOL    C1438390   0.860   1.616   6.831  0.4962 -0.2824 -0.2772
  469MOL    O1538391   0.851   1.690   6.949  0.1404 -0.5501  0.1801
  469MOL    H1638392   0.868   1.677   6.741 -1.0534  0.4403  0.0553
  469MOL    H1738393   0.956   1.564   6.837 -0.0995 -1.4716 -1.0689
  469MOL    C1838394   0.764   1.797   6.925 -0.4456 -0.3272 -0.0508
  469MOL    O1938395   0.734   1.846   7.053  0.0534 -0.2997 -0.3069
  469MOL    H2038396   0.675   1.754   6.879  0.2900  0.7705 -2.6112
  469MOL    H2138397   0.811   1.872   6.861  0.2701  0.5407  1.4817
  469MOL    C2238398   0.640   1.767   7.121 -0.1176 -0.8681  0.2330
  469MOL    O2338399   0.510   1.783   7.079 -0.5102 -0.2537  0.6949
  469MOL    H2438400   0.647   1.816   7.218 -4.1269  1.2648 -0.4502
  469MOL    H2538401   0.678   1.665   7.131  0.0293 -0.7717  0.6570
  469MOL    C2638402   0.436   1.689   7.139 -0.2579 -0.1650  0.3461
  469MOL    O2738403   0.448   1.567   7.070 -0.2092  0.7881 -0.5045
  469MOL    H2838404   0.333   1.726   7.142  0.1061  1.3582 -3.3306
  469MOL    H2938405   0.476   1.677   7.240 -0.3142 -0.2034  0.3640
  469MOL    C3038406   0.380   1.574   6.947 -0.9279 -0.0515  0.4840
  469MOL    O3138407   0.239   1.566   6.974 -0.1683  0.0077  0.1718
  469MOL    H3238408   0.408   1.492   6.880  1.8043  0.1748  1.2727
  469MOL    H3338409   0.393   1.666   6.891  2.4839 -1.2061 -0.7735
  469MOL    C3438410   0.204   1.440   7.016  0.2639 -0.5906 -0.2568
  469MOL    O3538411   0.189   1.365   6.900 -0.0250 -0.1033  0.0922
  469MOL    H3638412   0.111   1.436   7.072  0.7929 -0.6118  0.6319
  469MOL    H3738413   0.273   1.380   7.076  0.5767  0.2696  0.2487
  469MOL    C3838414   0.061   1.384   6.837  0.0471 -0.5614 -0.2389
  469MOL    O3938415   0.040   1.515   6.789 -0.4873  0.8373 -0.4500
  469MOL    H4038416   7.758   1.358   6.898 -0.4124  0.4152 -0.4539
  469MOL    H4138417   0.061   1.308   6.759 -0.1112 -2.1005  1.2471
  469MOL    C4238418   0.126   1.535   6.687  0.5533 -0.1415 -0.1773
  469MOL    O4338419   0.130   1.675   6.652 -0.0816 -0.1682 -0.5579
  469MOL    H4438420   0.097   1.481   6.597  1.6997 -1.3311  0.1607
  469MOL    H4538421   0.226   1.512   6.723  0.8925  0.4612 -0.7286
  469MOL    C4638422   0.006   1.719   6.601 -0.4271  0.0322 -0.1099
  469MOL    O4738423   0.009   1.717   6.468  0.1213  0.4126 -0.2390
  469MOL    H4838424   7.773   1.824   6.625  1.5581  0.8470 -2.1525
  469MOL    H4938425   7.702   1.663   6.635 -1.7192  1.2900 -1.3393
  469MOL    C5038426   0.046   1.838   6.411  0.1706 -0.1675  0.2818
  469MOL    O5138427   7.728   1.936   6.409 -0.5490  0.6272 -0.3429
  469MOL    H5238428   0.087   1.814   6.313  0.1248 -0.3931  0.3180
  469MOL    H5338429   0.140   1.881   6.447  1.2656 -2.0532 -0.2647
  469MOL    C5438430   7.611   1.886   6.350 -0.2981 -0.3848  0.7467
  469MOL    O5538431   7.632   1.854   6.221  0.4488 -0.1077  0.4034
  469MOL    H5638432   7.526   1.953   6.362  1.3222  1.4411  2.4012
  469MOL    H5738433   7.578   1.795   6.401  1.3792 -1.2391  0.3419
  469MOL    C5838434   7.518   1.805   6.159  0.2258  0.6083 -0.8920
  469MOL    O5938435   7.488   1.680   6.216  0.7390 -0.2628 -0.1826
  469MOL    H6038436   7.540   1.799   6.053  2.5624  2.0173 -0.5132
  469MOL    H6138437   7.438   1.878   6.173 -0.6583 -0.4714 -0.1165
  469MOL    C6238438   7.598   1.588   6.212 -0.2444 -0.9729  0.3471
  469MOL    O6338439   7.547   1.455   6.231 -0.0889 -0.1657 -0.7709
  469MOL    H6438440   7.673   1.624   6.283 -0.7807  0.5529  0.1527
  469MOL    H6538441   7.650   1.579   6.117  1.3720  2.4591  0.8462
  469MOL    C6638442   7.449   1.422   6.138 -0.2389  0.5791  0.5379
  469MOL    O6738443   7.496   1.351   6.029  0.7946  0.7842  0.7490
  469MOL    H6838444   7.404   1.510   6.092  1.2814 -0.2281 -2.7052
  469MOL    H6938445   7.372   1.363   6.187 -0.1998  1.2211  1.3761
  469MOL    C7038446   7.558   1.229   6.070  0.1093  0.1874  0.3022
  469MOL    O7138447   7.464   1.136   6.104  0.1490 -0.8091 -0.3120
  469MOL    H7238448   7.624   1.250   6.154 -0.3851 -0.4792  0.8636
  469MOL    H7338449   7.622   1.189   5.992  1.2924 -2.0013  2.3477
  469MOL    C7438450   7.407   1.075   5.994 -0.1041 -0.3633 -0.3971
  469MOL    O7538451   7.305   0.991   6.034 -0.3437 -0.0194 -0.2112
  469MOL    H7638452   7.478   1.036   5.922 -1.4020  1.0427 -2.4895
  469MOL    H7738453   7.355   1.150   5.934  0.3633  0.1261 -0.1891
  469MOL    C7838454   7.349   0.863   6.027 -0.4770 -0.4385  0.3135
  469MOL    O7938455   7.366   0.812   5.892  0.7170 -0.6140  0.5941
  469MOL    H8038456   7.263   0.810   6.067 -0.0045 -2.1188 -0.8655
  469MOL    H8138457   7.431   0.829   6.091  1.0362  2.0150 -0.2317
  469MOL    H8238458   7.346   0.721   5.904  0.6983 -0.5001  1.4982
  470MOL     C138459   1.550   2.684   3.308 -0.0583 -0.2645 -0.0918
  470MOL     O238460   1.604   2.753   3.423 -0.3718  0.3893 -0.4867
  470MOL     H338461   1.448   2.647   3.314  0.7479 -2.1392  3.3420
  470MOL     H438462   1.556   2.753   3.224 -1.8201 -0.3606 -0.3151
  470MOL     H538463   1.605   2.593   3.285  0.9965  0.7970 -1.8751
  470MOL     C638464   1.514   2.846   3.478 -0.4250 -1.1767 -0.4858
  470MOL     O738465   1.474   2.947   3.387 -0.7877  0.0498  0.0074
  470MOL     H838466   1.561   2.894   3.565 -0.9883  0.7086 -1.1912
  470MOL     H938467   1.427   2.793   3.516 -0.1808 -1.7235 -0.6918
  470MOL    C1038468   1.550   3.061   3.385 -0.0402  0.4533  0.1383
  470MOL    O1138469   1.545   3.127   3.505  0.4654  0.0862  0.0611
  470MOL    H1238470   1.506   3.120   3.304 -0.6873 -1.3800 -0.8894
  470MOL    H1338471   1.655   3.035   3.368 -0.2403  0.1457 -0.7142
  470MOL    C1438472   1.418   3.175   3.537 -0.4382 -0.5585  0.2977
  470MOL    O1538473   1.388   3.305   3.478  0.0540  0.0078 -0.3909
  470MOL    H1638474   1.406   3.177   3.646 -0.1410 -2.4512  0.3912
  470MOL    H1738475   1.342   3.116   3.485  0.1144 -1.1231  0.1225
  470MOL    C1838476   1.434   3.410   3.553 -0.1179  0.8200  1.2835
  470MOL    O1938477   1.347   3.448   3.657  0.1185 -0.2038 -0.0589
  470MOL    H2038478   1.434   3.499   3.490  1.4097 -0.6522 -0.8799
  470MOL    H2138479   1.530   3.368   3.583  1.6707  1.7934 -2.7052
  470MOL    C2238480   1.230   3.501   3.602 -0.0119 -0.0312  0.5167
  470MOL    O2338481   1.243   3.613   3.521  0.4417 -0.8637 -0.0269
  470MOL    H2438482   1.159   3.516   3.683 -0.6752  0.7952 -0.1971
  470MOL    H2538483   1.187   3.436   3.526  1.6904 -0.5360 -0.0363
  470MOL    C2638484   1.302   3.722   3.589  0.2913 -0.0143  0.2292
  470MOL    O2738485   1.304   3.842   3.509 -0.2945 -0.2210 -0.1095
  470MOL    H2838486   1.407   3.697   3.600 -0.2776 -2.9886 -0.7921
  470MOL    H2938487   1.237   3.741   3.675 -0.5488  1.7330 -0.7497
  470MOL    C3038488   1.184   3.916   3.504  0.2566  0.1137 -0.0418
  470MOL    O3138489   1.202   4.057   3.520 -0.6006  0.4501  0.7445
  470MOL    H3238490   1.125   3.894   3.592 -0.9100 -0.4210 -0.9457
  470MOL    H3338491   1.124   3.909   3.413 -1.6152 -0.0018  1.1791
  470MOL    C3438492   1.257   4.120   3.408  0.3587 -0.0486 -0.3678
  470MOL    O3538493   1.157   4.150   3.306  0.2231 -0.5455 -0.8035
  470MOL    H3638494   1.344   4.066   3.371  1.2572 -2.0181  4.2198
  470MOL    H3738495   1.303   4.215   3.434  1.5200 -0.4846 -0.7958
  470MOL    C3838496   1.056   4.229   3.360 -0.6815 -0.5485 -0.3326
  470MOL    O3938497   1.114   4.350   3.402  0.2708 -0.6193  0.7133
  470MOL    H4038498   1.018   4.169   3.443  1.3983  0.4753  1.4406
  470MOL    H4138499   0.974   4.255   3.294 -0.8638  0.7956  0.4005
  470MOL    C4238500   1.035   4.427   3.481  0.5966  0.2101 -0.2356
  470MOL    O4338501   1.008   4.370   3.611  0.1916 -0.5132 -0.3423
  470MOL    H4438502   0.949   4.451   3.419 -0.4292 -2.4302  0.0919
  470MOL    H4538503   1.087   4.522   3.496 -2.5502  1.5107  3.1337
  470MOL    C4638504   1.114   4.353   3.695  0.2138  0.3286 -0.2171
  470MOL    O4738505   1.155   4.469   3.762 -1.1573 -0.3999 -0.5885
  470MOL    H4838506   1.205   4.326   3.642  0.3176 -1.5572  0.8908
  470MOL    H4938507   1.098   4.265   3.757 -0.7194  2.1471  2.1734
  470MOL    C5038508   1.071   4.519   3.859  0.0277 -0.1116  0.6954
  470MOL    O5138509   1.053   4.430   3.969  0.2942 -0.1214  0.2962
  470MOL    H5238510   0.968   4.539   3.828  1.9034  1.9521 -4.7962
  470MOL    H5338511   1.125   4.610   3.886  2.2644 -1.0390 -0.5306
  470MOL    C5438512   1.175   4.408   4.032  0.2610 -0.4010 -0.2380
  470MOL    O5538513   1.169   4.293   4.101  0.4484  0.1271  0.2062
  470MOL    H5638514   1.197   4.499   4.087 -1.3275  0.1720 -0.5381
  470MOL    H5738515   1.248   4.391   3.953  1.7235 -2.1637  1.4283
  470MOL    C5838516   1.081   4.290   4.212  0.6725 -0.2448 -0.1283
  470MOL    O5938517   1.142   4.361   4.321 -0.2291 -0.2584  0.5504
  470MOL    H6038518   1.064   4.185   4.236 -1.1764  1.2751  6.1082
  470MOL    H6138519   0.984   4.327   4.179  0.4377  0.3173  1.1710
  470MOL    C6238520   1.249   4.289   4.374 -0.7609  0.0462  0.7163
  470MOL    O6338521   1.207   4.182   4.446 -0.0650  0.3858  0.0285
  470MOL    H6438522   1.299   4.357   4.442 -0.1718  1.2126 -0.8514
  470MOL    H6538523   1.319   4.251   4.299 -0.8618  0.7194  0.2764
  470MOL    C6638524   1.112   4.215   4.551 -0.1720 -0.3685 -0.3224
  470MOL    O6738525   0.982   4.196   4.512 -0.0754 -0.3782 -0.1292
  470MOL    H6838526   1.107   4.322   4.571 -1.8762 -0.7578  1.5721
  470MOL    H6938527   1.141   4.175   4.648 -2.2300 -0.8008  0.1478
  470MOL    C7038528   0.939   4.063   4.491 -0.6658  0.0056 -0.1744
  470MOL    O7138529   0.934   3.992   4.607 -0.6941 -1.0645  0.2737
  470MOL    H7238530   1.001   4.015   4.416  0.2305 -1.2897  1.3631
  470MOL    H7338531   0.836   4.062   4.455 -0.6099  0.5294 -0.3524
  470MOL    C7438532   0.841   4.044   4.690 -0.1449  0.8065  0.2087
  470MOL    O7538533   0.711   4.000   4.658 -0.4780  0.0356  0.3532
  470MOL    H7638534   0.842   4.152   4.705  0.3701  0.9118 -0.5538
  470MOL    H7738535   0.875   3.994   4.781  1.7355  1.3321 -0.1801
  470MOL    C7838536   0.695   3.861   4.664 -0.1728 -0.2099  0.1183
  470MOL    O7938537   0.565   3.822   4.613 -0.2082  0.6002 -0.0661
  470MOL    H8038538   0.697   3.838   4.770  1.2768 -0.3932  0.0513
  470MOL    H8138539   0.777   3.806   4.619  0.5240  0.7790  0.1578
  470MOL    H8238540   0.499   3.832   4.680 -0.7794 -2.5594 -0.0774
  471MOL     C138541   0.193   0.308   2.913  0.2955 -0.1010  0.1035
  471MOL     O238542   0.068   0.262   2.967  0.1310  0.5370 -0.0987
  471MOL     H338543   0.250   0.370   2.982 -0.2474  0.6634 -0.1288
  471MOL     H438544   0.256   0.221   2.893  1.9494  1.3195 -0.9536
  471MOL     H538545   0.177   0.353   2.815  0.9680 -3.0974 -1.4555
  471MOL     C638546   0.076   0.203   3.095 -0.1242 -0.5503  0.2017
  471MOL     O738547   0.162   0.097   3.082 -0.2447 -0.0292  0.4204
  471MOL     H838548   7.761   0.159   3.113  0.7895 -2.6417  0.2751
  471MOL     H938549   0.082   0.267   3.183 -0.1616  2.2939 -1.8281
  471MOL    C1038550   0.151   7.783   3.181  1.0017 -0.5244  0.0613
  471MOL    O1138551   0.048   7.691   3.149 -0.1303  0.5172 -0.9475
  471MOL    H1238552   0.139   0.035   3.283 -0.7966 -3.3529  0.9050
  471MOL    H1338553   0.244   7.726   3.181  0.0236 -2.1389  0.6370
  471MOL    C1438554   0.083   7.616   3.040  0.5579  0.6362 -0.2736
  471MOL    O1538555   0.158   7.507   3.069  0.7906 -0.0788  0.3835
  471MOL    H1638556   0.144   7.670   2.967  2.0487  1.1215  1.3133
  471MOL    H1738557   7.776   7.596   2.982  0.8212 -1.4883  0.0088
  471MOL    C1838558   0.075   7.395   3.097  0.0667  0.2039  0.1224
  471MOL    O1938559   0.048   7.322   2.985  0.4202 -0.7420 -0.4119
  471MOL    H2038560   7.769   7.435   3.145  1.4042  2.3817  0.8772
  471MOL    H2138561   0.122   7.330   3.171  0.3064  0.2842  0.0404
  471MOL    C2238562   0.161   7.249   2.939  0.1624 -0.6350  0.1485
  471MOL    O2338563   0.183   7.137   3.008  0.1287  0.3385 -0.2022
  471MOL    H2438564   0.249   7.312   2.928  0.9191 -1.5777  0.7061
  471MOL    H2538565   0.149   7.204   2.840 -1.6243 -0.0589  0.0845
  471MOL    C2638566   0.104   7.026   2.971  0.4898 -0.7171  0.6267
  471MOL    O2738567   7.751   7.040   2.985  0.0859  0.8993  0.7721
  471MOL    H2838568   0.141   6.945   3.033 -0.5070 -2.3649 -0.9124
  471MOL    H2938569   0.131   6.995   2.870  1.6891  0.5146  0.5629
  471MOL    C3038570   7.712   7.057   3.114 -0.2353  0.1306  0.4180
  471MOL    O3138571   7.705   6.929   3.184 -0.3235  0.2745  0.0214
  471MOL    H3238572   7.616   7.104   3.096 -0.0736  0.5473  0.6271
  471MOL    H3338573   7.782   7.122   3.166  0.2033 -0.6056  0.7529
  471MOL    C3438574   7.575   6.867   3.171  0.4742  0.3770 -0.2967
  471MOL    O3538575   7.481   6.929   3.252  0.0571 -0.0227  0.7159
  471MOL    H3638576   7.583   6.761   3.195  1.1310  0.6805  0.8606
  471MOL    H3738577   7.535   6.879   3.070  2.8837  0.1446 -1.3067
  471MOL    C3838578   7.497   6.890   3.387  0.0121  0.1926 -0.0039
  471MOL    O3938579   7.436   6.765   3.404  0.8306 -0.5578 -0.7135
  471MOL    H4038580   7.458   6.964   3.457 -1.8634  0.7338 -1.5702
  471MOL    H4138581   7.604   6.882   3.408 -0.1205 -1.8310 -0.0023
  471MOL    C4238582   7.300   6.773   3.424 -0.9700 -0.6221  0.5377
  471MOL    O4338583   7.269   6.822   3.551 -0.0785 -0.0832  0.2916
  471MOL    H4438584   7.270   6.669   3.418 -0.9733 -0.6728  1.3281
  471MOL    H4538585   7.255   6.836   3.347  1.8889  0.5293 -0.2314
  471MOL    C4638586   7.256   6.721   3.646 -0.2051 -0.2968 -0.1640
  471MOL    O4738587   7.367   6.628   3.647  0.6125  0.3953 -0.0013
  471MOL    H4838588   7.167   6.659   3.634 -0.7516  0.5057 -0.2564
  471MOL    H4938589   7.248   6.766   3.745 -2.6790 -0.1436 -0.4095
  471MOL    C5038590   7.474   6.678   3.724 -0.8993  0.1037 -0.2765
  471MOL    O5138591   7.457   6.667   3.861 -0.0925 -0.9519 -0.0574
  471MOL    H5238592   7.487   6.783   3.699 -1.0017  0.2331  0.2076
  471MOL    H5338593   7.565   6.627   3.692 -0.8921 -0.9953  1.3953
  471MOL    C5438594   7.515   6.548   3.910 -0.0116  0.0499  0.5379
  471MOL    O5538595   7.651   6.547   3.910  0.2489 -0.1811  0.2211
  471MOL    H5638596   7.480   6.472   3.840 -1.2816 -0.7669  2.0063
  471MOL    H5738597   7.471   6.531   4.008  0.7176  1.1311  1.0619
  471MOL    C5838598   7.709   6.639   4.000 -0.7374  0.2362 -0.5040
  471MOL    O5938599   7.694   6.605   4.137  0.6069 -0.4432 -0.2167
  471MOL    H6038600   7.669   6.738   3.978 -1.1645  0.8870  2.8915
  471MOL    H6138601   0.031   6.659   3.980 -0.3282  0.2157  1.5304
  471MOL    C6238602   7.767   6.491   4.169  0.1515  0.1646  0.3300
  471MOL    O6338603   7.739   6.457   4.304  0.1075 -0.0489  0.6115
  471MOL    H6438604   0.085   6.527   4.182 -0.9703  4.4965 -2.0778
  471MOL    H6538605   7.768   6.414   4.092  0.5618 -1.9989  2.4186
  471MOL    C6638606   7.776   6.554   4.399 -0.6490  0.1207 -0.0811
  471MOL    O6738607   0.129   6.548   4.424 -0.0704 -0.1687 -0.3015
  471MOL    H6838608   7.721   6.511   4.482 -0.4222 -0.7944 -0.3953
  471MOL    H6938609   7.742   6.654   4.372 -1.9483 -0.4167 -0.4545
  471MOL    C7038610   0.171   6.424   4.474 -0.0688 -0.4045 -0.0697
  471MOL    O7138611   0.310   6.406   4.470 -0.4295  0.2324 -0.6520
  471MOL    H7238612   0.144   6.341   4.409  0.2161 -1.7432  1.5075
  471MOL    H7338613   0.115   6.396   4.563  1.4444  0.3788  1.1614
  471MOL    C7438614   0.369   6.491   4.567  0.1042  0.3703  0.1968
  471MOL    O7538615   0.495   6.521   4.523  0.1859  0.5392 -0.1015
  471MOL    H7638616   0.385   6.442   4.663  0.5928 -0.8305 -0.4915
  471MOL    H7738617   0.320   6.587   4.586  1.0508  0.5629  1.7880
  471MOL    C7838618   0.492   6.620   4.431 -0.3720 -0.0184 -0.2900
  471MOL    O7938619   0.418   6.587   4.309  0.6750 -0.0201 -0.1864
  471MOL    H8038620   0.590   6.647   4.393 -0.3569 -0.7256 -0.7617
  471MOL    H8138621   0.451   6.708   4.479 -0.4581 -2.4377  4.4019
  471MOL    H8238622   0.334   6.552   4.333  0.7760 -0.6857 -0.7959
  472MOL     C138623   1.595   1.696   2.597 -0.4251  1.0932 -0.1535
  472MOL     O238624   1.507   1.799   2.642 -0.1971 -0.3096  0.5694
  472MOL     H338625   1.653   1.662   2.683 -1.4165 -1.5659 -0.4818
  472MOL     H438626   1.552   1.600   2.568  1.3271  0.3356 -0.3197
  472MOL     H538627   1.670   1.722   2.522  2.1311 -3.2428  0.7104
  472MOL     C638628   1.575   1.925   2.662 -0.4634  0.1048 -0.3502
  472MOL     O738629   1.642   1.928   2.780  0.4459  0.5223  0.3899
  472MOL     H838630   1.505   2.009   2.661 -0.0559  0.4555  0.1518
  472MOL     H938631   1.641   1.940   2.577  0.7185  2.0864  0.8953
  472MOL    C1038632   1.562   1.953   2.894 -0.1584  0.0975  0.9177
  472MOL    O1138633   1.518   2.085   2.901 -0.4173 -0.5392 -0.3386
  472MOL    H1238634   1.633   1.929   2.973  2.2364 -1.3638 -1.5882
  472MOL    H1338635   1.472   1.893   2.907 -0.2183 -0.2896 -1.1682
  472MOL    C1438636   1.617   2.178   2.881 -0.1852  0.6606  0.4879
  472MOL    O1538637   1.576   2.307   2.873  0.4043 -0.9167 -0.6902
  472MOL    H1638638   1.688   2.168   2.798 -2.1854  1.6275 -1.3721
  472MOL    H1738639   1.684   2.171   2.967 -0.8349  1.2327  1.0345
  472MOL    C1838640   1.480   2.333   2.773  0.2244  0.3202 -0.0675
  472MOL    O1938641   1.448   2.471   2.761  0.1340  0.3460  0.5079
  472MOL    H2038642   1.391   2.270   2.781 -1.2069  2.1235 -1.2760
  472MOL    H2138643   1.534   2.307   2.682  1.5080  0.1449  0.7268
  472MOL    C2238644   1.548   2.552   2.714 -0.6361 -0.2482  0.2984
  472MOL    O2338645   1.523   2.686   2.700 -0.4651  0.2187  0.4237
  472MOL    H2438646   1.588   2.512   2.621 -1.3504 -1.2613  0.4226
  472MOL    H2538647   1.625   2.532   2.789 -1.1435 -1.9475  0.3810
  472MOL    C2638648   1.516   2.750   2.830  0.3423 -0.0452 -0.5286
  472MOL    O2738649   1.642   2.748   2.903 -0.2252  0.3191 -0.4559
  472MOL    H2838650   1.444   2.698   2.893 -0.0196  1.3908  0.2627
  472MOL    H2938651   1.468   2.843   2.801 -1.5006  0.2910  3.3063
  472MOL    C3038652   1.712   2.868   2.884  0.0119 -1.1731 -0.1717
  472MOL    O3138653   1.641   2.981   2.923  0.3054  0.0625  0.2577
  472MOL    H3238654   1.717   2.878   2.776  1.2419 -0.5372 -0.0571
  472MOL    H3338655   1.812   2.853   2.924 -0.2417 -0.0832  0.8973
  472MOL    C3438656   1.652   3.002   3.060 -0.0259  0.5606  0.4095
  472MOL    O3538657   1.779   3.043   3.097 -0.0042 -0.2669 -0.4812
  472MOL    H3638658   1.614   2.907   3.096  0.6993 -0.5257 -1.5845
  472MOL    H3738659   1.589   3.085   3.093  0.4560 -0.2052  3.3814
  472MOL    C3838660   1.824   3.161   3.047  0.0787 -0.2707  0.5360
  472MOL    O3938661   1.753   3.268   3.087  0.3801 -0.0629  0.0383
  472MOL    H4038662   1.822   3.143   2.939  0.5608  0.4585  0.4024
  472MOL    H4138663   1.927   3.174   3.080  0.1772 -1.7049  0.8405
  472MOL    C4238664   1.809   3.385   3.046 -0.5451 -0.0771 -0.8738
  472MOL    O4338665   1.827   3.393   2.910 -0.1731 -0.2342  0.2102
  472MOL    H4438666   1.905   3.388   3.098  0.5924  1.2902 -2.9800
  472MOL    H4538667   1.752   3.468   3.089 -1.1439 -0.1029 -1.6044
  472MOL    C4638668   1.706   3.414   2.842  0.2738 -0.0106  0.2569
  472MOL    O4738669   1.658   3.541   2.879  0.2766 -0.0260 -0.0722
  472MOL    H4838670   1.633   3.337   2.869  2.5535 -1.7157  1.6701
  472MOL    H4938671   1.731   3.400   2.737  0.0115 -1.4495  0.3726
  472MOL    C5038672   1.732   3.644   2.829  0.6807  0.6251 -0.0636
  472MOL    O5138673   1.671   3.763   2.840 -0.4851  0.0747 -0.1910
  472MOL    H5238674   1.761   3.633   2.725  0.3518  0.5076 -0.1453
  472MOL    H5338675   1.826   3.642   2.884  1.3495 -1.1453 -1.2355
  472MOL    C5438676   1.581   3.789   2.740  0.9139  0.4754  1.2545
  472MOL    O5538677   1.648   3.821   2.623 -0.0636 -0.2956  0.2163
  472MOL    H5638678   1.514   3.873   2.759  0.1870  0.8171 -2.3614
  472MOL    H5738679   1.515   3.702   2.729  0.2734  0.7528  2.7425
  472MOL    C5838680   1.565   3.835   2.509  0.5798 -0.2402 -0.3076
  472MOL    O5938681   1.496   3.715   2.490 -0.0783  0.4540 -0.3141
  472MOL    H6038682   1.633   3.872   2.432  0.2815 -1.4503 -1.1650
  472MOL    H6138683   1.486   3.910   2.519 -0.7775 -1.8018  0.9782
  472MOL    C6238684   1.583   3.612   2.445 -0.1618  0.3358 -0.2271
  472MOL    O6338685   1.614   3.623   2.307 -0.0605  0.4029  0.2743
  472MOL    H6438686   1.528   3.522   2.473 -0.0206  1.3056  3.3951
  472MOL    H6538687   1.666   3.607   2.515  0.1850 -1.6294 -0.7520
  472MOL    C6638688   1.515   3.566   2.223  0.0168 -0.0102  0.2195
  472MOL    O6738689   1.551   3.567   2.090 -0.1043 -0.3135  0.7835
  472MOL    H6838690   1.418   3.614   2.235  0.1731  0.3221  0.1789
  472MOL    H6938691   1.476   3.470   2.254 -1.6640  0.3080 -0.8513
  472MOL    C7038692   1.666   3.487   2.054 -0.4131  0.4229  0.1286
  472MOL    O7138693   1.654   3.451   1.917  0.5014  0.4922 -0.7785
  472MOL    H7238694   1.669   3.397   2.115  0.8735  1.1787  1.1982
  472MOL    H7338695   1.766   3.528   2.069  0.4773 -0.6230 -2.6147
  472MOL    C7438696   1.695   3.555   1.836  0.6544 -0.3110  0.0231
  472MOL    O7538697   1.837   3.577   1.841  0.1292  1.0499 -0.2448
  472MOL    H7638698   1.647   3.649   1.865  0.7548 -0.2856  0.1090
  472MOL    H7738699   1.655   3.539   1.736 -0.4161  1.5279  0.1310
  472MOL    C7838700   1.890   3.667   1.749  0.7668  0.5140 -0.8955
  472MOL    O7938701   2.028   3.672   1.764  0.3925 -0.0816 -0.4578
  472MOL    H8038702   1.853   3.768   1.769 -3.6722 -0.9805 -1.0359
  472MOL    H8138703   1.863   3.639   1.648 -0.9506  2.9767 -1.1720
  472MOL    H8238704   2.070   3.695   1.683 -0.6328  0.1183 -0.9496
  473MOL     C138705   1.292   0.839   7.605 -0.1418 -0.3008  0.0962
  473MOL     O238706   1.336   0.707   7.640 -0.8139 -0.5309 -0.3221
  473MOL     H338707   1.241   0.883   7.691  0.5869 -2.4238  1.6574
  473MOL     H438708   1.378   0.896   7.568 -0.7751 -0.9664 -2.4952
  473MOL     H538709   1.225   0.845   7.519 -1.2055 -0.4048  0.9072
  473MOL     C638710   1.411   0.647   7.545 -0.0239 -0.3096  0.0398
  473MOL     O738711   1.529   0.716   7.527 -0.2990  0.1165 -0.1406
  473MOL     H838712   1.356   0.656   7.451  0.7547 -0.4762 -0.4314
  473MOL     H938713   1.429   0.544   7.574  0.9752 -0.1787 -0.0859
  473MOL    C1038714   1.609   0.717   7.642 -0.7910  0.5769 -0.3050
  473MOL    O1138715   1.634   0.583   7.677 -0.0910 -0.1520 -0.2250
  473MOL    H1238716   1.559   0.767   7.725  0.9476  2.3619 -0.2939
  473MOL    H1338717   1.707   0.759   7.620 -0.7693  0.1505 -1.0279
  473MOL    C1438718   1.706   0.513   7.578  0.9829  0.3252  0.6320
  473MOL    O1538719   1.841   0.497   7.601 -0.3257  0.5547 -0.2111
  473MOL    H1638720   1.690   0.563   7.482 -1.2938 -0.5446  0.5386
  473MOL    H1738721   1.655   0.419   7.562  0.8717  0.3521  0.8363
  473MOL    C1838722   1.865   0.390   7.695 -0.1762 -0.1425  0.1926
  473MOL    O1938723   1.826   0.266   7.639  0.3619  0.0762 -0.9093
  473MOL    H2038724   1.820   0.408   0.009  2.1560  1.6523  0.9629
  473MOL    H2138725   1.972   0.393   7.713 -0.1038 -3.1943  0.3907
  473MOL    C2238726   1.867   0.165   7.732 -0.5090 -0.6447 -0.7210
  473MOL    O2338727   2.009   0.146   7.730 -0.1315  0.5651  0.7598
  473MOL    H2438728   1.815   0.077   7.696 -0.7581 -0.8877  0.2318
  473MOL    H2538729   1.827   0.192   0.046  0.9875  1.7979 -0.7339
  473MOL    C2638730   2.050   0.057   0.044  0.3301  1.0840 -0.2781
  473MOL    O2738731   1.977   7.728   0.049 -0.2914 -0.1126 -0.0948
  473MOL    H2838732   2.032   0.115   0.134  1.8362  0.5070  0.4262
  473MOL    H2938733   2.158   0.039   0.043  0.0999 -0.4223 -0.1621
  473MOL    C3038734   2.008   7.649   0.158  0.3594 -0.5236 -0.1808
  473MOL    O3138735   1.947   7.694   0.279  0.4605  0.5004  0.3571
  473MOL    H3238736   2.115   7.638   0.175  0.5258  1.0384 -0.1584
  473MOL    H3338737   1.967   7.552   0.129  0.5376 -0.3823 -0.8975
  473MOL    C3438738   1.822   7.628   0.303  0.4896 -1.2219 -0.0375
  473MOL    O3538739   1.828   7.502   0.359 -0.1295 -0.0699  0.7086
  473MOL    H3638740   1.756   7.630   0.216  0.7364  0.2276 -0.2003
  473MOL    H3738741   1.775   7.681   0.386  1.3748  0.6621 -0.7147
  473MOL    C3838742   1.915   7.481   0.469 -0.3995 -0.6089 -0.0259
  473MOL    O3938743   1.924   7.590   0.559 -0.0136 -0.4150  0.0939
  473MOL    H4038744   2.017   7.463   0.434  0.0687 -0.9016  1.4252
  473MOL    H4138745   1.886   7.381   0.503 -3.6837 -0.4215 -2.0647
  473MOL    C4238746   1.834   7.570   0.670 -0.1720  0.0620 -0.1634
  473MOL    O4338747   1.786   7.697   0.706  0.5760  0.4643  0.0393
  473MOL    H4438748   1.888   7.516   0.748  0.9070 -1.9255 -2.2328
  473MOL    H4538749   1.746   7.513   0.639  0.6728 -0.5314 -1.4806
  473MOL    C4638750   1.884   0.008   0.746  0.0133 -0.4840 -0.4062
  473MOL    O4738751   1.898   0.037   0.881 -0.1460  0.2260 -0.2995
  473MOL    H4838752   1.840   0.099   0.704 -0.1431  0.4440  1.7190
  473MOL    H4938753   1.978   7.782   0.692 -0.4401 -0.0996 -1.2826
  473MOL    C5038754   1.921   7.704   0.962  0.6130  0.3049  0.1782
  473MOL    O5138755   1.807   7.630   0.995  0.2849  0.2093 -0.0638
  473MOL    H5238756   1.974   7.732   1.053 -1.1945  1.0900  1.0262
  473MOL    H5338757   1.993   7.648   0.903  0.6502  0.2855  0.2419
  473MOL    C5438758   1.718   7.713   1.063  0.6569  0.2241 -0.5082
  473MOL    O5538759   1.749   7.759   1.191 -0.0785  0.0013  0.1961
  473MOL    H5638760   1.623   7.664   1.083 -0.0140  1.2778 -1.0387
  473MOL    H5738761   1.694   0.014   0.999  2.4876  1.0387 -0.1770
  473MOL    C5838762   1.746   7.667   1.296 -0.4321  0.0643 -0.2183
  473MOL    O5938763   1.637   7.693   1.377 -0.1409 -0.1673 -0.4302
  473MOL    H6038764   1.844   7.679   1.342 -0.4724  0.4553 -0.2319
  473MOL    H6138765   1.754   7.565   1.259  1.1524  0.0238  0.2131
  473MOL    C6238766   1.654   0.014   1.467 -0.5170 -0.5756 -1.0149
  473MOL    O6338767   1.742   7.772   1.576 -0.0634  0.2460  0.0726
  473MOL    H6438768   1.554   0.037   1.503 -0.5954 -2.4352  0.0053
  473MOL    H6538769   1.676   0.110   1.419  3.1227 -1.6569 -1.6862
  473MOL    C6638770   1.716   0.074   1.680  1.2367  0.0489 -0.5153
  473MOL    O6738771   1.747   0.206   1.649 -0.3179 -0.1289  0.7200
  473MOL    H6838772   1.759   0.048   1.777  0.6204 -1.2766 -0.5928
  473MOL    H6938773   1.609   0.080   1.702  1.2612  0.4914 -0.5032
  473MOL    C7038774   1.887   0.229   1.621  0.2972  0.4318 -0.0820
  473MOL    O7138775   1.961   0.234   1.735  0.3260 -0.2728  0.1560
  473MOL    H7238776   1.887   0.322   1.564 -1.2687  0.6195  0.2080
  473MOL    H7338777   1.911   0.155   1.543 -0.8058  1.3845 -1.3518
  473MOL    C7438778   2.097   0.251   1.724  0.2171  0.0307  0.5222
  473MOL    O7538779   2.123   0.374   1.663 -0.6343  0.0250 -0.4674
  473MOL    H7638780   2.140   0.168   1.669 -1.9558 -0.4794 -0.4539
  473MOL    H7738781   2.148   0.248   1.820 -0.8767  1.9902  1.1806
  473MOL    C7838782   2.089   0.479   1.746 -0.1010 -0.8005 -0.5603
  473MOL    O7938783   2.154   0.591   1.705  0.1787  0.6014  0.3723
  473MOL    H8038784   2.124   0.463   1.848  0.7585 -3.0399 -1.1788
  473MOL    H8138785   1.982   0.503   1.749  0.4788  1.7829  1.4080
  473MOL    H8238786   2.117   0.629   1.627 -1.7268 -0.0810  0.9265
  474MOL     C138787   0.276   1.215   5.046 -0.0963  0.5381 -0.7968
  474MOL     O238788   0.400   1.196   5.112 -0.1961  0.0571 -0.3667
  474MOL     H338789   0.293   1.231   4.940  1.1294  0.5982 -0.6003
  474MOL     H438790   0.215   1.125   5.056 -0.4013  0.8756  0.4441
  474MOL     H538791   0.213   1.295   5.085 -0.0699  0.4100 -0.4918
  474MOL     C638792   0.491   1.303   5.092 -0.3849  0.7047 -0.1347
  474MOL     O738793   0.446   1.424   5.153  0.0081 -0.1378  0.2840
  474MOL     H838794   0.495   1.313   4.983  1.9144  0.9658 -0.0473
  474MOL     H938795   0.587   1.281   5.139  0.2831  0.7692 -1.4453
  474MOL    C1038796   0.436   1.416   5.294 -0.4076  0.3755  0.2587
  474MOL    O1138797   0.392   1.547   5.338 -0.4163 -0.3350  0.4433
  474MOL    H1238798   0.536   1.402   5.335 -0.5252  0.4673  0.5762
  474MOL    H1338799   0.374   1.334   5.329 -1.0144  0.7610  0.0962
  474MOL    C1438800   0.262   1.579   5.297  0.3396 -0.0492 -0.0800
  474MOL    O1538801   0.166   1.497   5.343 -0.3617  0.2346 -0.1404
  474MOL    H1638802   0.272   1.586   5.188  2.9403  0.2063  0.1384
  474MOL    H1738803   0.234   1.678   5.332  0.1900 -0.6998  1.6853
  474MOL    C1838804   0.151   1.502   5.488  0.1417 -0.2563 -0.3366
  474MOL    O1938805   0.052   1.428   5.545  0.1272  0.3053  0.7039
  474MOL    H2038806   0.152   1.603   5.529  2.0781 -0.5133  0.3138
  474MOL    H2138807   0.242   1.460   5.532  0.6374 -0.0562 -1.1577
  474MOL    C2238808   7.715   1.479   5.528 -0.0249  0.1967 -0.6700
  474MOL    O2338809   7.694   1.595   5.599 -0.2416  0.9413 -0.3788
  474MOL    H2438810   7.639   1.407   5.558 -0.5469  0.1273 -2.1245
  474MOL    H2538811   7.704   1.507   5.423 -0.9112  2.1612 -0.0724
  474MOL    C2638812   7.702   1.579   5.737 -0.1090  1.2522 -0.3421
  474MOL    O2738813   7.679   1.698   5.809 -0.7803  0.7024  0.0756
  474MOL    H2838814   0.009   1.525   5.765 -2.1943 -2.2969 -0.2235
  474MOL    H2938815   7.622   1.512   5.766  1.7785 -0.7302  0.4450
  474MOL    C3038816   7.775   1.794   5.778  0.1595 -0.0293 -0.7201
  474MOL    O3138817   7.755   1.906   5.855 -0.5197  0.3651  0.3934
  474MOL    H3238818   7.769   1.815   5.671  1.6187  0.5264 -0.7005
  474MOL    H3338819   0.087   1.747   5.798 -0.4793 -1.0063  0.0713
  474MOL    C3438820   0.046   1.894   5.972  0.0681 -0.2706 -0.2052
  474MOL    O3538821   0.176   1.910   5.940  0.0322  0.5168 -0.5751
  474MOL    H3638822   0.015   1.811   6.036 -2.5210 -0.1064 -1.1890
  474MOL    H3738823   0.017   1.986   6.022  5.0366  0.5630  1.4069
  474MOL    C3838824   0.261   1.902   6.052  0.0898 -0.1534 -0.2467
  474MOL    O3938825   0.270   1.777   6.111 -0.7855  0.3099 -0.5009
  474MOL    H4038826   0.240   1.982   6.123 -2.7306 -0.3217 -0.8338
  474MOL    H4138827   0.361   1.928   6.017 -0.0080 -2.7870 -2.7340
  474MOL    C4238828   0.379   1.759   6.197  0.4706 -0.2568  0.4467
  474MOL    O4338829   0.504   1.757   6.127 -0.5367  0.4371 -0.1990
  474MOL    H4438830   0.374   1.680   6.272 -0.3347  1.6926  2.4979
  474MOL    H4538831   0.388   1.856   6.246 -0.5727 -0.6925  1.5323
  474MOL    C4638832   0.516   1.644   6.044  0.0967  0.5334 -0.0682
  474MOL    O4738833   0.550   1.526   6.120  0.2828  0.5274  0.2429
  474MOL    H4838834   0.602   1.664   5.980 -0.4060 -3.9160 -2.3574
  474MOL    H4938835   0.425   1.640   5.984 -0.1524  1.5771  0.2320
  474MOL    C5038836   0.683   1.517   6.148  0.0862 -0.4259  0.3397
  474MOL    O5138837   0.754   1.491   6.030  0.2005  0.5377  0.1172
  474MOL    H5238838   0.691   1.430   6.214  0.3818  0.5899  1.6643
  474MOL    H5338839   0.714   1.603   6.208  1.0867 -1.1717  0.9218
  474MOL    C5438840   0.890   1.486   6.051  0.5012  0.0679 -0.1081
  474MOL    O5538841   0.954   1.536   5.939 -0.1263  0.2992  0.1432
  474MOL    H5638842   0.914   1.380   6.065 -0.0653 -0.0289  0.1749
  474MOL    H5738843   0.922   1.546   6.136  0.3694 -1.8386  1.3375
  474MOL    C5838844   0.938   1.669   5.924 -0.7334  0.2825 -0.2606
  474MOL    O5938845   1.054   1.740   5.961  0.3549  0.4635 -0.2826
  474MOL    H6038846   0.851   1.711   5.974  0.9302  2.7696  0.6511
  474MOL    H6138847   0.907   1.695   5.822 -0.3761  2.6826  0.2217
  474MOL    C6238848   1.164   1.714   5.880 -0.3053 -0.7962  0.4263
  474MOL    O6338849   1.126   1.732   5.750 -0.6359 -0.6352 -0.0540
  474MOL    H6438850   1.209   1.622   5.918  1.8465  0.3617  0.7404
  474MOL    H6538851   1.237   1.794   5.891 -1.6835  0.7152 -1.1738
  474MOL    C6638852   1.226   1.709   5.653 -0.3235 -0.0774 -0.2193
  474MOL    O6738853   1.290   1.587   5.674 -0.7582 -0.2599  0.1995
  474MOL    H6838854   1.297   1.791   5.641  0.5497 -0.5439  1.4833
  474MOL    H6938855   1.179   1.713   5.555 -1.5807 -0.5055  0.3672
  474MOL    C7038856   1.209   1.479   5.638  0.0534  0.2042 -0.1033
  474MOL    O7138857   1.255   1.363   5.693  0.0410 -0.2717 -0.0825
  474MOL    H7238858   1.177   1.477   5.534 -0.6161  1.5357  0.0698
  474MOL    H7338859   1.115   1.485   5.693  1.1058  2.2850  1.5541
  474MOL    C7438860   1.355   1.296   5.614  0.1106 -0.4924 -0.2246
  474MOL    O7538861   1.308   1.248   5.499 -0.0285 -0.6456 -0.1651
  474MOL    H7638862   1.396   1.213   5.672  1.5219  1.3606  1.5007
  474MOL    H7738863   1.439   1.364   5.599 -0.0383 -0.6737 -1.9868
  474MOL    C7838864   1.215   1.152   5.514  0.5888 -0.2258  0.3098
  474MOL    O7938865   1.138   1.124   5.400  0.1096 -0.3106  0.0544
  474MOL    H8038866   1.155   1.167   5.604 -2.1116  0.1929 -1.5053
  474MOL    H8138867   1.264   1.056   5.532  0.2026 -0.7885 -1.5316
  474MOL    H8238868   1.188   1.074   5.337  0.1865 -0.4782  0.2489
  475MOL     C138869   5.166   3.066   4.528 -0.1196  0.2818  0.2932
  475MOL     O238870   5.238   2.971   4.611 -0.3682  0.6337  0.4200
  475MOL     H338871   5.146   3.158   4.582  0.1625  0.2810  0.3948
  475MOL     H438872   5.223   3.097   4.441 -1.7677  2.0875 -0.1751
  475MOL     H538873   5.072   3.018   4.499 -0.5851  2.3497 -1.8118
  475MOL     C638874   5.301   2.882   4.520 -0.1717  0.1734 -0.6718
  475MOL     O738875   5.416   2.940   4.461 -0.1569  0.0956  0.0588
  475MOL     H838876   5.227   2.854   4.445  0.9593  0.9471 -2.0802
  475MOL     H938877   5.328   2.788   4.568  3.6122  0.4383 -2.1423
  475MOL    C1038878   5.511   2.963   4.564 -0.3806 -0.3554 -0.7546
  475MOL    O1138879   5.571   2.838   4.596 -0.0358 -0.2883 -0.1929
  475MOL    H1238880   5.462   3.014   4.647  0.2737  0.8662 -1.1041
  475MOL    H1338881   5.584   3.033   4.523  0.3974 -0.0786  1.0771
  475MOL    C1438882   5.700   2.849   4.653  0.3525  0.1695 -0.7881
  475MOL    O1538883   5.795   2.898   4.564 -0.3234 -0.4308  0.9622
  475MOL    H1638884   5.740   2.753   4.685 -0.5135  0.4943  1.3632
  475MOL    H1738885   5.685   2.911   4.741  0.2363  0.0049 -0.6933
  475MOL    C1838886   5.830   2.812   4.463 -0.0991  0.5563  0.3962
  475MOL    O1938887   5.877   2.874   4.342 -0.4352 -0.0597  0.0444
  475MOL    H2038888   5.743   2.757   4.429  1.2969 -1.6341  0.2776
  475MOL    H2138889   5.907   2.735   4.476 -2.3134 -1.5778  1.1353
  475MOL    C2238890   5.795   2.967   4.289 -0.8367  0.0466 -0.8750
  475MOL    O2338891   5.839   2.986   4.157  0.7846  0.2237 -0.1055
  475MOL    H2438892   5.815   3.051   4.355  1.8254  0.7270 -2.4464
  475MOL    H2538893   5.693   2.930   4.290 -1.0605  0.6964  0.3189
  475MOL    C2638894   5.799   2.886   4.067 -0.7195  0.1438  0.0003
  475MOL    O2738895   5.668   2.898   4.029 -0.7163  0.6247  0.1224
  475MOL    H2838896   5.818   2.792   4.119  0.6170  1.2303  1.5295
  475MOL    H2938897   5.859   2.883   3.976 -0.6797  0.1110  0.0278
  475MOL    C3038898   5.647   2.996   3.932 -0.4274  0.4282  0.2081
  475MOL    O3138899   5.710   2.954   3.816  0.1537  0.3322 -0.3233
  475MOL    H3238900   5.695   3.088   3.968  1.4516 -0.2079 -0.6071
  475MOL    H3338901   5.543   3.024   3.920 -0.4053  0.8059  0.8520
  475MOL    C3438902   5.632   2.864   3.745  0.1490  0.6763 -0.4423
  475MOL    O3538903   5.528   2.933   3.688 -0.6509 -0.3511 -0.0689
  475MOL    H3638904   5.597   2.781   3.805  0.1449 -0.1880 -1.6197
  475MOL    H3738905   5.694   2.819   3.668  1.5563  0.1447  0.9729
  475MOL    C3838906   5.569   3.037   3.610  0.1179 -0.3084 -0.1810
  475MOL    O3938907   5.462   3.115   3.562 -0.2537 -0.2319  0.2378
  475MOL    H4038908   5.630   2.998   3.528 -0.1040  1.6984 -1.3295
  475MOL    H4138909   5.638   3.103   3.662 -0.9597  1.1767 -0.6056
  475MOL    C4238910   5.394   3.187   3.660 -0.1897  0.7398 -0.4402
  475MOL    O4338911   5.451   3.313   3.681 -0.0817 -0.3527 -0.2123
  475MOL    H4438912   5.389   3.136   3.756 -0.7892 -0.3683 -1.0636
  475MOL    H4538913   5.291   3.200   3.627 -0.1890 -0.1637 -0.8065
  475MOL    C4638914   5.385   3.391   3.771  1.3105  0.3408 -0.3036
  475MOL    O4738915   5.422   3.361   3.898  0.7808 -1.0957  0.6588
  475MOL    H4838916   5.280   3.363   3.775  1.2132  0.9106  2.1441
  475MOL    H4938917   5.405   3.495   3.745 -1.0080  1.2789  1.5026
  475MOL    C5038918   5.547   3.412   3.930 -0.2848 -0.2507  0.1540
  475MOL    O5138919   5.571   3.545   3.906 -0.5300  0.3008 -0.1493
  475MOL    H5238920   5.629   3.366   3.875 -1.2316 -1.4971 -0.2465
  475MOL    H5338921   5.572   3.398   4.035  0.7840 -2.2895 -0.3405
  475MOL    C5438922   5.495   3.627   3.981  0.7138 -0.6251  0.6343
  475MOL    O5538923   5.490   3.761   3.935  0.6761 -0.0722 -0.0498
  475MOL    H5638924   5.504   3.621   4.089  0.3399  0.4820  0.7273
  475MOL    H5738925   5.392   3.600   3.958  0.3659  1.0738  0.1633
  475MOL    C5838926   5.564   3.844   4.014 -0.0578 -0.0949  0.5344
  475MOL    O5938927   5.496   3.868   4.136 -0.1215 -0.4131 -0.2788
  475MOL    H6038928   5.590   3.930   3.952  1.5933 -0.4572  0.7169
  475MOL    H6138929   5.658   3.795   4.038 -0.9309 -2.1935 -0.1640
  475MOL    C6238930   5.390   3.956   4.112  0.0102 -0.6976  0.0321
  475MOL    O6338931   5.280   3.920   4.185  0.2372 -0.1354  0.4272
  475MOL    H6438932   5.367   3.963   4.006 -0.3932 -0.3914  0.1359
  475MOL    H6538933   5.414   4.056   4.148 -0.4038 -0.7563  0.4912
  475MOL    C6638934   5.210   3.809   4.135  0.4179 -0.0613 -0.6527
  475MOL    O6738935   5.110   3.757   4.216  0.2697 -0.0137 -0.5598
  475MOL    H6838936   5.286   3.731   4.131  0.1613 -0.4964  1.7680
  475MOL    H6938937   5.157   3.827   4.042  1.3441  3.0730 -0.6043
  475MOL    C7038938   5.028   3.855   4.268 -0.2523 -0.0304 -0.7671
  475MOL    O7138939   4.900   3.800   4.284  0.7775 -0.6420 -0.1441
  475MOL    H7238940   5.020   3.941   4.201  2.9808 -0.0334 -1.2540
  475MOL    H7338941   5.061   3.883   4.369 -1.8329 -3.1026  0.6521
  475MOL    C7438942   4.826   3.791   4.166 -0.0363 -0.1157  0.4299
  475MOL    O7538943   4.705   3.730   4.178  0.9052 -0.2146  0.0631
  475MOL    H7638944   4.890   3.742   4.093 -1.8755  1.1600 -2.0761
  475MOL    H7738945   4.800   3.890   4.130 -0.7626 -0.1395  0.8877
  475MOL    C7838946   4.715   3.611   4.251  0.2426 -0.1459  0.2476
  475MOL    O7938947   4.584   3.562   4.278 -0.2771  0.2394 -0.2328
  475MOL    H8038948   4.754   3.626   4.352  0.6745 -1.6922  0.3206
  475MOL    H8138949   4.773   3.529   4.209 -2.0118 -1.9093  0.4561
  475MOL    H8238950   4.547   3.605   4.354  1.1536  0.0277  0.6054
  476MOL     C138951   2.345   2.626   2.879 -0.0423 -0.0117 -0.2439
  476MOL     O238952   2.358   2.766   2.850 -0.0275 -0.4494 -0.4050
  476MOL     H338953   2.401   2.601   2.969 -1.5761  0.4808  0.8651
  476MOL     H438954   2.240   2.597   2.884 -0.3216  0.8116 -1.2766
  476MOL     H538955   2.373   2.559   2.797 -0.8336 -0.9164  0.2231
  476MOL     C638956   2.329   2.806   2.720  0.1506  0.3925  0.4204
  476MOL     O738957   2.209   2.875   2.716  0.3708 -0.2322  0.4626
  476MOL     H838958   2.339   2.728   2.645  0.3547 -1.2063  2.0629
  476MOL     H938959   2.404   2.881   2.695  0.8074 -0.7985 -1.3128
  476MOL    C1038960   2.099   2.793   2.727 -0.5244 -0.2549 -0.2871
  476MOL    O1138961   1.995   2.854   2.659 -0.1794  0.0310 -0.2734
  476MOL    H1238962   2.080   2.788   2.834 -1.0596  1.1638 -0.3106
  476MOL    H1338963   2.128   2.693   2.695 -0.0908  0.0460 -0.8332
  476MOL    C1438964   1.992   2.816   2.523  0.1124 -0.5637 -0.7039
  476MOL    O1538965   1.938   2.688   2.505  0.5418 -0.0462 -0.8099
  476MOL    H1638966   2.097   2.819   2.493  0.6265  2.8726  1.1426
  476MOL    H1738967   1.941   2.889   2.461  0.0184  2.6235  2.9292
  476MOL    C1838968   1.803   2.674   2.491 -0.1239 -0.6798  0.3208
  476MOL    O1938969   1.760   2.739   2.376  0.3123  0.1003 -0.0411
  476MOL    H2038970   1.757   2.714   2.581 -1.0684  2.4580 -1.4565
  476MOL    H2138971   1.778   2.569   2.477  1.4312 -0.7772 -2.1574
  476MOL    C2238972   1.620   2.756   2.366 -0.2169  0.6513  0.3190
  476MOL    O2338973   1.554   2.637   2.321  0.1659 -0.7125  0.2364
  476MOL    H2438974   1.593   2.837   2.297 -4.1676  1.0970  2.2820
  476MOL    H2538975   1.574   2.792   2.458  0.2523 -2.0004  1.6377
  476MOL    C2638976   1.473   2.658   2.206 -0.8117  0.0015 -0.0326
  476MOL    O2738977   1.387   2.765   2.219  0.1979 -0.1773  0.2913
  476MOL    H2838978   1.416   2.570   2.180 -2.0224  1.2536 -1.7027
  476MOL    H2938979   1.535   2.656   2.116 -0.6957  0.0972  0.0435
  476MOL    C3038980   1.309   2.788   2.103 -0.0332 -0.4072  0.5752
  476MOL    O3138981   1.217   2.684   2.081  0.3374 -0.1720  0.0820
  476MOL    H3238982   1.374   2.798   2.016 -1.0374  0.2996 -0.1170
  476MOL    H3338983   1.257   2.883   2.117  1.1844  0.4941 -0.8969
  476MOL    C3438984   1.104   2.694   2.157  0.1529  0.3399 -0.4478
  476MOL    O3538985   1.009   2.783   2.106 -0.2067 -0.2207  0.3842
  476MOL    H3638986   1.124   2.711   2.262 -2.7003  2.6547 -0.2294
  476MOL    H3738987   1.055   2.598   2.140  0.0936  0.6641 -2.3184
  476MOL    C3838988   0.885   2.786   2.168 -0.8551  0.2749 -0.1483
  476MOL    O3938989   0.897   2.856   2.284  0.4082 -0.7786 -0.6304
  476MOL    H4038990   0.848   2.686   2.190 -2.6141  1.1283  0.9614
  476MOL    H4138991   0.826   2.835   2.090 -1.0096  0.3069 -0.0139
  476MOL    C4238992   0.775   2.915   2.316 -0.1161 -0.1480  0.2090
  476MOL    O4338993   0.676   2.821   2.355 -0.1821 -0.2995  0.0469
  476MOL    H4438994   0.737   2.976   2.235 -0.2814  1.9474  1.8216
  476MOL    H4538995   0.801   2.989   2.392  0.2535 -0.3828  0.3128
  476MOL    C4638996   0.698   2.789   2.488 -0.2942  0.2216 -0.4739
  476MOL    O4738997   0.669   2.898   2.572  0.3643  0.2571  0.4052
  476MOL    H4838998   0.804   2.768   2.504  0.0273  2.2127  0.1608
  476MOL    H4938999   0.636   2.701   2.505 -0.1646  0.2287  0.0313
  476MOL    C5039000   0.536   2.899   2.600  0.6453 -0.2335 -0.0315
  476MOL    O5139001   0.494   2.798   2.686 -0.1229 -0.4033  0.0257
  476MOL    H5239002   0.474   2.905   2.511 -0.1745 -2.8421  0.3463
  476MOL    H5339003   0.508   2.989   2.656  0.0376 -1.8727  2.3465
  476MOL    C5439004   0.567   2.799   2.807 -0.7713  0.4313  0.3489
  476MOL    O5539005   0.562   2.922   2.867  0.1332  0.2254  0.6589
  476MOL    H5639006   0.668   2.770   2.780 -0.7746  1.0071 -0.2915
  476MOL    H5739007   0.522   2.724   2.872  0.2313  0.0774  0.6411
  476MOL    C5839008   0.631   2.931   2.992  0.7821 -0.2391 -0.1275
  476MOL    O5939009   0.771   2.910   2.975  0.6448 -0.5540  0.0618
  476MOL    H6039010   0.589   2.853   3.057 -0.5780 -1.2610 -2.1522
  476MOL    H6139011   0.609   3.024   3.043  0.4083 -0.8241  0.7924
  476MOL    C6239012   0.833   3.017   2.915  0.1847 -0.6554 -0.6441
  476MOL    O6339013   0.971   2.990   2.905 -0.0534 -0.0731  0.1312
  476MOL    H6439014   0.807   3.111   2.964 -0.9381  0.0578 -2.5465
  476MOL    H6539015   0.792   3.019   2.814  2.7514 -2.0293 -1.7617
  476MOL    C6639016   0.995   2.891   2.810  0.1097  0.3850  0.0937
  476MOL    O6739017   0.975   2.940   2.684 -0.2728 -0.5238 -0.1880
  476MOL    H6839018   0.934   2.803   2.830 -1.1245  1.0322 -0.8139
  476MOL    H6939019   1.100   2.863   2.826  0.7055  2.7227  0.4056
  476MOL    C7039020   1.078   3.021   2.641 -0.4157 -0.3232 -0.1373
  476MOL    O7139021   1.180   2.957   2.579 -0.2503  0.2961  0.2169
  476MOL    H7239022   1.111   3.085   2.723 -1.6804  2.0450 -1.4051
  476MOL    H7339023   1.037   3.093   2.570 -1.0293 -0.1203  0.4156
  476MOL    C7439024   1.140   2.873   2.475  0.4458  0.2915  0.5858
  476MOL    O7539025   1.119   2.740   2.511  0.1339  0.4043 -0.4370
  476MOL    H7639026   1.209   2.880   2.391 -1.0612  0.5956 -0.6632
  476MOL    H7739027   1.050   2.926   2.442  0.7298 -0.5203 -1.5974
  476MOL    C7839028   1.237   2.667   2.533  0.2531 -0.0098  0.0612
  476MOL    O7939029   1.210   2.525   2.533  0.1459 -0.5525  0.8095
  476MOL    H8039030   1.289   2.689   2.626 -4.5704  1.2961  2.6302
  476MOL    H8139031   1.310   2.670   2.453  2.8689 -0.6105  2.3500
  476MOL    H8239032   1.162   2.512   2.614  1.3526  2.6803  2.1209
  477MOL     C139033   6.346   2.475   3.903  0.0044 -0.3441 -0.1081
  477MOL     O239034   6.240   2.399   3.864  0.1297 -0.2010  0.2420
  477MOL     H339035   6.418   2.411   3.953 -0.9527 -1.7604 -0.5056
  477MOL     H439036   6.401   2.532   3.828 -1.0823  1.7395  0.6297
  477MOL     H539037   6.309   2.558   3.963  1.5779  0.2369  0.0885
  477MOL     C639038   6.133   2.472   3.808 -0.1977  0.2680 -0.2248
  477MOL     O739039   6.060   2.553   3.892 -0.1170  0.3384  0.3758
  477MOL     H839040   6.064   2.407   3.755 -0.4658  0.9301 -0.6966
  477MOL     H939041   6.175   2.528   3.724 -1.2125 -1.1183 -1.6629
  477MOL    C1039042   5.983   2.484   3.981 -0.8209 -0.1964  0.2935
  477MOL    O1139043   5.879   2.419   3.923 -0.0106  0.3735  0.0992
  477MOL    H1239044   5.955   2.550   4.063 -0.3461  0.6345 -0.2033
  477MOL    H1339045   6.042   2.408   4.034 -1.0545 -1.2918 -0.9815
  477MOL    C1439046   5.785   2.504   3.861  0.0466 -0.4365 -0.3155
  477MOL    O1539047   5.725   2.603   3.947  0.2849  0.4668  0.7256
  477MOL    H1639048   5.707   2.445   3.812 -0.6432  1.2491 -1.2801
  477MOL    H1739049   5.837   2.561   3.784 -3.1242 -1.0229 -3.0419
  477MOL    C1839050   5.650   2.551   4.044 -0.8788 -0.1604 -0.2073
  477MOL    O1939051   5.527   2.518   3.999 -0.2595 -0.0188 -0.2248
  477MOL    H2039052   5.652   2.615   4.132 -0.1477  0.3444 -0.5858
  477MOL    H2139053   5.707   2.464   4.078 -0.7330  1.1306  3.0701
  477MOL    C2239054   5.440   2.627   4.004  0.3892  0.1437 -0.2611
  477MOL    O2339055   5.378   2.643   4.127  0.1996  0.3557  0.1797
  477MOL    H2439056   5.374   2.608   3.919  0.9489 -1.0729 -0.4412
  477MOL    H2539057   5.499   2.714   3.975  0.3384  0.5134  0.7281
  477MOL    C2639058   5.284   2.542   4.162  0.6440 -0.3654 -0.5512
  477MOL    O2739059   5.158   2.582   4.108 -0.7478  0.0606  0.0673
  477MOL    H2839060   5.276   2.526   4.270 -0.6537  0.0950 -0.5732
  477MOL    H2939061   5.307   2.442   4.125  0.9907 -0.4966  0.0109
  477MOL    C3039062   5.100   2.675   4.193 -0.1154  0.4183 -0.1969
  477MOL    O3139063   5.057   2.610   4.308  0.5946 -0.1275 -0.2657
  477MOL    H3239064   5.014   2.727   4.152 -2.7076 -1.4395  2.6017
  477MOL    H3339065   5.167   2.754   4.228 -1.0459  1.7692 -1.4567
  477MOL    C3439066   4.949   2.528   4.286 -0.2118  0.8768  0.2446
  477MOL    O3539067   4.832   2.602   4.252 -0.8879 -0.5088 -0.0746
  477MOL    H3639068   4.942   2.464   4.374 -0.8709  0.9216  0.2219
  477MOL    H3739069   4.964   2.459   4.203  0.3016  0.4927  0.6516
  477MOL    C3839070   4.732   2.592   4.352 -0.0558 -0.3865 -0.1337
  477MOL    O3939071   4.652   2.486   4.334  0.4620  0.6021 -0.1884
  477MOL    H4039072   4.673   2.684   4.358  1.9302  0.7355  3.2981
  477MOL    H4139073   4.778   2.576   4.449 -0.4365  2.2770  0.5293
  477MOL    C4239074   4.572   2.496   4.218 -0.1324  0.0840  1.1044
  477MOL    O4339075   4.464   2.584   4.231 -0.5114  0.5110 -0.7906
  477MOL    H4439076   4.518   2.403   4.204  0.6612 -0.0246 -1.6796
  477MOL    H4539077   4.627   2.520   4.127 -1.6655  0.5077  0.2740
  477MOL    C4639078   4.388   2.596   4.113  0.1492  0.1178 -0.4719
  477MOL    O4739079   4.314   2.479   4.084 -0.1004  0.0399  0.0769
  477MOL    H4839080   4.449   2.619   4.026  0.8455 -2.3685 -0.6634
  477MOL    H4939081   4.309   2.670   4.127  1.7356  2.0062 -1.2060
  477MOL    C5039082   4.239   2.432   4.193  1.2167 -0.1720  0.9370
  477MOL    O5139083   4.115   2.501   4.194 -0.4738 -0.1282  0.6106
  477MOL    H5239084   4.288   2.462   4.286  2.4126  0.7073  0.0520
  477MOL    H5339085   4.220   2.325   4.187 -0.2712  0.1877 -1.3674
  477MOL    C5439086   4.018   2.438   4.110 -0.3280  0.1430 -0.0432
  477MOL    O5539087   3.973   2.325   4.172  0.0335  0.3591 -0.4206
  477MOL    H5639088   4.068   2.400   4.021  0.3764  0.2842  0.2911
  477MOL    H5739089   3.937   2.505   4.080  0.7326 -0.6129 -5.1980
  477MOL    C5839090   3.904   2.341   4.291  0.5439 -0.7951  0.1829
  477MOL    O5939091   3.778   2.408   4.269 -0.7452 -0.3622  0.0572
  477MOL    H6039092   3.955   2.396   4.370  1.1145  1.2260 -1.5635
  477MOL    H6139093   3.903   2.243   4.339  2.2425 -1.5066 -1.1714
  477MOL    C6239094   3.677   2.371   4.366 -0.2674 -0.3842 -0.0778
  477MOL    O6339095   3.637   2.242   4.360 -0.1486  0.0146  0.0452
  477MOL    H6439096   3.601   2.447   4.349 -1.4093 -1.5758 -0.4066
  477MOL    H6539097   3.715   2.395   4.465 -2.4967  2.5193  0.1502
  477MOL    C6639098   3.577   2.217   4.236 -0.0085 -0.0104  0.4798
  477MOL    O6739099   3.517   2.089   4.232  0.1974  0.3364  0.0084
  477MOL    H6839100   3.651   2.237   4.158 -0.5224  1.3511  0.3260
  477MOL    H6939101   3.498   2.291   4.221  0.3979  0.7709  2.1042
  477MOL    C7039102   3.597   1.981   4.237  0.0027  0.5330 -0.0270
  477MOL    O7139103   3.523   1.863   4.208  0.5019  0.3298  0.4595
  477MOL    H7239104   3.642   1.978   4.337  0.1077 -0.3051 -0.0975
  477MOL    H7339105   3.678   1.985   4.164 -0.7254  1.1433 -0.8062
  477MOL    C7439106   3.445   1.819   4.318  0.0420  0.6143  0.1572
  477MOL    O7539107   3.521   1.783   4.431 -0.4123 -0.0411 -0.2023
  477MOL    H7639108   3.381   1.740   4.280  1.8724 -2.0297  2.3328
  477MOL    H7739109   3.376   1.896   4.352 -0.7840 -0.2756  0.5361
  477MOL    C7839110   3.593   1.671   4.403 -0.6594  0.4641 -0.6389
  477MOL    O7939111   3.666   1.630   4.521  0.0056 -0.3834 -0.2165
  477MOL    H8039112   3.662   1.685   4.320 -1.4844 -1.1595 -1.6106
  477MOL    H8139113   3.531   1.590   4.366 -1.6548 -0.1131  2.1935
  477MOL    H8239114   3.760   1.633   4.506 -0.0971 -1.5809 -1.1736
  478MOL     C139115   7.244   5.876   4.095 -0.1587  0.0101  0.0004
  478MOL     O239116   7.377   5.908   4.055 -0.0047  0.3100 -0.2725
  478MOL     H339117   7.245   5.830   4.194 -2.7740  0.3246  0.2240
  478MOL     H439118   7.186   5.968   4.100  0.5013  0.3191  3.2070
  478MOL     H539119   7.208   5.800   4.026 -1.2496  0.9387 -0.4744
  478MOL     C639120   7.424   6.022   4.114  0.7571 -1.5469 -0.7959
  478MOL     O739121   7.431   5.999   4.248  0.4398 -0.4280  0.4419
  478MOL     H839122   7.357   6.104   4.087  0.7314 -2.0950 -2.4723
  478MOL     H939123   7.521   6.051   4.074  0.4294  2.1002  0.8381
  478MOL    C1039124   7.552   5.947   4.291 -0.1364 -0.0405  0.3656
  478MOL    O1139125   7.658   6.041   4.293  0.5069  0.2164 -0.1231
  478MOL    H1239126   7.574   5.860   4.230 -1.6769  0.4503 -0.9283
  478MOL    H1339127   7.526   5.908   4.390  1.5505  0.9264  1.2085
  478MOL    C1439128   7.639   6.150   4.380 -0.0534  0.3889 -0.2910
  478MOL    O1539129   7.619   6.116   4.513  0.4948  0.0351  0.2174
  478MOL    H1639130   7.559   6.211   4.337 -1.2206 -1.0899 -0.2541
  478MOL    H1739131   7.728   6.212   4.370 -0.0554 -0.0227 -3.3220
  478MOL    C1839132   7.728   6.065   4.584 -0.0502 -0.1671  0.2890
  478MOL    O1939133   0.032   6.165   4.631 -0.0788 -0.3134 -0.0566
  478MOL    H2039134   7.780   5.982   4.535  0.9650  0.4395  0.3363
  478MOL    H2139135   7.679   6.018   4.669 -2.2584  0.4330 -0.6079
  478MOL    C2239136   0.132   6.118   4.720 -0.2965 -0.6582  0.6161
  478MOL    O2339137   0.216   6.220   4.772  0.2030 -0.5059 -0.2770
  478MOL    H2439138   0.194   6.044   4.669  2.6363  1.0226  1.6043
  478MOL    H2539139   0.087   6.069   4.806 -1.6194  2.6685  1.9292
  478MOL    C2639140   0.346   6.185   4.798 -0.6031  0.2249 -0.2190
  478MOL    O2739141   0.413   6.141   4.685  0.2880 -0.4182  0.3491
  478MOL    H2839142   0.342   6.112   4.879 -0.4571 -0.7270 -1.0627
  478MOL    H2939143   0.398   6.272   4.840 -1.5463 -0.6307  2.8274
  478MOL    C3039144   0.536   6.085   4.721  0.5813  0.1639  0.5933
  478MOL    O3139145   0.523   5.952   4.769 -0.4096  0.1210  0.4533
  478MOL    H3239146   0.586   6.134   4.805 -1.5428  2.3237  0.6357
  478MOL    H3339147   0.610   6.095   4.642 -0.5868 -2.3258 -0.8891
  478MOL    C3439148   0.508   5.862   4.662 -0.6358  0.7458 -0.0295
  478MOL    O3539149   0.543   5.733   4.690  0.0890  0.7792  0.1290
  478MOL    H3639150   0.549   5.900   4.569  0.3490  0.9321  0.4704
  478MOL    H3739151   0.400   5.854   4.652 -0.8537  2.4745  0.6708
  478MOL    C3839152   0.682   5.721   4.702  0.1096 -1.0962 -0.1460
  478MOL    O3939153   0.745   5.737   4.583 -0.3774 -0.0161  0.4650
  478MOL    H4039154   0.701   5.619   4.738  1.3806 -0.8631 -0.1127
  478MOL    H4139155   0.712   5.792   4.779  2.2813 -0.7057 -1.2986
  478MOL    C4239156   0.888   5.729   4.600 -0.4490  0.3261 -0.1205
  478MOL    O4339157   0.941   5.837   4.679 -0.2332 -0.3552  0.5323
  478MOL    H4439158   0.935   5.734   4.501  1.0204  0.4247  0.5732
  478MOL    H4539159   0.910   5.631   4.641 -2.0444  0.6544  1.5415
  478MOL    C4639160   0.951   5.950   4.598 -0.1142 -0.3513  0.4292
  478MOL    O4739161   1.043   5.925   4.496 -0.2217 -0.1864 -0.3645
  478MOL    H4839162   0.979   6.031   4.665 -2.8272 -0.3887  1.6878
  478MOL    H4939163   0.858   5.978   4.548 -0.7664  1.8595  2.7532
  478MOL    C5039164   1.171   5.942   4.540 -0.6093 -0.0568  0.1842
  478MOL    O5139165   1.204   6.079   4.560  0.0524  0.2547 -0.2742
  478MOL    H5239166   1.233   5.896   4.463 -0.8153 -0.6260  0.3472
  478MOL    H5339167   1.198   5.891   4.633 -0.8059 -0.0968  0.2213
  478MOL    C5439168   1.207   6.146   4.439 -0.5175  0.0057  0.1249
  478MOL    O5539169   1.259   6.273   4.446 -0.3540  0.3453 -0.2539
  478MOL    H5639170   1.117   6.135   4.378  0.2701  0.0061 -1.0529
  478MOL    H5739171   1.291   6.091   4.397 -0.3655  1.0892 -1.0047
  478MOL    C5839172   1.162   6.354   4.507  0.0564 -0.6646  0.0070
  478MOL    O5939173   1.053   6.376   4.418 -0.0090 -0.0027 -0.4200
  478MOL    H6039174   1.208   6.453   4.514 -1.6073  0.3043 -2.1439
  478MOL    H6139175   1.135   6.329   4.610  0.0047  0.8544  0.3868
  478MOL    C6239176   0.939   6.349   4.477 -0.1666  0.4951 -0.1733
  478MOL    O6339177   0.905   6.440   4.574 -0.4143 -0.2962 -0.2659
  478MOL    H6439178   0.929   6.243   4.501 -0.7004  0.9875  1.8755
  478MOL    H6539179   0.864   6.347   4.398 -0.6110  1.6291  0.2131
  478MOL    C6639180   0.796   6.391   4.637  0.1401 -0.2204  0.5119
  478MOL    O6739181   0.828   6.290   4.728  0.1662  0.6626 -0.1803
  478MOL    H6839182   0.720   6.353   4.568  0.2659  0.3238  0.0785
  478MOL    H6939183   0.743   6.467   4.693 -1.7475 -0.6766 -0.6047
  478MOL    C7039184   0.893   6.333   4.843 -0.2675 -0.2522  0.0504
  478MOL    O7139185   0.889   6.226   4.931  0.0097  0.3041 -0.4569
  478MOL    H7239186   0.841   6.420   4.882  0.4490  0.6629 -0.9962
  478MOL    H7339187   0.993   6.358   4.806 -0.3119  1.1660  0.8662
  478MOL    C7439188   0.962   6.242   5.046 -0.4041 -0.8010  0.1448
  478MOL    O7539189   0.932   6.358   5.119 -0.4075 -0.0335  0.4557
  478MOL    H7639190   1.067   6.251   5.018 -0.3542 -0.2588  0.5065
  478MOL    H7739191   0.951   6.146   5.097 -0.4652 -0.9124 -0.0760
  478MOL    C7839192   0.810   6.350   5.181  0.4000 -0.4347  0.1402
  478MOL    O7939193   0.770   6.466   5.244  0.1108 -0.0165 -0.1995
  478MOL    H8039194   0.819   6.269   5.252  0.3837  0.4768  1.1944
  478MOL    H8139195   0.739   6.321   5.104 -0.9014  1.9071  0.4179
  478MOL    H8239196   0.784   6.464   5.338  0.1784  1.2703 -0.1685
  479MOL     C139197   3.943   3.420   0.734 -0.8146 -0.0843 -0.1322
  479MOL     O239198   3.931   3.465   0.871 -0.0172  0.6453 -0.2772
  479MOL     H339199   4.013   3.340   0.708 -0.0932 -0.4259  2.6602
  479MOL     H439200   3.844   3.399   0.693 -0.2085 -3.3372 -0.0593
  479MOL     H539201   3.970   3.510   0.678 -0.7950  0.2376  0.3946
  479MOL     C639202   4.047   3.518   0.926  0.4900  0.6065  0.0346
  479MOL     O739203   4.147   3.423   0.936  0.3508 -0.0986 -0.0822
  479MOL     H839204   4.033   3.580   1.015  0.1007  0.7745 -0.1400
  479MOL     H939205   4.087   3.592   0.856 -0.2472  0.5995 -0.4023
  479MOL    C1039206   4.118   3.324   1.035  0.0453 -0.4431  0.1626
  479MOL    O1139207   4.099   3.385   1.161  0.2305  0.6739 -0.2531
  479MOL    H1239208   4.187   3.240   1.043 -1.5782 -1.6799  1.7009
  479MOL    H1339209   4.027   3.271   1.005 -0.5054  0.8358 -0.4482
  479MOL    C1439210   4.156   3.311   1.270  0.0473 -0.0861  0.4005
  479MOL    O1539211   4.293   3.312   1.275 -0.0163 -0.4619 -0.1926
  479MOL    H1639212   4.125   3.207   1.265  1.1436 -0.3891 -0.1406
  479MOL    H1739213   4.108   3.348   1.361 -1.3898 -3.1224  0.9289
  479MOL    C1839214   4.354   3.442   1.285 -0.2535  0.4819 -0.9381
  479MOL    O1939215   4.299   3.529   1.377  0.1180 -0.1340 -0.5465
  479MOL    H2039216   4.333   3.487   1.187 -0.1974 -2.6723 -2.4430
  479MOL    H2139217   4.460   3.431   1.303 -0.1146  3.2400  0.1812
  479MOL    C2239218   4.361   3.532   1.502  0.1060 -0.1349  0.6472
  479MOL    O2339219   4.487   3.575   1.501 -0.3118  0.4566 -0.4940
  479MOL    H2439220   4.361   3.436   1.554 -3.4977 -0.4641  0.1704
  479MOL    H2539221   4.301   3.606   1.555 -2.0735 -1.3473 -0.0590
  479MOL    C2639222   4.491   3.710   1.457 -0.4642  0.0089  0.9843
  479MOL    O2739223   4.414   3.799   1.530  0.1964 -0.2060 -0.3689
  479MOL    H2839224   4.447   3.704   1.357 -0.0203  2.0430  0.6489
  479MOL    H2939225   4.594   3.741   1.440 -1.0357  0.7810 -1.3347
  479MOL    C3039226   4.457   3.814   1.659 -0.5210 -0.2390  0.0355
  479MOL    O3139227   4.577   3.882   1.674 -0.0892 -0.0568  0.0389
  479MOL    H3239228   4.472   3.727   1.722  1.6129 -0.9890 -1.4377
  479MOL    H3339229   4.377   3.868   1.710 -0.2122  0.3796 -0.1281
  479MOL    C3439230   4.553   4.021   1.660 -0.5507 -0.2403  0.2802
  479MOL    O3539231   4.518   4.075   1.783  0.3071 -0.1174  0.5294
  479MOL    H3639232   4.470   4.047   1.594 -0.9355 -1.4663  0.2569
  479MOL    H3739233   4.637   4.073   1.616  0.0566 -1.7758 -0.4008
  479MOL    C3839234   4.625   4.116   1.855 -0.1267  0.3021  0.3737
  479MOL    O3939235   4.570   4.145   1.982  0.4889  0.0658  0.2880
  479MOL    H4039236   4.675   4.198   1.804 -0.1232  0.4299  0.5783
  479MOL    H4139237   4.690   4.032   1.880 -0.3217  0.4836  1.5243
  479MOL    C4239238   4.513   4.269   2.005 -0.6048 -0.0450 -0.3415
  479MOL    O4339239   4.605   4.369   2.019 -0.3984 -0.1196  0.0114
  479MOL    H4439240   4.453   4.259   2.096  1.6987 -1.8611  1.0351
  479MOL    H4539241   4.461   4.312   1.919 -0.1353 -0.2180 -0.7159
  479MOL    C4639242   4.649   4.381   2.147  0.0325 -0.2140 -0.0057
  479MOL    O4739243   4.546   4.438   2.223 -0.1813  0.0625 -0.0009
  479MOL    H4839244   4.738   4.440   2.170  1.1827 -1.9083 -0.0778
  479MOL    H4939245   4.655   4.283   2.195 -0.5687 -0.2859 -0.0729
  479MOL    C5039246   4.525   4.576   2.195  0.2419 -0.1869  0.2177
  479MOL    O5139247   4.615   4.658   2.266 -0.1546  0.0392 -0.3109
  479MOL    H5239248   4.420   4.601   2.212  0.1365 -1.2510  1.1695
  479MOL    H5339249   4.541   4.600   2.090  1.1830 -1.6285  0.0154
  479MOL    C5439250   4.584   4.644   2.399 -0.4258 -0.4830  0.5332
  479MOL    O5539251   4.683   4.713   2.467 -0.3678  0.2061 -0.1785
  479MOL    H5639252   4.584   4.540   2.432  1.9162 -0.3445  1.0177
  479MOL    H5739253   4.492   4.696   2.428  0.3399  1.0798  0.2217
  479MOL    C5839254   4.696   4.675   2.600  0.6990 -1.0724  0.3748
  479MOL    O5939255   4.644   4.780   2.674  0.0654 -0.0123  0.5468
  479MOL    H6039256   4.803   4.656   2.612  0.6800 -0.7380  1.1432
  479MOL    H6139257   4.653   4.581   2.634 -0.6162 -0.6377 -0.0526
  479MOL    C6239258   4.742   4.846   2.746  0.4010  0.4166  0.4424
  479MOL    O6339259   4.791   4.765   2.846  0.2627 -0.3999  0.1866
  479MOL    H6439260   4.705   4.939   2.789 -0.5214  1.3690 -2.3228
  479MOL    H6539261   4.831   4.882   2.695  2.2050 -1.0701  2.4546
  479MOL    C6639262   4.716   4.773   2.962  0.3318  0.8657 -0.1848
  479MOL    O6739263   4.739   4.879   3.045 -0.5866 -0.1459  0.3153
  479MOL    H6839264   4.739   4.683   3.018  3.5375  0.4065 -2.1296
  479MOL    H6939265   4.610   4.757   2.943  0.4902 -0.7222  0.2003
  479MOL    C7039266   4.873   4.894   3.079 -0.8289 -0.0147 -0.1582
  479MOL    O7139267   4.921   4.801   3.173 -0.7334 -0.5026 -0.5678
  479MOL    H7239268   4.883   4.997   3.112  1.7744 -0.6486  1.1338
  479MOL    H7339269   4.937   4.898   2.991 -1.1643  0.2772 -0.3910
  479MOL    C7439270   4.855   4.820   3.298  0.3247 -0.1101 -0.1668
  479MOL    O7539271   4.909   4.930   3.362 -0.3098 -0.0513 -0.6215
  479MOL    H7639272   4.874   4.737   3.365  1.4727  1.5398  1.6228
  479MOL    H7739273   4.748   4.826   3.280  0.3838  2.0937  0.0953
  479MOL    C7839274   5.042   4.929   3.392  0.0082  0.4485 -0.2090
  479MOL    O7939275   5.079   5.026   3.485  0.0910  0.3746 -0.1189
  479MOL    H8039276   5.102   4.941   3.302 -0.9759 -1.2361 -1.1209
  479MOL    H8139277   5.074   4.836   3.440  1.2906  0.1572 -1.5920
  479MOL    H8239278   5.078   5.105   3.434 -1.2346 -0.0517 -0.7776
  480MOL     C139279   5.868   2.631   2.561  0.5399 -0.1195 -0.0196
  480MOL     O239280   5.892   2.725   2.453  0.8016  0.2709 -0.0537
  480MOL     H339281   5.832   2.534   2.527 -3.8115  2.2364 -2.4488
  480MOL     H439282   5.949   2.599   2.627  3.1100  2.5647 -1.7720
  480MOL     H539283   5.795   2.676   2.628  0.6744 -1.1561  0.8458
  480MOL     C639284   5.978   2.827   2.490 -0.4400  0.7602  0.7227
  480MOL     O739285   5.926   2.898   2.594 -0.1898 -0.0957  0.0580
  480MOL     H839286   5.989   2.890   2.402  0.5351 -0.2642  0.0952
  480MOL     H939287   6.081   2.796   2.503 -0.6156 -0.1266  0.1040
  480MOL    C1039288   5.809   2.975   2.573  0.3307 -0.2207 -0.4521
  480MOL    O1139289   5.850   3.093   2.498  0.4674  0.0527  0.3080
  480MOL    H1239290   5.773   3.009   2.670 -1.3318 -3.0609 -0.0054
  480MOL    H1339291   5.725   2.925   2.525 -1.2620  1.0770  0.9161
  480MOL    C1439292   5.739   3.160   2.435  0.1990 -0.4468  0.1344
  480MOL    O1539293   5.664   3.230   2.532 -0.3332  0.3098 -0.1440
  480MOL    H1639294   5.674   3.088   2.385 -0.0865  0.3073 -0.5774
  480MOL    H1739295   5.772   3.233   2.362  1.4860  0.0373  1.1778
  480MOL    C1839296   5.749   3.321   2.602 -0.4520 -0.2692 -0.6860
  480MOL    O1939297   5.801   3.421   2.514 -0.5953  0.1423 -0.0185
  480MOL    H2039298   5.826   3.263   2.653 -0.2793 -0.9436 -1.6869
  480MOL    H2139299   5.692   3.374   2.678  0.5152  1.1885 -0.9699
  480MOL    C2239300   5.708   3.512   2.459  0.2128  0.2034  0.7296
  480MOL    O2339301   5.668   3.604   2.552  0.4116  0.3167 -0.7204
  480MOL    H2439302   5.630   3.453   2.411  1.1768  0.0727 -0.6926
  480MOL    H2539303   5.753   3.577   2.384 -2.3303  0.1669 -0.8978
  480MOL    C2639304   5.760   3.694   2.597 -0.6537  0.8781 -0.9200
  480MOL    O2739305   5.780   3.808   2.517  0.6092  0.1875 -0.2876
  480MOL    H2839306   5.853   3.638   2.603 -1.6973 -1.0633 -2.1482
  480MOL    H2939307   5.729   3.723   2.698  0.6313 -1.4042  0.1636
  480MOL    C3039308   5.674   3.898   2.518 -1.0616  0.6629  0.2144
  480MOL    O3139309   5.632   3.959   2.638 -0.4478  0.8714  0.3639
  480MOL    H3239310   5.588   3.839   2.488 -0.4339 -1.0172  1.6528
  480MOL    H3339311   5.697   3.969   2.438 -1.4768 -1.1459 -1.5392
  480MOL    C3439312   5.723   4.049   2.687  0.7098 -0.1127  0.3070
  480MOL    O3539313   5.746   4.149   2.593 -0.1996 -0.3474 -0.6655
  480MOL    H3639314   5.807   3.984   2.714 -0.5059 -1.3155  1.2863
  480MOL    H3739315   5.689   4.099   2.777  1.8850 -0.8887  1.2023
  480MOL    C3839316   5.845   4.239   2.640  0.1562  0.1398 -0.3738
  480MOL    O3939317   5.826   4.285   2.771 -0.6263  0.1254  0.3503
  480MOL    H4039318   5.842   4.331   2.581 -0.1495 -0.3903 -1.1806
  480MOL    H4139319   5.941   4.187   2.639 -2.1056 -4.4293  2.8648
  480MOL    C4239320   5.945   4.305   2.842 -0.3231  0.2536 -1.3352
  480MOL    O4339321   6.008   4.188   2.883 -1.2140 -0.1566  0.5410
  480MOL    H4439322   5.923   4.355   2.936 -0.4847  0.4595 -1.4828
  480MOL    H4539323   6.011   4.367   2.781  1.7123  1.4693  1.9767
  480MOL    C4639324   5.941   4.110   2.979 -0.6477  0.4985  0.3058
  480MOL    O4739325   5.918   4.169   3.097  0.1446  0.1082 -0.7078
  480MOL    H4839326   5.996   4.019   3.003 -0.5111  0.6725  0.6540
  480MOL    H4939327   5.847   4.089   2.927  0.0500  0.7770 -1.1115
  480MOL    C5039328   6.035   4.184   3.176  0.1005  0.1579  0.4789
  480MOL    O5139329   6.058   4.069   3.251  0.3651 -0.3243  0.4214
  480MOL    H5239330   6.020   4.273   3.236  1.2662  2.1714 -2.1194
  480MOL    H5339331   6.122   4.188   3.111 -0.1847 -0.2690  0.0655
  480MOL    C5439332   5.966   4.068   3.355  0.3332  0.4723  0.0109
  480MOL    O5539333   6.006   4.145   3.467 -0.1182 -0.2081  0.4798
  480MOL    H5639334   5.955   3.965   3.389 -1.5072  0.6925  0.0988
  480MOL    H5739335   5.871   4.105   3.319  0.1696 -1.2667 -1.4299
  480MOL    C5839336   6.108   4.096   3.539 -1.3547  0.3809  0.7245
  480MOL    O5939337   6.082   3.983   3.613 -0.1250  0.4938  0.1926
  480MOL    H6039338   6.111   4.187   3.598 -0.8931  1.4147 -0.8678
  480MOL    H6139339   6.205   4.084   3.490 -1.0595 -0.7494  1.5507
  480MOL    C6239340   6.180   3.961   3.712  1.1862  0.0180  0.3663
  480MOL    O6339341   6.155   4.049   3.818 -0.2963 -0.5372 -0.0254
  480MOL    H6439342   6.285   3.959   3.683  1.0990 -0.8533  0.0779
  480MOL    H6539343   6.153   3.865   3.757 -1.8161  0.1628 -0.9496
  480MOL    C6639344   6.257   4.144   3.840  0.4136 -0.5156  0.2605
  480MOL    O6739345   6.372   4.089   3.903  0.0027  0.1196 -0.5478
  480MOL    H6839346   6.204   4.212   3.907  1.5056 -1.3004  1.9806
  480MOL    H6939347   6.289   4.192   3.748  2.3376  0.5753  1.4485
  480MOL    C7039348   6.358   4.094   4.042 -0.5516  0.5035 -0.2495
  480MOL    O7139349   6.376   4.221   4.100  0.6146  0.6606  0.4899
  480MOL    H7239350   6.419   4.015   4.085 -1.2845 -0.7820 -1.5343
  480MOL    H7339351   6.259   4.060   4.071 -0.6699  0.6517 -0.4788
  480MOL    C7439352   6.509   4.261   4.115 -0.0113 -0.4570  0.3955
  480MOL    O7539353   6.567   4.197   4.225  0.1180 -0.0749  0.0638
  480MOL    H7639354   6.531   4.367   4.130 -0.2497 -0.3089 -0.2884
  480MOL    H7739355   6.557   4.212   4.031 -1.4041  0.0573 -0.7040
  480MOL    C7839356   6.509   4.228   4.345  0.1833 -0.3991  0.2916
  480MOL    O7939357   6.573   4.162   4.449 -0.5132  0.2072  0.0881
  480MOL    H8039358   6.402   4.205   4.353  0.0647 -0.5031 -1.3777
  480MOL    H8139359   6.519   4.334   4.367 -1.1780 -0.6892  2.3933
  480MOL    H8239360   6.543   4.073   4.444  0.5265 -0.2595  1.8310
  481MOL     C139361   0.343   1.195   5.650 -0.4701  0.3372  0.4186
  481MOL     O239362   0.398   1.300   5.732  0.0390 -0.6097  0.2662
  481MOL     H339363   0.328   1.219   5.545 -0.4293  0.5284  0.4551
  481MOL     H439364   0.405   1.106   5.637 -0.0663  0.3403  2.1514
  481MOL     H539365   0.240   1.183   5.685 -0.2034 -2.5126  0.3096
  481MOL     C639366   0.502   1.374   5.673 -0.5875  0.2027  0.4208
  481MOL     O739367   0.618   1.303   5.677  0.2558  0.6381  0.0243
  481MOL     H839368   0.507   1.464   5.734  0.6342  2.0019 -2.2447
  481MOL     H939369   0.463   1.400   5.574 -2.6227 -0.8473  0.9271
  481MOL    C1039370   0.666   1.281   5.809  0.1845 -0.1399 -0.1094
  481MOL    O1139371   0.763   1.184   5.828  0.5285  0.6222 -0.0339
  481MOL    H1239372   0.582   1.249   5.870  2.0505 -3.6492  0.7798
  481MOL    H1339373   0.687   1.378   5.854 -0.5774 -0.3537  0.7228
  481MOL    C1439374   0.885   1.216   5.776  0.3614  0.3844  0.3298
  481MOL    O1539375   0.970   1.102   5.775  0.4149 -0.0065 -1.2499
  481MOL    H1639376   0.925   1.306   5.822 -3.4886  1.5938  1.4314
  481MOL    H1739377   0.886   1.232   5.668  1.5426 -0.4282  0.2057
  481MOL    C1839378   1.002   1.068   5.907  0.8357  0.2985 -0.1116
  481MOL    O1939379   1.139   1.066   5.937  0.3544 -0.3074  0.1975
  481MOL    H2039380   0.965   0.971   5.940 -1.4321  0.8846 -0.8841
  481MOL    H2139381   0.966   1.139   5.982 -0.8897 -0.5108 -0.1460
  481MOL    C2239382   1.191   1.196   5.954  0.2287  0.3874  0.7633
  481MOL    O2339383   1.161   1.245   6.078  0.3008  0.7229 -0.2166
  481MOL    H2439384   1.145   1.254   5.874  0.4049  2.4044  2.0706
  481MOL    H2539385   1.298   1.189   5.934 -0.0594 -0.8523 -0.3808
  481MOL    C2639386   1.246   1.187   6.174  0.3617 -0.1920 -0.2149
  481MOL    O2739387   1.368   1.249   6.182  0.3683 -0.0508  0.5617
  481MOL    H2839388   1.259   1.079   6.167  1.7629 -0.0888  0.6084
  481MOL    H2939389   1.211   1.200   6.277 -2.3133 -1.6097 -0.8786
  481MOL    C3039390   1.363   1.382   6.220 -0.1589 -0.0507  0.3382
  481MOL    O3139391   1.359   1.402   6.359 -0.3999 -0.1313  0.1427
  481MOL    H3239392   1.279   1.441   6.183 -0.8518 -0.6481  0.9189
  481MOL    H3339393   1.448   1.436   6.180 -0.5665  0.0337 -0.4119
  481MOL    C3439394   1.482   1.363   6.417  0.4382  0.6172  0.2406
  481MOL    O3539395   1.596   1.448   6.380  0.2163 -0.2271  0.1250
  481MOL    H3639396   1.502   1.256   6.411 -1.4465  0.1789  1.5265
  481MOL    H3739397   1.461   1.386   6.521 -3.1962 -0.0735 -0.2963
  481MOL    C3839398   1.575   1.576   6.431 -0.3222  0.1439  0.9231
  481MOL    O3939399   1.594   1.573   6.563  0.1865 -0.5867  0.1967
  481MOL    H4039400   1.482   1.625   6.402 -1.0720 -0.6255  1.9846
  481MOL    H4139401   1.653   1.636   6.385  1.3770 -3.4465 -1.1369
  481MOL    C4239402   1.726   1.570   6.598 -0.5785 -0.1278  0.4879
  481MOL    O4339403   1.803   1.681   6.557 -0.1878 -0.0353 -1.2639
  481MOL    H4439404   1.765   1.480   6.551  0.5541 -0.6055  2.2683
  481MOL    H4539405   1.734   1.555   6.706  0.6775 -1.6998  0.2075
  481MOL    C4639406   1.935   1.675   6.596  0.2091 -0.2228 -0.1376
  481MOL    O4739407   1.998   1.558   6.563  0.1601  0.3821  0.2893
  481MOL    H4839408   1.931   1.674   6.705 -1.2362 -0.5812 -0.1787
  481MOL    H4939409   1.984   1.767   6.563  0.7563 -0.6721 -0.5871
  481MOL    C5039410   2.067   1.568   6.441  0.6166 -0.1546  0.2166
  481MOL    O5139411   1.980   1.570   6.330  0.3944 -0.2224 -0.2767
  481MOL    H5239412   2.124   1.476   6.436  0.4154 -0.3159  0.9291
  481MOL    H5339413   2.128   1.658   6.435 -0.9827  0.8780 -1.2227
  481MOL    C5439414   2.032   1.644   6.220 -0.0400  0.7299 -0.3119
  481MOL    O5539415   2.130   1.586   6.144 -0.4141  0.2434 -0.6254
  481MOL    H5639416   2.083   1.735   6.252 -1.6792  1.7515 -0.5432
  481MOL    H5739417   1.945   1.665   6.158 -0.3047  0.2340 -0.1105
  481MOL    C5839418   2.069   1.501   6.056 -0.8610 -0.3066 -0.5295
  481MOL    O5939419   2.006   1.564   5.952  0.0045  0.0938 -0.3067
  481MOL    H6039420   1.989   1.444   6.104 -2.9419  2.0512 -1.1189
  481MOL    H6139421   2.153   1.436   6.029 -0.6114 -0.6761  1.0810
  481MOL    C6239422   2.095   1.642   5.869 -0.1642 -0.2704 -0.8930
  481MOL    O6339423   2.028   1.692   5.762  0.1931 -0.2491  0.4712
  481MOL    H6439424   2.180   1.581   5.842  0.6118  1.1944 -1.8441
  481MOL    H6539425   2.120   1.738   5.915 -3.2950 -0.2313  0.8788
  481MOL    C6639426   1.981   1.588   5.684  0.4838  0.1382 -0.4006
  481MOL    O6739427   1.954   1.637   5.563 -0.2301  0.1319  0.3303
  481MOL    H6839428   1.880   1.561   5.715 -0.0334  2.8159  0.3456
  481MOL    H6939429   2.052   1.506   5.677 -0.1962 -0.3944 -1.1442
  481MOL    C7039430   2.069   1.689   5.495  0.1906  0.3284  0.7677
  481MOL    O7139431   2.149   1.585   5.453 -0.1351 -0.3560  0.1542
  481MOL    H7239432   2.128   1.736   5.573  2.5221 -0.6699 -0.3421
  481MOL    H7339433   2.047   1.760   5.415 -0.0617 -0.9695 -0.3511
  481MOL    C7439434   2.112   1.525   5.329  0.0362  0.2633  0.5764
  481MOL    O7539435   2.220   1.459   5.283  0.1220  0.1779  0.0142
  481MOL    H7639436   2.078   1.604   5.263  0.4682 -0.1824 -0.1884
  481MOL    H7739437   2.034   1.455   5.357 -0.3886 -0.1266 -1.5096
  481MOL    C7839438   2.326   1.540   5.246  0.2189 -0.0252  0.2227
  481MOL    O7939439   2.430   1.477   5.183 -0.8319  0.1127  0.0373
  481MOL    H8039440   2.365   1.569   5.343 -2.1095 -1.3294  1.5830
  481MOL    H8139441   2.304   1.632   5.192  1.0839  0.8547  1.3418
  481MOL    H8239442   2.466   1.532   5.115 -0.5123  1.6715  1.4411
  482MOL     C139443   3.990   2.529   6.900  0.2909 -0.3427  0.2120
  482MOL     O239444   3.947   2.659   6.940 -0.2081  0.4522 -0.1406
  482MOL     H339445   4.002   2.520   6.792  1.2944 -1.4695  0.4077
  482MOL     H439446   4.084   2.517   6.952 -0.7425 -2.3182  1.6839
  482MOL     H539447   3.919   2.454   6.936 -0.1946  0.4477  0.9255
  482MOL     C639448   3.844   2.698   6.870 -0.2790 -0.2576 -0.3113
  482MOL     O739449   3.871   2.726   6.740 -0.1532 -0.2527 -0.3080
  482MOL     H839450   3.789   2.785   6.905  0.3442  0.3668 -0.8713
  482MOL     H939451   3.774   2.615   6.878  0.4627 -1.0354 -1.8015
  482MOL    C1039452   3.959   2.833   6.726 -0.5281  0.3275 -0.2462
  482MOL    O1139453   3.948   2.894   6.601 -0.2150 -0.4523  0.3538
  482MOL    H1239454   4.060   2.798   6.744 -0.7228  1.2309  2.7501
  482MOL    H1339455   3.937   2.907   6.802  1.8891  0.7488  0.0544
  482MOL    C1439456   4.000   2.809   6.497  0.0917  0.2499 -0.4841
  482MOL    O1539457   3.968   2.855   6.369 -0.1546 -0.1839  0.3823
  482MOL    H1639458   3.966   2.705   6.503  0.8728  0.0668  0.9759
  482MOL    H1739459   4.109   2.808   6.499  0.0609 -0.0742  1.3267
  482MOL    C1839460   3.832   2.839   6.337  0.1002  0.0815  0.3894
  482MOL    O1939461   3.808   2.702   6.299  0.3011 -0.2651 -0.2260
  482MOL    H2039462   3.793   2.909   6.263 -0.3526  0.8974  1.3826
  482MOL    H2139463   3.771   2.862   6.424 -0.5602  1.2943 -0.3784
  482MOL    C2239464   3.863   2.667   6.175 -0.2212  0.1497 -0.1381
  482MOL    O2339465   3.794   2.745   6.071 -0.0132  0.0407 -0.5005
  482MOL    H2439466   3.841   2.560   6.178 -1.3012  0.4071  2.1511
  482MOL    H2539467   3.971   2.683   6.167 -0.4744  0.6426 -3.1047
  482MOL    C2639468   3.685   2.680   6.013 -0.2951  0.4900  0.6130
  482MOL    O2739469   3.573   2.656   6.105 -0.7257  0.4458  0.0796
  482MOL    H2839470   3.715   2.583   5.974 -1.1234  0.4513  0.0332
  482MOL    H2939471   3.656   2.744   5.929 -0.4580 -1.3339 -0.7630
  482MOL    C3039472   3.498   2.760   6.136 -0.7138 -0.2884  0.1725
  482MOL    O3139473   3.413   2.805   6.035 -0.2121 -0.8400  0.4609
  482MOL    H3239474   3.570   2.836   6.169  0.5720 -0.6023 -1.8355
  482MOL    H3339475   3.440   2.735   6.225 -0.2424  2.0074  1.1922
  482MOL    C3439476   3.343   2.696   5.977  0.2344 -1.1378  0.4586
  482MOL    O3539477   3.247   2.747   5.897 -0.2735 -0.1908  0.2175
  482MOL    H3639478   3.295   2.632   6.052 -1.5612  0.0795  0.3857
  482MOL    H3739479   3.413   2.627   5.930  1.2402  0.2026 -0.0108
  482MOL    C3839480   3.302   2.789   5.769  0.2638 -0.0170 -0.4147
  482MOL    O3939481   3.291   2.688   5.680 -0.3704  0.0472  0.4719
  482MOL    H4039482   3.399   2.838   5.766  1.0941 -1.6792 -0.9007
  482MOL    H4139483   3.244   2.867   5.718 -1.8747 -1.1045  0.3053
  482MOL    C4239484   3.293   2.725   5.539  1.0899 -0.4227  0.7015
  482MOL    O4339485   3.168   2.783   5.503  0.2062  0.1902 -0.5817
  482MOL    H4439486   3.313   2.634   5.482 -0.3961  0.4545 -1.2550
  482MOL    H4539487   3.377   2.793   5.527  0.2832  0.2643 -1.1524
  482MOL    C4639488   3.066   2.703   5.458 -0.5467  0.4119 -0.4198
  482MOL    O4739489   3.105   2.634   5.342 -0.2050 -0.1977  0.8853
  482MOL    H4839490   2.981   2.768   5.441 -2.4555 -1.9491 -0.1343
  482MOL    H4939491   3.046   2.627   5.533 -2.7145  0.2604 -1.1077
  482MOL    C5039492   3.013   2.529   5.318 -0.3963 -0.3714  0.2442
  482MOL    O5139493   3.023   2.415   5.396  0.8120  0.2129 -0.0316
  482MOL    H5239494   3.024   2.504   5.212 -0.2079 -2.1964  0.6691
  482MOL    H5339495   2.908   2.552   5.334 -0.0002  1.0941  0.7471
  482MOL    C5439496   3.149   2.348   5.371 -0.4089 -0.4760 -0.0726
  482MOL    O5539497   3.179   2.290   5.247  0.2076 -0.6337 -0.0496
  482MOL    H5639498   3.171   2.273   5.447 -1.0696 -0.5866  0.0093
  482MOL    H5739499   3.218   2.430   5.391 -1.6121  0.4450  0.3506
  482MOL    C5839500   3.085   2.189   5.216  0.5949  0.6097 -0.9705
  482MOL    O5939501   3.083   2.090   5.313  0.2807  0.5949 -0.8468
  482MOL    H6039502   3.116   2.147   5.120 -1.4020 -2.2941 -0.4314
  482MOL    H6139503   2.981   2.220   5.209  0.0157 -0.8500  0.8877
  482MOL    C6239504   3.200   2.017   5.312 -0.3701  0.5262 -0.0761
  482MOL    O6339505   3.200   1.920   5.209 -0.0354  0.2203  0.5590
  482MOL    H6439506   3.192   1.958   5.403 -1.4338 -0.3332 -0.6964
  482MOL    H6539507   3.288   2.081   5.308 -1.4508  2.0486  0.1906
  482MOL    C6639508   3.311   1.835   5.234  0.8450  0.1719  0.5549
  482MOL    O6739509   3.274   1.732   5.332  0.5156  0.0213  0.6560
  482MOL    H6839510   3.399   1.888   5.272  0.6584  0.1981  0.9435
  482MOL    H6939511   3.337   1.779   5.144 -2.4903 -0.6765  0.0709
  482MOL    C7039512   3.361   1.625   5.331 -0.7743 -0.5565 -0.5397
  482MOL    O7139513   3.489   1.658   5.383 -0.2241 -0.5762  0.1463
  482MOL    H7239514   3.374   1.579   5.233  1.3016 -0.2040 -0.4374
  482MOL    H7339515   3.332   1.556   5.410 -2.4714  0.3021 -0.3754
  482MOL    C7439516   3.588   1.550   5.368  0.2395 -0.2418 -0.2728
  482MOL    O7539517   3.585   1.455   5.470 -0.1647 -0.1729  0.4459
  482MOL    H7639518   3.693   1.578   5.363  0.1055  0.3415  0.0894
  482MOL    H7739519   3.577   1.500   5.272  1.1588 -0.4694 -0.2651
  482MOL    C7839520   3.630   1.503   5.585 -0.3748 -0.0322 -0.3860
  482MOL    O7939521   3.636   1.400   5.681 -0.5725  0.2350  0.1362
  482MOL    H8039522   3.585   1.590   5.633  0.6704  0.6562 -0.6432
  482MOL    H8139523   3.734   1.535   5.577 -0.2023 -0.9189 -1.8397
  482MOL    H8239524   3.692   1.328   5.653 -1.3697 -0.7761  1.1035
  483MOL     C139525   3.861   2.655   0.426  0.1876 -0.2767  0.0613
  483MOL     O239526   3.735   2.624   0.485  0.2284 -0.2235  0.3227
  483MOL     H339527   3.837   2.679   0.322  2.2752 -0.4387 -0.4754
  483MOL     H439528   3.899   2.745   0.475 -0.4330  0.3497 -0.5879
  483MOL     H539529   3.933   2.573   0.426  2.2273  1.4582  2.0987
  483MOL     C639530   3.738   2.586   0.625 -0.6391 -0.0932  0.1124
  483MOL     O739531   3.784   2.459   0.632 -0.4089 -0.3821 -0.0895
  483MOL     H839532   3.634   2.596   0.658 -0.7082  3.8918 -1.0656
  483MOL     H939533   3.798   2.656   0.683  2.4268 -0.2927 -2.6571
  483MOL    C1039534   3.795   2.411   0.763  0.2955  0.1475 -0.3249
  483MOL    O1139535   3.826   2.280   0.776  0.3420  0.3827 -0.2765
  483MOL    H1239536   3.696   2.429   0.806 -0.5362  0.6539 -2.3910
  483MOL    H1339537   3.868   2.464   0.825  0.1941 -0.5744  0.4191
  483MOL    C1439538   3.719   2.197   0.737  0.6482 -0.3187  0.2254
  483MOL    O1539539   3.615   2.189   0.832 -0.5242  0.4654 -0.4421
  483MOL    H1639540   3.769   2.100   0.727  0.3471 -0.6111  1.4731
  483MOL    H1739541   3.679   2.223   0.639 -1.0844  1.6842  1.4145
  483MOL    C1839542   3.654   2.110   0.935 -1.0939  0.5066 -0.0848
  483MOL    O1939543   3.663   1.973   0.899  0.6398 -0.0291  0.0646
  483MOL    H2039544   3.581   2.122   1.016  0.7048  3.9740  1.0937
  483MOL    H2139545   3.752   2.140   0.971 -0.1386 -1.6092 -0.7894
  483MOL    C2239546   3.537   1.915   0.872  0.8378 -0.5357 -0.5704
  483MOL    O2339547   3.462   1.902   0.989  0.3194 -0.2960  0.5848
  483MOL    H2439548   3.552   1.820   0.820 -1.1765 -0.1956 -1.8185
  483MOL    H2539549   3.478   1.973   0.802 -0.2203  0.9535  1.4859
  483MOL    C2639550   3.340   1.831   0.965 -0.7099 -0.1580 -0.0420
  483MOL    O2739551   3.368   1.695   0.924 -0.2084 -0.3207 -0.1917
  483MOL    H2839552   3.290   1.876   0.879  0.2038 -1.0070 -1.0341
  483MOL    H2939553   3.283   1.823   1.057 -0.4505  0.0409  0.1355
  483MOL    C3039554   3.251   1.617   0.909  0.5848 -0.1842 -0.2331
  483MOL    O3139555   3.157   1.621   1.013  0.3629 -0.3538 -0.0882
  483MOL    H3239556   3.280   1.513   0.894  0.9195 -0.2121  0.6162
  483MOL    H3339557   3.211   1.658   0.816  0.3998 -1.5401 -0.7561
  483MOL    C3439558   3.051   1.532   1.001  0.3021 -0.1082  0.6173
  483MOL    O3539559   2.999   1.535   0.871  0.4355  0.4712 -0.7589
  483MOL    H3639560   2.972   1.573   1.064 -0.0937  2.9789 -1.7816
  483MOL    H3739561   3.081   1.428   1.013  0.0702 -0.2633 -0.1466
  483MOL    C3839562   2.927   1.429   0.836 -0.9428  0.5806  0.0544
  483MOL    O3939563   3.013   1.338   0.769  0.0750  0.2559 -0.1509
  483MOL    H4039564   2.846   1.469   0.775 -0.0439  1.3283 -0.6665
  483MOL    H4139565   2.880   1.391   0.926 -1.3143  1.1338  0.0919
  483MOL    C4239566   3.024   1.365   0.633  0.6941 -0.5151 -0.4732
  483MOL    O4339567   2.908   1.349   0.567  0.6753 -0.0157  0.6332
  483MOL    H4439568   3.098   1.306   0.580  0.0917 -0.1654 -1.7124
  483MOL    H4539569   3.056   1.467   0.610  1.4172 -0.3504  1.1871
  483MOL    C4639570   2.876   1.208   0.550 -0.3374 -0.3162  0.0038
  483MOL    O4739571   2.753   1.179   0.504  0.0002  0.2070 -0.1205
  483MOL    H4839572   2.893   1.158   0.645  1.5060  2.0954  0.9917
  483MOL    H4939573   2.935   1.157   0.473 -0.5426 -0.8504  0.2010
  483MOL    C5039574   2.652   1.199   0.604  0.6240  0.2157 -0.4021
  483MOL    O5139575   2.625   1.071   0.664  0.3666 -0.0538  0.0669
  483MOL    H5239576   2.565   1.242   0.555  1.0626  2.2900  0.6092
  483MOL    H5339577   2.693   1.264   0.681  0.2859 -2.2777  1.9508
  483MOL    C5439578   2.573   0.974   0.580  0.0377  0.0804  0.2325
  483MOL    O5539579   2.446   1.019   0.536  0.6751 -0.0907 -0.2607
  483MOL    H5639580   2.555   0.880   0.631  1.1788 -0.5236 -0.4505
  483MOL    H5739581   2.640   0.957   0.495 -0.6459  2.1790 -0.7590
  483MOL    C5839582   2.418   0.979   0.401  0.0938  0.1413  0.2286
  483MOL    O5939583   2.291   1.019   0.351 -0.8288 -0.4950  0.2455
  483MOL    H6039584   2.446   0.875   0.390 -1.0070 -0.1292 -0.0413
  483MOL    H6139585   2.489   1.027   0.334 -0.1108  0.9551  0.5764
  483MOL    C6239586   2.280   1.160   0.345  0.0515 -0.4045 -0.0837
  483MOL    O6339587   2.147   1.191   0.322 -0.1461 -1.1482  0.0750
  483MOL    H6439588   2.347   1.210   0.275  0.0980 -0.4105 -0.0438
  483MOL    H6539589   2.302   1.197   0.445 -0.1194  0.0629 -0.2186
  483MOL    C6639590   2.075   1.197   0.437 -0.1109  0.4163  0.8894
  483MOL    O6739591   2.080   1.319   0.495 -0.0869  0.3940  0.3364
  483MOL    H6839592   2.101   1.116   0.505  1.6392 -1.1230 -1.5244
  483MOL    H6939593   1.976   1.169   0.401  0.8921 -2.0581 -0.0026
  483MOL    C7039594   1.973   1.402   0.455  0.6219 -0.5237  0.1499
  483MOL    O7139595   1.851   1.372   0.522 -0.5038  0.5747 -0.1693
  483MOL    H7239596   1.974   1.407   0.346 -0.8323  1.0289  0.1876
  483MOL    H7339597   1.992   1.503   0.489  2.9607 -1.5759  2.0712
  483MOL    C7439598   1.853   1.372   0.661 -0.5820 -0.1578 -0.0231
  483MOL    O7539599   1.856   1.500   0.713 -0.1509 -0.0983  0.4873
  483MOL    H7639600   1.934   1.319   0.710  0.2281  0.7487 -0.3771
  483MOL    H7739601   1.763   1.320   0.695  0.3410 -2.3409 -0.8620
  483MOL    C7839602   1.737   1.560   0.696 -0.0330 -0.5185  0.0155
  483MOL    O7939603   1.727   1.673   0.779 -0.3223 -0.4226 -0.1837
  483MOL    H8039604   1.651   1.500   0.725 -0.1937  0.0139  0.6434
  483MOL    H8139605   1.733   1.593   0.592 -0.4762  3.2887  1.1874
  483MOL    H8239606   1.760   1.748   0.731 -1.7899 -1.1588 -2.4461
  484MOL     C139607   5.187   7.217   1.229 -0.3108  0.5600  0.6437
  484MOL     O239608   5.241   7.321   1.301  0.1054 -0.0690 -0.6080
  484MOL     H339609   5.082   7.238   1.208  0.0743  2.1472  0.2215
  484MOL     H439610   5.235   7.226   1.132 -0.8538 -0.5595  0.2633
  484MOL     H539611   5.207   7.119   1.271  0.2235  1.5586  2.7860
  484MOL     C639612   5.177   7.323   1.424 -0.2213 -0.2679 -0.1614
  484MOL     O739613   5.195   7.204   1.491 -0.3604  0.3606  0.0561
  484MOL     H839614   5.075   7.359   1.410  0.7759  2.8007 -0.0447
  484MOL     H939615   5.210   7.407   1.486 -0.4040  0.5580 -1.1770
  484MOL    C1039616   5.137   7.213   1.613  0.1653  0.9816 -0.0632
  484MOL    O1139617   5.202   7.304   1.704  0.1264 -0.1771 -0.2897
  484MOL    H1239618   5.120   7.120   1.668  0.0836  0.3343 -1.1632
  484MOL    H1339619   5.038   7.259   1.613 -0.8967 -1.2307 -0.7838
  484MOL    C1439620   5.301   7.254   1.786 -0.8372 -0.2728 -1.1803
  484MOL    O1539621   5.258   7.169   1.892  0.0633  0.2882  0.1178
  484MOL    H1639622   5.359   7.334   1.830 -2.7337  0.4470  0.0689
  484MOL    H1739623   5.379   7.201   1.731 -0.0555 -0.8251  0.4345
  484MOL    C1839624   5.206   7.248   1.997 -0.1169 -0.4392 -0.0164
  484MOL    O1939625   5.317   7.293   2.077  0.7173 -0.1250 -0.3447
  484MOL    H2039626   5.132   7.193   2.056  0.6624  0.3530  1.7476
  484MOL    H2139627   5.158   7.336   1.955  0.6449  0.0166  0.0665
  484MOL    C2239628   5.382   7.193   2.151 -0.5693  0.7530  0.1408
  484MOL    O2339629   5.293   7.143   2.256 -0.4816  0.4798  0.2347
  484MOL    H2439630   5.471   7.230   2.202 -0.2968  0.3389 -0.0376
  484MOL    H2539631   5.418   7.112   2.088 -1.8318 -1.6125  2.3558
  484MOL    C2639632   5.270   7.007   2.233 -0.7727 -0.3566 -0.0047
  484MOL    O2739633   5.383   6.932   2.259  0.1053 -0.4069  0.2989
  484MOL    H2839634   5.232   7.002   2.132 -0.6894 -0.3916 -0.0340
  484MOL    H2939635   5.192   6.983   2.305 -3.4652  1.1394 -2.3244
  484MOL    C3039636   5.413   6.918   2.397 -0.3163 -0.7651 -0.4090
  484MOL    O3139637   5.317   6.840   2.459 -0.1669 -0.1496 -0.6189
  484MOL    H3239638   5.404   7.017   2.443  0.3935 -0.8122 -0.1644
  484MOL    H3339639   5.511   6.874   2.414 -0.0841  0.2420  0.9080
  484MOL    C3439640   5.350   6.704   2.449  0.1031  0.2236 -0.5113
  484MOL    O3539641   5.447   6.666   2.536 -0.1697 -0.4756 -0.0417
  484MOL    H3639642   5.384   6.680   2.348 -0.3079  0.2060 -0.6465
  484MOL    H3739643   5.263   6.640   2.467  2.5623 -2.6724  1.4515
  484MOL    C3839644   5.401   6.650   2.661  0.7000 -0.1173  0.0002
  484MOL    O3939645   5.509   6.602   2.738  0.0215 -0.8135  0.0926
  484MOL    H4039646   5.320   6.579   2.674  1.0748 -0.7897 -1.2402
  484MOL    H4139647   5.368   6.747   2.698  1.0541  1.0179 -2.5377
  484MOL    C4239648   5.618   6.686   2.753 -0.5126 -0.3933 -0.8339
  484MOL    O4339649   5.604   6.768   2.869  0.3358  0.5026  0.0324
  484MOL    H4439650   5.626   6.747   2.664 -2.1452 -2.3780 -2.4049
  484MOL    H4539651   5.710   6.630   2.769 -0.0876 -0.1265 -2.3140
  484MOL    C4639652   5.720   6.845   2.888  0.0156  0.2463 -0.0373
  484MOL    O4739653   5.730   6.955   2.803 -0.2790  0.2374 -0.7769
  484MOL    H4839654   5.808   6.781   2.884  1.0882  1.7911 -1.6273
  484MOL    H4939655   5.710   6.877   2.992  3.9800  0.5880  0.3234
  484MOL    C5039656   5.661   7.071   2.848  0.0979  0.0894  0.1663
  484MOL    O5139657   5.527   7.059   2.854  0.4479  0.1308  0.1592
  484MOL    H5239658   5.692   7.153   2.784 -2.4278  1.0073  0.0714
  484MOL    H5339659   5.698   7.103   2.945 -0.2479  0.6379  0.1197
  484MOL    C5439660   5.461   7.033   2.737 -0.3233 -0.1353 -0.1191
  484MOL    O5539661   5.327   7.010   2.773 -0.0622  0.3771  0.5276
  484MOL    H5639662   5.507   6.943   2.695  3.1472  0.2483  2.6343
  484MOL    H5739663   5.470   7.113   2.664 -1.0057  1.4026  1.4505
  484MOL    C5839664   5.254   7.129   2.781  0.4222  0.1140  0.9892
  484MOL    O5939665   5.204   7.164   2.653 -0.0020  0.3392  0.2660
  484MOL    H6039666   5.311   7.205   2.834  0.4846 -0.8435  2.2901
  484MOL    H6139667   5.170   7.114   2.848 -1.8591 -0.3048 -1.8283
  484MOL    C6239668   5.121   7.064   2.609  0.2108 -0.2468  0.5674
  484MOL    O6339669   5.000   7.050   2.674 -0.5459 -0.1879 -0.5726
  484MOL    H6439670   5.169   6.966   2.610 -1.7254 -1.2165 -0.0141
  484MOL    H6539671   5.101   7.072   2.502  0.8445  1.6381  0.5614
  484MOL    C6639672   4.911   7.147   2.635  0.3897 -0.5829  0.3294
  484MOL    O6739673   4.876   7.131   2.495 -0.5407  0.0596 -0.2045
  484MOL    H6839674   4.945   7.247   2.659  0.7119 -1.0343  1.8318
  484MOL    H6939675   4.826   7.130   2.702  1.5867  1.5519  2.4691
  484MOL    C7039676   4.768   7.215   2.462  0.3941 -0.0655  0.9469
  484MOL    O7139677   4.798   7.353   2.471  0.7893 -0.4266 -0.1807
  484MOL    H7239678   4.692   7.182   2.532  0.5213 -0.1849  1.0269
  484MOL    H7339679   4.734   7.199   2.359 -0.6356  0.5185  1.1899
  484MOL    C7439680   4.687   7.430   2.477 -0.5182  0.0765  0.7178
  484MOL    O7539681   4.667   7.474   2.608 -0.2894 -0.4921 -0.6320
  484MOL    H7639682   4.593   7.380   2.453 -2.5477  3.3500  1.4835
  484MOL    H7739683   4.700   7.513   2.408  1.1675 -0.8886 -0.1504
  484MOL    C7839684   4.770   7.561   2.651 -0.1542  0.4355  0.1123
  484MOL    O7939685   4.750   7.607   2.783 -0.5606  0.0956  0.0609
  484MOL    H8039686   4.772   7.639   2.574  2.9986  0.6836  0.3574
  484MOL    H8139687   4.864   7.505   2.650 -0.2840  0.2288 -1.5612
  484MOL    H8239688   4.656   7.612   2.798 -0.4511 -0.4243  0.9427
  485MOL     C139689   0.150   0.433   5.562 -0.2694  0.0072 -0.5035
  485MOL     O239690   0.213   0.322   5.625  0.2160 -0.4046 -0.3045
  485MOL     H339691   0.231   0.497   5.527  0.0396 -0.1847 -0.1385
  485MOL     H439692   0.096   0.396   5.475  1.4697  2.9317 -2.9303
  485MOL     H539693   0.083   0.488   5.627  2.4789  0.9690  1.6054
  485MOL     C639694   0.128   0.215   5.667 -0.4333 -0.3059  0.3943
  485MOL     O739695   0.056   0.268   5.775 -0.1750 -0.1790  0.0321
  485MOL     H839696   0.186   0.130   5.702 -2.3939 -1.4060  1.0313
  485MOL     H939697   0.058   0.196   5.586 -0.6718  0.2103  0.4779
  485MOL    C1039698   7.761   0.171   5.838 -0.9320  0.4669  0.5636
  485MOL    O1139699   7.639   0.172   5.769 -0.0326  0.3685  0.2840
  485MOL    H1239700   7.744   0.201   5.941  1.4568  1.3250  0.7419
  485MOL    H1339701   0.008   0.066   5.843 -2.8695 -0.2023 -0.7467
  485MOL    C1439702   7.540   0.114   5.834  0.3526  0.5443 -0.8051
  485MOL    O1539703   7.551   7.758   5.841 -0.4361  0.6780  0.7113
  485MOL    H1639704   7.454   0.132   5.769 -0.4683 -1.8272 -0.4217
  485MOL    H1739705   7.522   0.154   5.933  0.0408  1.9344 -1.4126
  485MOL    C1839706   7.439   7.699   5.897  0.0042 -0.4668 -0.3706
  485MOL    O1939707   7.463   7.570   5.926  0.1301 -0.3191  0.1821
  485MOL    H2039708   7.347   7.711   5.840  0.8428  1.0235 -1.4310
  485MOL    H2139709   7.428   7.740   5.998 -0.1335  0.2938 -0.6921
  485MOL    C2239710   7.481   7.490   5.816  0.5125 -0.5189  0.0879
  485MOL    O2339711   7.377   7.495   5.728  0.2181  0.2196 -0.2317
  485MOL    H2439712   7.505   7.392   5.856  3.2112  1.1502  2.7540
  485MOL    H2539713   7.564   7.526   5.756 -0.0016 -0.4175 -0.5579
  485MOL    C2639714   7.260   7.448   5.789 -0.5421 -0.3273 -0.5846
  485MOL    O2739715   7.152   7.449   5.704 -0.0853 -0.3072  0.6330
  485MOL    H2839716   7.228   7.499   5.879  0.1582  1.3419 -1.2721
  485MOL    H2939717   7.274   7.343   5.817  2.6064 -0.0576 -1.0644
  485MOL    C3039718   7.148   7.576   5.639  0.0594 -0.9269  0.4588
  485MOL    O3139719   7.128   7.679   5.735  0.4791 -0.5153  0.1379
  485MOL    H3239720   7.051   7.564   5.592  0.5776 -3.0378 -0.1502
  485MOL    H3339721   7.219   7.594   5.559 -0.6108 -0.5650 -0.0540
  485MOL    C3439722   7.100   0.021   5.684  0.6375 -0.0406  0.0959
  485MOL    O3539723   7.112   0.116   5.780 -0.4131 -0.3439  0.0746
  485MOL    H3639724   7.000   0.017   5.641  0.5878  0.6467  0.1351
  485MOL    H3739725   7.171   0.048   5.606  0.4654  0.5052  0.1259
  485MOL    C3839726   7.100   0.248   5.727 -0.0565  0.0471 -0.7841
  485MOL    O3939727   7.221   0.290   5.670 -0.6205 -0.3006  0.2140
  485MOL    H4039728   7.082   0.304   5.819  1.8535  1.4321 -1.2262
  485MOL    H4139729   7.009   0.250   5.667  0.2503 -0.9610 -1.2920
  485MOL    C4239730   7.237   0.427   5.633  0.3248  0.3347 -0.0939
  485MOL    O4339731   7.358   0.447   5.565 -0.2897  0.0736 -0.4159
  485MOL    H4439732   7.235   0.491   5.721 -0.3873  0.0921  0.0751
  485MOL    H4539733   7.161   0.451   5.559 -0.2762  0.9511  0.7035
  485MOL    C4639734   7.469   0.437   5.638 -0.5501 -0.3629  0.2798
  485MOL    O4739735   7.496   0.547   5.723  0.4180 -0.6081  0.2506
  485MOL    H4839736   7.549   0.432   5.564  0.0974 -3.0782  1.1289
  485MOL    H4939737   7.457   0.345   5.694  2.2448 -0.4346  0.8399
  485MOL    C5039738   7.607   0.533   5.803  0.0598 -0.6444  0.5504
  485MOL    O5139739   7.573   0.468   5.927 -0.0627 -0.1136 -0.0242
  485MOL    H5239740   7.654   0.628   5.828 -2.6954  0.7033  0.8671
  485MOL    H5339741   7.667   0.474   5.734 -0.4339  0.7386 -1.1026
  485MOL    C5439742   7.499   0.555   6.012  0.2423  0.1433 -0.8513
  485MOL    O5539743   7.365   0.561   5.982  0.3518 -0.2657  0.2704
  485MOL    H5639744   7.556   0.648   6.016  0.0805  0.1862  1.5263
  485MOL    H5739745   7.506   0.513   6.112 -0.9309  2.0386  0.0607
  485MOL    C5839746   7.300   0.440   6.004 -0.6388 -0.1353 -0.1885
  485MOL    O5939747   7.263   0.433   6.139  0.7102 -0.2348  0.7291
  485MOL    H6039748   7.351   0.351   5.968 -1.1099  0.2643 -1.9046
  485MOL    H6139749   7.207   0.440   5.948 -1.5331 -0.3131  1.2708
  485MOL    C6239750   7.179   0.330   6.173  0.2359 -0.2124  0.4807
  485MOL    O6339751   7.070   0.324   6.091  0.2919  0.5965 -0.2980
  485MOL    H6439752   7.158   0.318   6.279 -1.1851 -2.5845 -0.0187
  485MOL    H6539753   7.234   0.241   6.142 -1.0077 -1.3812  1.6061
  485MOL    C6639754   6.972   0.410   6.132  0.2983 -0.3514 -0.4234
  485MOL    O6739755   6.889   0.372   6.236  0.4294  0.1168  0.0747
  485MOL    H6839756   6.899   0.417   6.051 -1.4676  1.4907  1.2924
  485MOL    H6939757   7.015   0.508   6.150 -0.3720 -0.1911  0.3416
  485MOL    C7039758   6.810   0.258   6.213  0.0894  0.1817 -0.1930
  485MOL    O7139759   6.692   0.290   6.143  0.3887  0.4346  0.5213
  485MOL    H7239760   6.793   0.206   6.307  0.5759  1.3479  0.5509
  485MOL    H7339761   6.860   0.186   6.147  0.7284 -0.2944  0.8004
  485MOL    C7439762   6.608   0.359   6.229 -0.4710 -0.5820 -0.2176
  485MOL    O7539763   6.563   0.284   6.338  0.1435 -0.2632 -0.4315
  485MOL    H7639764   6.521   0.387   6.169 -0.2522 -0.5910 -0.5373
  485MOL    H7739765   6.656   0.451   6.262 -1.4607  0.9326 -2.8343
  485MOL    C7839766   6.504   0.163   6.305  0.0128  0.1165 -0.0409
  485MOL    O7939767   6.404   0.134   6.397 -0.3639  0.3686  0.1087
  485MOL    H8039768   6.579   0.088   6.328 -0.6787 -0.2604  1.0218
  485MOL    H8139769   6.468   0.158   6.202 -0.4636  0.5270  0.0989
  485MOL    H8239770   6.333   0.186   6.363  0.1021  1.5691  0.9319
  486MOL     C139771   2.359   4.487   2.698  0.0052 -0.8674 -0.3712
  486MOL     O239772   2.335   4.615   2.654 -0.4060 -0.0648 -0.0811
  486MOL     H339773   2.346   4.487   2.807 -0.9743 -1.3201 -0.4875
  486MOL     H439774   2.297   4.416   2.644  1.6768 -1.4428 -1.5776
  486MOL     H539775   2.464   4.460   2.689  0.5036  1.7441 -2.6320
  486MOL     C639776   2.372   4.626   2.519  0.1126 -0.6692  0.5332
  486MOL     O739777   2.273   4.575   2.433  0.1815 -0.4244 -0.1462
  486MOL     H839778   2.461   4.566   2.502  0.3386 -0.7320  1.8529
  486MOL     H939779   2.384   4.732   2.499  1.8327 -0.6437  1.5517
  486MOL    C1039780   2.154   4.644   2.449  0.0418 -0.5330 -0.1913
  486MOL    O1139781   2.158   4.767   2.390  0.6490  0.1043 -0.0361
  486MOL    H1239782   2.130   4.663   2.553 -1.7283  0.0927 -0.6829
  486MOL    H1339783   2.074   4.582   2.408 -0.6509  0.6582 -0.6929
  486MOL    C1439784   2.164   4.768   2.250 -0.4727  0.2491  0.2397
  486MOL    O1539785   2.031   4.765   2.200  0.4994  0.2121  0.0847
  486MOL    H1639786   2.218   4.682   2.212 -1.2718  0.4309 -1.3297
  486MOL    H1739787   2.215   4.859   2.218  0.6335  0.9901  3.8385
  486MOL    C1839788   1.961   4.883   2.237 -0.0277 -0.2186 -0.1081
  486MOL    O1939789   2.019   5.006   2.185  0.3088 -0.3250 -0.5307
  486MOL    H2039790   1.957   4.884   2.346 -1.2171  0.4828 -0.1560
  486MOL    H2139791   1.858   4.867   2.205 -0.7485 -1.2835  2.5591
  486MOL    C2239792   2.027   5.012   2.050 -0.2352 -0.3933 -0.1748
  486MOL    O2339793   2.050   5.142   2.008  0.3690 -0.4115 -0.2942
  486MOL    H2439794   1.936   4.981   1.999 -0.7411 -0.7864  0.9463
  486MOL    H2539795   2.097   4.939   2.011  0.0601  0.9247 -2.1934
  486MOL    C2639796   2.187   5.172   2.004 -0.9171 -0.2159 -0.0113
  486MOL    O2739797   2.264   5.099   1.912  0.8111  0.2211  0.8009
  486MOL    H2839798   2.213   5.154   2.108 -2.5799 -2.5927  0.0261
  486MOL    H2939799   2.189   5.275   1.968 -0.5183 -0.7850 -1.6510
  486MOL    C3039800   2.398   5.119   1.937 -0.0639 -0.0206 -0.0974
  486MOL    O3139801   2.444   5.257   1.938  0.2086  0.0621  0.0890
  486MOL    H3239802   2.456   5.049   1.877 -0.4696 -0.1475 -0.3415
  486MOL    H3339803   2.410   5.090   2.041 -0.4415 -0.1582 -0.0908
  486MOL    C3439804   2.437   5.322   1.813  0.3901 -0.3225 -0.4809
  486MOL    O3539805   2.485   5.448   1.827 -0.5201 -0.1104 -0.1521
  486MOL    H3639806   2.337   5.326   1.771 -0.8007  1.4847  2.3977
  486MOL    H3739807   2.492   5.264   1.739  1.3867 -0.0728  0.0385
  486MOL    C3839808   2.605   5.474   1.751  0.0406  0.2849 -0.0918
  486MOL    O3939809   2.574   5.502   1.617  0.4584  0.3070 -0.6561
  486MOL    H4039810   2.669   5.387   1.765 -0.1445  0.1532 -0.0607
  486MOL    H4139811   2.649   5.564   1.794 -1.3280 -0.4139  2.9180
  486MOL    C4239812   2.687   5.482   1.537 -0.7649 -0.3074 -0.4605
  486MOL    O4339813   2.787   5.573   1.565  0.7159 -0.6366  0.1355
  486MOL    H4439814   2.654   5.508   1.436 -1.8816  0.6709  0.1475
  486MOL    H4539815   2.724   5.380   1.542 -1.6691 -0.6096  0.3177
  486MOL    C4639816   2.912   5.547   1.513 -0.7749 -0.2586  0.0465
  486MOL    O4739817   2.987   5.463   1.594 -0.3493  0.4359 -1.0269
  486MOL    H4839818   2.971   5.638   1.516 -0.9913 -0.0072 -2.5725
  486MOL    H4939819   2.918   5.502   1.414  1.6859  2.3161 -1.0662
  486MOL    C5039820   2.983   5.496   1.732 -0.1615 -0.1736  0.4785
  486MOL    O5139821   3.052   5.617   1.761 -0.2500  0.5246 -0.2165
  486MOL    H5239822   3.014   5.410   1.792 -2.1215 -2.1464 -1.2242
  486MOL    H5339823   2.879   5.510   1.762  0.0075  2.6578 -0.1251
  486MOL    C5439824   3.012   5.681   1.875 -0.2075  0.2364 -0.1319
  486MOL    O5539825   2.885   5.734   1.860  0.1201 -0.5145 -0.0750
  486MOL    H5639826   3.099   5.746   1.884 -0.6579  0.4158  3.6375
  486MOL    H5739827   3.010   5.605   1.953 -1.8159 -0.1998 -0.5828
  486MOL    C5839828   2.889   5.839   1.762  0.9302 -0.8025  0.0193
  486MOL    O5939829   2.775   5.921   1.753 -0.6422  0.5551  0.6509
  486MOL    H6039830   2.902   5.799   1.661 -2.1385  1.6292 -1.4281
  486MOL    H6139831   2.973   5.904   1.786  2.0042 -1.7589 -1.1160
  486MOL    C6239832   2.668   5.871   1.681  0.0854  0.3772  0.1174
  486MOL    O6339833   2.547   5.940   1.710  0.1576  0.4739 -0.2346
  486MOL    H6439834   2.651   5.764   1.695 -0.6021  0.6931  1.8012
  486MOL    H6539835   2.685   5.881   1.574  0.9653  1.4781  0.3510
  486MOL    C6639836   2.438   5.891   1.638  0.2393 -0.0820 -0.4418
  486MOL    O6739837   2.444   5.924   1.501 -0.6099 -0.4023 -0.4308
  486MOL    H6839838   2.340   5.928   1.669  0.5512 -1.7568  2.7457
  486MOL    H6939839   2.428   5.783   1.645  3.7593 -0.6124 -2.2130
  486MOL    C7039840   2.445   6.066   1.492  0.0565  0.1359 -1.1378
  486MOL    O7139841   2.328   6.122   1.548 -0.4897 -0.2840 -0.2661
  486MOL    H7239842   2.448   6.079   1.384  2.3797  1.5710 -0.9367
  486MOL    H7339843   2.529   6.118   1.539 -1.2952  0.9685  0.3931
  486MOL    C7439844   2.313   6.257   1.523  0.0264 -0.7560 -0.3740
  486MOL    O7539845   2.299   6.292   1.388  0.6109  0.1177 -0.2495
  486MOL    H7639846   2.397   6.309   1.570  0.9249 -0.9424 -1.7524
  486MOL    H7739847   2.230   6.296   1.581 -0.8234 -0.6252 -1.6635
  486MOL    C7839848   2.166   6.262   1.352 -0.6486 -0.3900 -0.2211
  486MOL    O7939849   2.133   6.287   1.218  0.3203  0.1701 -0.1206
  486MOL    H8039850   2.092   6.320   1.408 -0.2247 -0.2359  0.1810
  486MOL    H8139851   2.143   6.157   1.365  2.3657 -1.0713 -0.0759
  486MOL    H8239852   2.194   6.237   1.165  1.3881 -0.1011  1.3402
  487MOL     C139853   3.170   4.616   0.958  0.2777 -0.1019  0.2855
  487MOL     O239854   3.118   4.713   1.053  0.1288  0.0683  0.4135
  487MOL     H339855   3.277   4.628   0.944  0.2723  0.5441  0.7720
  487MOL     H439856   3.164   4.520   1.009 -0.4333  1.3781  3.0729
  487MOL     H539857   3.127   4.617   0.858  1.2978  0.9889 -0.1617
  487MOL     C639858   3.123   4.846   1.004  0.4258  0.3236  1.0741
  487MOL     O739859   3.022   4.866   0.910 -0.1427 -0.3402  0.0356
  487MOL     H839860   3.216   4.868   0.953 -0.7062 -0.4193 -1.3739
  487MOL     H939861   3.105   4.921   1.081 -0.9159 -1.3639  2.4673
  487MOL    C1039862   2.895   4.875   0.964 -0.2909  0.8113 -0.4137
  487MOL    O1139863   2.800   4.893   0.863  0.5016  0.2693 -0.9345
  487MOL    H1239864   2.883   4.956   1.036  1.0579 -0.4262  1.2518
  487MOL    H1339865   2.865   4.781   1.010  2.7585  0.4438  0.9430
  487MOL    C1439866   2.791   4.795   0.769  0.3242  0.7141  0.4258
  487MOL    O1539867   2.704   4.695   0.816  0.1520 -0.3979 -0.1271
  487MOL    H1639868   2.889   4.764   0.731 -0.1769  0.3334 -0.5932
  487MOL    H1739869   2.739   4.844   0.686  0.7525 -2.3836 -1.7311
  487MOL    C1839870   2.574   4.750   0.836 -0.2567  0.0244  0.0153
  487MOL    O1939871   2.498   4.760   0.725  0.0093 -0.8292 -0.7313
  487MOL    H2039872   2.573   4.848   0.884 -1.7039 -0.1525  0.3564
  487MOL    H2139873   2.518   4.690   0.908 -2.5957  0.4116 -1.4154
  487MOL    C2239874   2.449   4.639   0.681 -0.4065  0.6223  0.1128
  487MOL    O2339875   2.360   4.563   0.768 -0.3733  0.2423 -0.4763
  487MOL    H2439876   2.532   4.576   0.650  0.5550  2.1329 -0.4217
  487MOL    H2539877   2.388   4.656   0.592 -0.7529  3.6211  0.8657
  487MOL    C2639878   2.351   4.430   0.730  0.5360  0.4932 -0.0037
  487MOL    O2739879   2.448   4.344   0.784  0.2475  0.0034 -0.3765
  487MOL    H2839880   2.345   4.414   0.622  1.5701 -1.1059  0.1656
  487MOL    H2939881   2.251   4.402   0.764  1.0653 -2.1462 -0.5711
  487MOL    C3039882   2.432   4.331   0.928 -0.3222  0.5361  0.2499
  487MOL    O3139883   2.555   4.291   0.988 -0.4536 -0.2996 -0.2420
  487MOL    H3239884   2.359   4.256   0.960  1.1062 -0.8123  0.4524
  487MOL    H3339885   2.407   4.429   0.967 -0.4157  0.3515  0.6571
  487MOL    C3439886   2.572   4.154   0.996  0.5547  0.2327 -0.4745
  487MOL    O3539887   2.490   4.099   1.097 -0.3302  0.0575 -0.1495
  487MOL    H3639888   2.678   4.139   1.014  0.5196 -0.1957 -0.6229
  487MOL    H3739889   2.543   4.099   0.907  1.5400 -0.2073 -0.5265
  487MOL    C3839890   2.533   4.138   1.225 -0.0046  0.3114  0.1905
  487MOL    O3939891   2.451   4.082   1.324  0.3590  0.5731 -0.0011
  487MOL    H4039892   2.551   4.244   1.244  2.4308 -0.2965  1.5839
  487MOL    H4139893   2.631   4.093   1.241 -0.3760 -0.6118 -0.0894
  487MOL    C4239894   2.319   4.138   1.329 -1.0910 -1.1077  0.5535
  487MOL    O4339895   2.318   4.256   1.406 -0.2717 -0.3258 -0.0292
  487MOL    H4439896   2.241   4.076   1.374 -1.9597  0.1978  0.8881
  487MOL    H4539897   2.292   4.150   1.224  1.1962 -1.0865 -0.0579
  487MOL    C4639898   2.303   4.374   1.330 -0.0720 -0.8042 -0.3762
  487MOL    O4739899   2.169   4.381   1.293  0.3754 -0.3337  0.2200
  487MOL    H4839900   2.357   4.372   1.236  0.1831  0.6783 -0.2849
  487MOL    H4939901   2.340   4.454   1.395  0.0997 -1.3108  0.1534
  487MOL    C5039902   2.079   4.391   1.400 -0.3922 -0.2134  0.1373
  487MOL    O5139903   2.091   4.514   1.463 -0.2490 -0.6675  0.3743
  487MOL    H5239904   2.096   4.307   1.468 -2.1500 -0.6609  0.0377
  487MOL    H5339905   1.975   4.381   1.370 -0.7796  2.5496  0.4924
  487MOL    C5439906   2.033   4.615   1.384 -0.0551 -0.2668 -0.0577
  487MOL    O5539907   1.894   4.600   1.372 -0.3878 -0.8286 -0.1912
  487MOL    H5639908   2.080   4.616   1.286  1.7804  2.0289  0.8040
  487MOL    H5739909   2.044   4.715   1.426  0.6862 -0.1227 -0.5724
  487MOL    C5839910   1.843   4.702   1.291  0.2796  0.9361 -0.4115
  487MOL    O5939911   1.856   4.824   1.364 -0.5210 -0.0563  0.0100
  487MOL    H6039912   1.737   4.679   1.275  0.4179  0.5674 -0.8149
  487MOL    H6139913   1.893   4.700   1.195  0.1322 -0.7935 -0.4766
  487MOL    C6239914   1.759   4.850   1.465  0.1885  0.0138  0.7156
  487MOL    O6339915   1.759   4.981   1.514  0.0006 -0.3494 -0.0051
  487MOL    H6439916   1.780   4.775   1.541  2.7877  0.1362  0.1691
  487MOL    H6539917   1.655   4.831   1.436  0.2518 -0.5292  0.8304
  487MOL    C6639918   1.884   5.024   1.556  0.2016  0.3147  0.9829
  487MOL    O6739919   1.937   4.943   1.655  0.0242  0.8363 -0.5250
  487MOL    H6839920   1.880   5.128   1.588  1.9239  0.2942  1.2814
  487MOL    H6939921   1.948   5.021   1.468 -1.1857 -0.6386 -0.0206
  487MOL    C7039922   2.074   4.977   1.683  0.7368  0.2345 -0.2719
  487MOL    O7139923   2.162   4.934   1.583 -0.3882  0.2986 -0.4557
  487MOL    H7239924   2.098   4.922   1.773  0.4220 -1.4131 -1.1788
  487MOL    H7339925   2.086   5.084   1.704  0.3083  0.3525 -0.6259
  487MOL    C7439926   2.298   4.961   1.614 -0.0375 -0.7663 -0.0331
  487MOL    O7539927   2.324   5.101   1.589 -0.0321  0.1309 -0.7447
  487MOL    H7639928   2.370   4.905   1.553  1.7644  0.3614  1.0138
  487MOL    H7739929   2.312   4.936   1.719 -1.1642  1.2225  0.6244
  487MOL    C7839930   2.374   5.128   1.460 -1.1650 -0.8343 -0.0710
  487MOL    O7939931   2.516   5.150   1.462  0.0785 -0.4008 -0.2474
  487MOL    H8039932   2.328   5.223   1.433  0.0050  1.1605  4.4554
  487MOL    H8139933   2.363   5.047   1.388  1.6441 -2.2604  1.0218
  487MOL    H8239934   2.568   5.078   1.430 -1.0522 -0.5375 -1.8608
  488MOL     C139935   7.152   7.680   1.034 -0.5807 -0.4177 -0.3904
  488MOL     O239936   7.136   7.560   0.967  0.0925 -0.0900  0.1043
  488MOL     H339937   7.257   7.707   1.040 -1.1980  3.0195 -3.0110
  488MOL     H439938   7.100   7.754   0.973  2.2487  2.0609  0.1366
  488MOL     H539939   7.104   7.681   1.132 -0.8833  2.8532 -0.5135
  488MOL     C639940   7.205   7.461   1.046 -0.3494 -0.6592  0.0105
  488MOL     O739941   7.135   7.440   1.162 -0.0002  0.1579 -0.0876
  488MOL     H839942   7.304   7.493   1.078 -0.0542  0.5429 -2.0094
  488MOL     H939943   7.219   7.368   0.991  2.1243 -0.2612 -0.0638
  488MOL    C1039944   7.017   7.364   1.147 -0.3733 -0.1573  0.2876
  488MOL    O1139945   7.040   7.228   1.109  0.7391 -0.0837 -0.4182
  488MOL    H1239946   6.954   7.401   1.067 -0.5184  0.1458  0.5440
  488MOL    H1339947   6.965   7.369   1.243  1.4871  1.4920  1.2614
  488MOL    C1439948   6.925   7.156   1.077 -0.0093  0.2185  0.3606
  488MOL    O1539949   6.860   7.211   0.966  0.7258 -0.6703 -0.4691
  488MOL    H1639950   6.861   7.147   1.164 -0.9024 -0.1192 -0.3200
  488MOL    H1739951   6.965   7.059   1.047 -0.7933 -0.1396  0.4770
  488MOL    C1839952   6.739   7.139   0.939 -0.4593 -0.0382  0.7992
  488MOL    O1939953   6.640   7.178   1.032 -0.3394  0.3831  0.4973
  488MOL    H2039954   6.762   7.033   0.933  0.1814  0.1477 -0.1425
  488MOL    H2139955   6.695   7.164   0.842 -1.5539  1.4034  1.6531
  488MOL    C2239956   6.526   7.100   1.019  0.0366 -0.0761 -0.4386
  488MOL    O2339957   6.555   6.968   1.046  0.6229  0.1524 -0.6001
  488MOL    H2439958   6.484   7.112   0.919 -0.5871  1.0241 -0.0597
  488MOL    H2539959   6.453   7.145   1.087 -1.3990 -0.1857 -1.8895
  488MOL    C2639960   6.594   6.953   1.181  0.1063 -0.1210  0.2364
  488MOL    O2739961   6.481   6.953   1.259 -0.1395 -0.2016 -0.0541
  488MOL    H2839962   6.681   7.010   1.212 -0.4637 -0.0704  1.7786
  488MOL    H2939963   6.646   6.857   1.183  1.0235  0.3905  2.0147
  488MOL    C3039964   6.409   6.839   1.252  0.3710  0.3488 -0.3855
  488MOL    O3139965   6.478   6.733   1.313  0.5788  0.0439 -0.0587
  488MOL    H3239966   6.393   6.805   1.150  0.4049  0.3995 -0.4075
  488MOL    H3339967   6.305   6.861   1.277  0.5525  1.6770 -0.7855
  488MOL    C3439968   6.468   6.721   1.449 -0.1736 -0.2567 -0.9920
  488MOL    O3539969   6.334   6.691   1.489 -0.1897  0.6901  0.4709
  488MOL    H3639970   6.500   6.816   1.491 -0.5260 -0.8337  0.6220
  488MOL    H3739971   6.528   6.635   1.479  0.0437 -0.4789 -2.0421
  488MOL    C3839972   6.293   6.558   1.479 -0.2657 -0.1916 -0.2958
  488MOL    O3939973   6.361   6.490   1.578 -0.3452  0.1227  0.0409
  488MOL    H4039974   6.309   6.518   1.379  2.8511  0.7896 -0.2282
  488MOL    H4139975   6.185   6.565   1.492 -0.3795  0.0020 -1.2783
  488MOL    C4239976   6.306   6.373   1.617 -0.0410 -0.3573 -0.4861
  488MOL    O4339977   6.190   6.394   1.684 -0.1208  0.1503  0.3952
  488MOL    H4439978   6.383   6.325   1.678 -0.6695 -0.7789 -0.0182
  488MOL    H4539979   6.284   6.304   1.535  0.7026 -0.3519 -0.6950
  488MOL    C4639980   6.216   6.449   1.812  0.1261  0.1585 -0.6781
  488MOL    O4739981   6.281   6.356   1.897 -0.0018 -0.3583 -0.1120
  488MOL    H4839982   6.122   6.487   1.852 -1.0087 -1.4911 -1.7451
  488MOL    H4939983   6.287   6.531   1.799  1.5228 -1.1195 -1.2147
  488MOL    C5039984   6.206   6.242   1.926  0.0334  0.4836 -0.2142
  488MOL    O5139985   6.114   6.275   2.021  0.8731 -0.3939  0.2731
  488MOL    H5239986   6.275   6.162   1.954 -1.2419 -0.4289  0.3623
  488MOL    H5339987   6.141   6.215   1.843  0.7782  0.1369 -0.6965
  488MOL    C5439988   6.177   6.316   2.139 -0.7817 -0.3376 -0.2016
  488MOL    O5539989   6.084   6.375   2.228 -0.6092 -0.2367 -0.1096
  488MOL    H5639990   6.246   6.397   2.117 -1.1254 -1.0302 -4.3135
  488MOL    H5739991   6.234   6.227   2.166  0.3609  0.5286  0.2548
  488MOL    C5839992   6.033   6.498   2.187  0.6111  0.2558  0.2901
  488MOL    O5939993   6.116   6.607   2.225 -0.1243 -0.0251 -0.0012
  488MOL    H6039994   5.936   6.497   2.237  0.6532  1.4982  0.3993
  488MOL    H6139995   6.002   6.494   2.083  1.1848 -1.7005  0.1834
  488MOL    C6239996   6.066   6.729   2.187 -0.0668  0.1801 -0.1383
  488MOL    O6339997   6.061   6.757   2.051  0.3017  0.2735 -0.3014
  488MOL    H6439998   6.123   6.805   2.241 -0.3719 -0.9215  1.7999
  488MOL    H6539999   5.961   6.738   2.216 -0.3462 -1.3219 -0.6731
  488MOL    C6640000   6.186   6.783   1.995  0.5711 -0.3143 -1.0131
  488MOL    O6740001   6.236   6.915   2.029  0.2367  0.4521  0.6619
  488MOL    H6840002   6.171   6.774   1.888  0.5824 -0.4819 -1.0005
  488MOL    H6940003   6.260   6.709   2.022 -1.7193 -1.6460  1.9293
  488MOL    C7040004   6.214   7.005   1.918  0.5127 -0.5329 -0.0544
  488MOL    O7140005   6.285   6.963   1.805  0.1021 -0.8378 -0.4840
  488MOL    H7240006   6.250   7.106   1.938 -1.2296 -0.3490  2.2577
  488MOL    H7340007   6.107   7.011   1.900  0.1793  0.6225  2.1748
  488MOL    C7440008   6.419   6.991   1.809  0.7653 -0.8323  0.8326
  488MOL    O7540009   6.436   7.129   1.797 -0.6036  0.1604  0.4092
  488MOL    H7640010   6.470   6.936   1.731 -0.9468  0.8398 -1.5179
  488MOL    H7740011   6.467   6.966   1.904  1.0342  0.2737  0.9950
  488MOL    C7840012   6.428   7.172   1.672 -0.0273  0.1774  0.0175
  488MOL    O7940013   6.429   7.314   1.670  0.4478  0.1547  0.2475
  488MOL    H8040014   6.333   7.133   1.636  0.8077  0.4749 -2.6424
  488MOL    H8140015   6.522   7.145   1.624 -0.0812  1.8163 -1.0640
  488MOL    H8240016   6.514   7.338   1.702 -0.5335 -0.4668  3.5213
  489MOL     C140017   2.292   7.472   3.633  0.1560  0.7016 -0.0767
  489MOL     O240018   2.215   7.415   3.525 -0.4281  0.0323 -0.2112
  489MOL     H340019   2.388   7.425   3.651 -0.2391 -0.9738 -2.1865
  489MOL     H440020   2.306   7.578   3.612 -0.7511  0.8089 -0.1754
  489MOL     H540021   2.245   7.464   3.731  0.7230 -0.0703  0.1368
  489MOL     C640022   2.217   7.482   3.407  0.0859  0.0259 -0.1938
  489MOL     O740023   2.345   7.472   3.353 -0.5989 -0.0450 -0.6366
  489MOL     H840024   2.188   7.585   3.425  0.4362  0.0449  0.2629
  489MOL     H940025   2.133   7.452   3.343 -2.2557  1.1825  2.2439
  489MOL    C1040026   2.373   7.338   3.313  0.8171 -0.3946  0.0034
  489MOL    O1140027   2.365   7.336   3.172 -0.4051 -0.0365 -0.0277
  489MOL    H1240028   2.297   7.277   3.362  0.8497  0.8782  1.7203
  489MOL    H1340029   2.473   7.305   3.344  0.8367  0.5266  0.9395
  489MOL    C1440030   2.477   7.382   3.103  0.1933  0.0040 -0.3766
  489MOL    O1540031   2.571   7.290   3.073  0.2353 -0.1538  0.3919
  489MOL    H1640032   2.542   7.452   3.155  0.3190  0.3146 -0.9500
  489MOL    H1740033   2.442   7.431   3.012 -1.4464  1.8872  1.2261
  489MOL    C1840034   2.520   7.190   2.989  0.4926  0.6490 -0.5644
  489MOL    O1940035   2.486   7.245   2.866 -0.3475 -0.0628 -0.2484
  489MOL    H2040036   2.435   7.139   3.034  0.9017 -0.3346 -0.8851
  489MOL    H2140037   2.605   7.122   2.980  0.0066  0.1871 -1.6504
  489MOL    C2240038   2.591   7.300   2.800 -0.1488 -0.7105 -0.6277
  489MOL    O2340039   2.679   7.206   2.758 -0.4282 -0.0009 -0.1954
  489MOL    H2440040   2.635   7.383   2.857 -2.3465 -1.2579  1.9607
  489MOL    H2540041   2.566   7.356   2.710 -1.4087  0.6702  0.5541
  489MOL    C2640042   2.633   7.144   2.641 -0.2798 -0.3840  0.4788
  489MOL    O2740043   2.725   7.151   2.536 -0.4982 -0.4273  0.1448
  489MOL    H2840044   2.535   7.185   2.615  0.0788 -0.3969 -0.9481
  489MOL    H2940045   2.624   7.036   2.658  2.1324 -0.2573  2.6873
  489MOL    C3040046   2.715   7.270   2.464 -0.2946 -0.2523 -0.2658
  489MOL    O3140047   2.624   7.256   2.362 -0.2350  0.5865  1.1865
  489MOL    H3240048   2.815   7.287   2.425  0.2336 -3.3850 -0.3434
  489MOL    H3340049   2.685   7.356   2.524  2.1705  1.3756 -1.2990
  489MOL    C3440050   2.661   7.164   2.260 -0.1400 -0.3413 -0.0164
  489MOL    O3540051   2.753   7.231   2.175 -0.6521 -0.0815  0.6703
  489MOL    H3640052   2.577   7.136   2.198  1.6403 -3.2418 -1.2043
  489MOL    H3740053   2.708   7.072   2.293 -0.2884 -0.3184  0.2542
  489MOL    C3840054   2.715   7.243   2.045  0.2066 -0.2412  0.3388
  489MOL    O3940055   2.802   7.324   1.970  0.1521 -0.0403 -0.5263
  489MOL    H4040056   2.623   7.302   2.042 -1.1070 -1.7108  5.8475
  489MOL    H4140057   2.713   7.146   1.996  0.9836 -1.0488  1.8950
  489MOL    C4240058   2.813   7.457   2.016  0.3778  0.4102  0.4344
  489MOL    O4340059   2.689   7.518   1.999 -0.3071  0.0095 -0.1688
  489MOL    H4440060   2.873   7.508   1.940  1.1742  1.7583  1.9428
  489MOL    H4540061   2.861   7.478   2.111 -0.4176  0.3607  0.8460
  489MOL    C4640062   2.688   7.649   2.059  0.6937 -0.6511  0.0302
  489MOL    O4740063   2.714   7.645   2.195 -0.3112  0.0496  0.1587
  489MOL    H4840064   2.593   7.702   2.047  0.3251 -0.6801  2.4585
  489MOL    H4940065   2.762   7.712   2.011 -1.0483  0.1979 -1.6024
  489MOL    C5040066   2.630   7.569   2.280  0.1052  0.5229  0.5456
  489MOL    O5140067   2.532   7.644   2.324  0.6833  0.5090  0.3149
  489MOL    H5240068   2.688   7.530   2.364 -0.4979  2.1928  1.7635
  489MOL    H5340069   2.594   7.483   2.224  0.2797 -1.0027  2.7374
  489MOL    C5440070   2.564   7.740   2.416 -0.4321 -0.1886  0.2293
  489MOL    O5540071   2.582   7.685   2.541 -0.0238 -0.2188  0.0041
  489MOL    H5640072   2.477   0.021   2.410 -1.1895 -1.1922  0.0853
  489MOL    H5740073   2.657   0.007   2.390 -0.5605 -0.7418 -1.4259
  489MOL    C5840074   2.461   7.632   2.591 -1.0384  0.1443  0.3823
  489MOL    O5940075   2.466   7.579   2.725  0.0015  0.0664 -0.4964
  489MOL    H6040076   2.443   7.557   2.515 -2.3419  1.8133 -0.9990
  489MOL    H6140077   2.383   7.708   2.587 -1.3901 -0.0593  2.5446
  489MOL    C6240078   2.337   7.547   2.763  0.0778  0.1581  0.2256
  489MOL    O6340079   2.307   7.434   2.691 -0.4252  0.1860  0.4315
  489MOL    H6440080   2.269   7.631   2.750  0.8012  0.5639 -0.9487
  489MOL    H6540081   2.332   7.526   2.870  0.8408 -2.1141 -0.1599
  489MOL    C6640082   2.174   7.415   2.715  0.1622 -0.3843  0.3297
  489MOL    O6740083   2.098   7.513   2.654  0.3973 -0.7382 -0.3519
  489MOL    H6840084   2.151   7.412   2.821 -1.8895 -2.2536 -0.1525
  489MOL    H6940085   2.138   7.317   2.685  2.0370 -0.6411 -1.1767
  489MOL    C7040086   2.089   7.482   2.521 -0.0193 -0.6679  0.0243
  489MOL    O7140087   2.191   7.532   2.441 -1.1202  0.2364 -0.1346
  489MOL    H7240088   1.996   7.533   2.496 -0.1568 -1.2965 -0.7705
  489MOL    H7340089   2.065   7.380   2.489  0.0822 -0.4578 -0.7490
  489MOL    C7440090   2.152   7.550   2.306  0.0463  0.0807 -0.1773
  489MOL    O7540091   2.186   7.431   2.238 -0.4129  0.0052 -0.4345
  489MOL    H7640092   2.208   7.633   2.262  1.8771 -1.0495 -0.0363
  489MOL    H7740093   2.045   7.571   2.297  0.2072 -0.3540 -4.6659
  489MOL    C7840094   2.323   7.407   2.220 -0.3825  0.3943 -0.1220
  489MOL    O7940095   2.327   7.310   2.121  0.4850  0.4961  0.2461
  489MOL    H8040096   2.376   7.370   2.308  0.2283 -0.9624 -1.0393
  489MOL    H8140097   2.368   7.496   2.176 -0.0741  0.7444  0.8786
  489MOL    H8240098   2.269   7.341   2.052  0.9797 -1.1238 -0.9185
  490MOL     C140099   6.724   3.343   3.626  0.4218  0.4375 -0.1988
  490MOL     O240100   6.849   3.381   3.675  0.1955 -0.8038  0.1822
  490MOL     H340101   6.649   3.418   3.646  0.0129 -0.0113 -0.0482
  490MOL     H440102   6.717   3.321   3.520 -0.2047  0.5408 -0.1760
  490MOL     H540103   6.689   3.253   3.676 -0.5850  1.4073  0.8452
  490MOL     C640104   6.911   3.480   3.602  1.5380  0.1507  0.0645
  490MOL     O740105   6.848   3.602   3.608  0.0831  0.5535 -0.0811
  490MOL     H840106   6.907   3.463   3.494 -0.9721 -1.0604  0.3185
  490MOL     H940107   7.015   3.478   3.637  1.2211 -0.0870  0.9960
  490MOL    C1040108   6.873   3.665   3.727 -0.0848  0.0078 -0.2091
  490MOL    O1140109   7.007   3.711   3.726  0.1619 -0.2645 -0.0603
  490MOL    H1240110   6.848   3.601   3.812  1.4025 -0.0794  0.1882
  490MOL    H1340111   6.809   3.751   3.748 -0.8093 -0.6276  0.1698
  490MOL    C1440112   7.037   3.823   3.649  0.2070 -0.6839  0.5951
  490MOL    O1540113   7.027   3.944   3.725  0.1630 -0.0278  0.0992
  490MOL    H1640114   6.963   3.824   3.569 -0.6989 -1.1284  1.4194
  490MOL    H1740115   7.135   3.810   3.602  1.1308  2.5208  1.4959
  490MOL    C1840116   7.121   3.943   3.829 -0.0168  0.1359  0.7344
  490MOL    O1940117   7.252   3.965   3.786 -0.0918  0.1410  0.1029
  490MOL    H2040118   7.120   3.855   3.894  0.7431  1.0841  2.0577
  490MOL    H2140119   7.098   4.028   3.894 -1.5046  0.2539  0.0815
  490MOL    C2240120   7.260   4.083   3.715  0.2965  1.0906 -0.0662
  490MOL    O2340121   7.243   4.199   3.785  0.2159  0.4649  0.8117
  490MOL    H2440122   7.191   4.083   3.630 -3.1183 -0.3073  2.5967
  490MOL    H2540123   7.356   4.074   3.664  0.6095 -0.7653  0.8106
  490MOL    C2640124   7.361   4.230   3.852 -0.1996 -0.2888  0.1291
  490MOL    O2740125   7.453   4.278   3.770 -0.0450  0.0611 -0.3632
  490MOL    H2840126   7.405   4.139   3.891 -0.0592  0.7516  2.5160
  490MOL    H2940127   7.332   4.288   3.941 -0.8141 -0.5960  0.1338
  490MOL    C3040128   7.403   4.380   3.694  0.0539  0.3216 -0.3458
  490MOL    O3140129   7.498   4.410   3.592 -0.2982 -0.1007 -0.2576
  490MOL    H3240130   7.376   4.460   3.762 -2.3071 -0.9176  0.1944
  490MOL    H3340131   7.310   4.350   3.647 -0.1055 -0.5645  0.5388
  490MOL    C3440132   7.597   4.485   3.640 -0.4639  0.0307 -0.0938
  490MOL    O3540133   7.561   4.624   3.643  0.5033  0.0072  0.8951
  490MOL    H3640134   7.689   4.461   3.587 -2.2152 -0.7023 -2.8981
  490MOL    H3740135   7.615   4.454   3.743 -0.5718  1.3868  0.3381
  490MOL    C3840136   7.661   4.707   3.700  0.2387 -0.6879  0.3568
  490MOL    O3940137   7.711   4.658   3.823  0.4181  0.6259 -0.1093
  490MOL    H4040138   7.619   4.805   3.721 -1.6493 -1.7987  1.8319
  490MOL    H4140139   7.749   4.704   3.635  1.8239 -1.8634  2.5038
  490MOL    C4240140   7.756   4.754   3.919  0.2049 -0.0107 -0.4347
  490MOL    O4340141   0.088   4.820   3.883 -0.2371 -0.0125  0.3773
  490MOL    H4440142   0.004   4.691   4.001  4.3622  1.2786 -0.9236
  490MOL    H4540143   7.676   4.826   3.940  0.0261 -0.2901 -0.1647
  490MOL    C4640144   0.120   4.931   3.969  0.2142 -0.4194 -0.7621
  490MOL    O4740145   0.236   4.989   3.930 -0.3717  0.1522 -0.2746
  490MOL    H4840146   0.130   4.909   4.075  1.5107  1.3461 -0.4892
  490MOL    H4940147   0.040   5.004   3.955  0.9086  0.6832  0.8279
  490MOL    C5040148   0.338   4.905   3.958 -0.6086  0.4580 -0.7809
  490MOL    O5140149   0.349   4.875   4.095  0.0289 -0.8070 -0.2153
  490MOL    H5240150   0.423   4.964   3.924 -1.4894  0.5711 -2.8163
  490MOL    H5340151   0.331   4.810   3.905 -0.4884  0.8576 -1.5142
  490MOL    C5440152   0.381   4.991   4.175  0.1792  0.0151  0.0387
  490MOL    O5540153   0.434   4.951   4.296  0.4467 -0.2706 -0.0261
  490MOL    H5640154   0.294   5.058   4.174  1.0548  1.1724 -0.0452
  490MOL    H5740155   0.467   5.043   4.132 -0.1402  0.1302 -0.4705
  490MOL    C5840156   0.337   4.932   4.398 -0.5674  0.8184  0.1366
  490MOL    O5940157   0.250   5.036   4.423  0.3353 -0.5672  0.4687
  490MOL    H6040158   0.394   4.898   4.485 -0.8860  0.3145  0.1510
  490MOL    H6140159   0.280   4.845   4.366  0.9642  0.1162 -0.7214
  490MOL    C6240160   0.180   5.025   4.544 -0.9265  0.1174  0.4957
  490MOL    O6340161   0.087   4.918   4.539 -0.8187 -0.2258  0.6272
  490MOL    H6440162   0.120   5.114   4.561 -0.9238 -0.0287  1.3085
  490MOL    H6540163   0.253   5.018   4.625 -0.8441 -0.1472  0.3999
  490MOL    C6640164   0.026   4.892   4.661 -0.3063 -0.2280  0.0355
  490MOL    O6740165   0.120   4.854   4.755 -0.4909  0.0486  0.0466
  490MOL    H6840166   7.728   4.820   4.655  0.1197 -0.7853  0.7578
  490MOL    H6940167   7.763   4.981   4.703  0.6362 -0.0013  0.6209
  490MOL    C7040168   0.175   4.731   4.712  0.1268  0.3741 -1.0132
  490MOL    O7140169   0.275   4.684   4.791  0.4217  0.0861 -0.3296
  490MOL    H7240170   0.215   4.739   4.611  1.6004  0.4353 -0.4450
  490MOL    H7340171   0.099   4.654   4.720  0.8239 -0.1182  1.2198
  490MOL    C7440172   0.379   4.774   4.812 -0.1138 -0.0746  0.2467
  490MOL    O7540173   0.503   4.713   4.818 -0.1849  0.0822  0.1660
  490MOL    H7640174   0.361   4.832   4.903 -1.7902  1.1330 -0.8297
  490MOL    H7740175   0.390   4.849   4.734  1.7028 -0.4222  0.1552
  490MOL    C7840176   0.531   4.655   4.947  0.2887 -0.8771  0.4215
  490MOL    O7940177   0.660   4.598   4.942 -0.0689 -0.0498 -0.4746
  490MOL    H8040178   0.458   4.578   4.971 -0.2737 -0.4563  0.0693
  490MOL    H8140179   0.522   4.716   5.037  2.3512 -0.7938  0.5900
  490MOL    H8240180   0.643   4.518   4.894 -3.0263 -0.4647  1.1684
  491MOL     C140181   5.167   3.477   7.667  0.1216  0.6329 -0.2662
  491MOL     O240182   5.157   3.377   7.764 -0.0377 -0.2133  0.6883
  491MOL     H340183   5.106   3.563   7.693  1.6926  1.6619  0.0808
  491MOL     H440184   5.271   3.509   7.657  0.6076 -0.2732  1.6576
  491MOL     H540185   5.143   3.434   7.570  0.5375  1.2039 -0.6195
  491MOL     C640186   5.189   3.423   0.109 -0.4528  0.6046 -0.7859
  491MOL     O740187   5.097   3.515   0.151 -0.1971  0.0241  0.4178
  491MOL     H840188   5.293   3.453   0.108  0.3752 -2.0241  0.4721
  491MOL     H940189   5.188   3.346   0.186  2.7033  0.7179 -0.5742
  491MOL    C1040190   5.127   3.574   0.280  0.4007  0.8579  0.2930
  491MOL    O1140191   5.107   3.488   0.385  0.3575 -0.4957 -0.1243
  491MOL    H1240192   5.056   3.657   0.282 -1.0714 -0.3307 -1.9432
  491MOL    H1340193   5.231   3.605   0.267  1.4822 -2.0995  1.4000
  491MOL    C1440194   4.972   3.449   0.395 -0.2295  0.0637 -0.6861
  491MOL    O1540195   4.946   3.386   0.517  0.1147  0.0359 -1.1009
  491MOL    H1640196   4.933   3.397   0.307 -3.9514  1.5382 -0.0079
  491MOL    H1740197   4.908   3.537   0.397  1.7243  1.5445 -1.3163
  491MOL    C1840198   4.986   3.251   0.514 -0.4398 -0.6048  0.2751
  491MOL    O1940199   4.911   3.164   0.425  0.0897  0.3179  0.0797
  491MOL    H2040200   4.971   3.214   0.615  0.5144 -0.5801  0.4312
  491MOL    H2140201   5.093   3.244   0.494 -0.5080  1.2502 -0.8944
  491MOL    C2240202   4.772   3.170   0.451  0.1755 -0.2657 -0.1227
  491MOL    O2340203   4.734   3.077   0.554  0.0814  0.3232 -0.3364
  491MOL    H2440204   4.701   3.153   0.370 -1.3205  1.1505  0.8670
  491MOL    H2540205   4.748   3.270   0.487  1.6862 -0.4210  1.3391
  491MOL    C2640206   4.723   2.946   0.509 -0.5426 -0.3686  0.6248
  491MOL    O2740207   4.605   2.920   0.446 -0.0595 -0.1087  0.7767
  491MOL    H2840208   4.730   2.879   0.595 -0.6500 -1.6896 -0.3905
  491MOL    H2940209   4.800   2.926   0.435 -1.6233 -0.4785 -0.4805
  491MOL    C3040210   4.507   2.911   0.546 -0.9004  0.1247  0.4346
  491MOL    O3140211   4.506   2.782   0.606  0.0922 -0.5139  0.2862
  491MOL    H3240212   4.425   2.947   0.485 -0.0119  0.9626 -0.2835
  491MOL    H3340213   4.533   2.980   0.627 -2.0990 -0.2079  1.1262
  491MOL    C3440214   4.473   2.685   0.514  0.2566 -0.7302 -0.5119
  491MOL    O3540215   4.328   2.676   0.506  0.1262 -0.1309 -0.5701
  491MOL    H3640216   4.504   2.593   0.564  0.7588  1.3227  3.0977
  491MOL    H3740217   4.524   2.692   0.418  0.7581  0.8956 -0.1437
  491MOL    C3840218   4.284   2.547   0.468 -0.1008 -0.4309 -0.1354
  491MOL    O3940219   4.301   2.522   0.333 -0.3518  0.2717 -0.5462
  491MOL    H4040220   4.183   2.536   0.508 -0.3440  0.6916 -0.4165
  491MOL    H4140221   4.344   2.474   0.522  1.2744 -0.0418 -1.1178
  491MOL    C4240222   4.239   2.613   0.248  0.0189  0.7250  0.5740
  491MOL    O4340223   4.106   2.580   0.240 -0.1069 -0.1641  0.3685
  491MOL    H4440224   4.289   2.620   0.152 -2.1846  0.9031 -0.5879
  491MOL    H4540225   4.234   2.710   0.298 -0.6287 -0.2802  2.5405
  491MOL    C4640226   4.081   2.477   0.143 -0.0682  0.3602  0.2188
  491MOL    O4740227   4.029   2.523   0.018 -0.3175  0.7988 -0.5502
  491MOL    H4840228   4.018   2.407   0.198 -0.3208  0.2249 -0.2403
  491MOL    H4940229   4.171   2.419   0.125  0.2501  1.3104 -1.2744
  491MOL    C5040230   3.890   2.506   0.017  0.6798  0.3366  0.1637
  491MOL    O5140231   3.840   2.375   7.781 -0.4117  0.1625 -0.7910
  491MOL    H5240232   3.856   2.574   7.722 -0.3965  0.2148  0.5077
  491MOL    H5340233   3.845   2.558   0.102 -2.3807 -0.8643 -0.6449
  491MOL    C5440234   3.894   2.303   7.673  0.6303  0.5038  0.4265
  491MOL    O5540235   3.845   2.172   7.673  0.1685 -0.1551 -0.1153
  491MOL    H5640236   4.001   2.312   7.689  0.8090 -0.3767 -0.2253
  491MOL    H5740237   3.864   2.356   7.583 -0.7835  0.4749  0.8619
  491MOL    C5840238   3.891   2.083   7.579  0.0243  0.4419 -0.6900
  491MOL    O5940239   3.827   1.957   7.598 -0.4925 -0.1468 -0.3732
  491MOL    H6040240   4.000   2.079   7.590  0.0525  0.2404 -1.0393
  491MOL    H6140241   3.855   2.107   7.480 -3.8584  0.7319  0.7228
  491MOL    C6240242   3.870   1.898   7.717  0.0262  0.7114 -0.1546
  491MOL    O6340243   3.817   1.768   7.732 -0.2521 -0.6788 -0.4587
  491MOL    H6440244   3.856   1.952   0.027 -0.6804 -1.0315  0.7633
  491MOL    H6540245   3.977   1.882   7.705 -0.3951 -1.7208 -0.9815
  491MOL    C6640246   3.687   1.770   7.753  0.3075 -0.5492 -0.7221
  491MOL    O6740247   3.661   1.841   0.088  0.2389  0.1794 -0.1780
  491MOL    H6840248   3.664   1.666   7.774  0.3168 -0.7483 -1.6881
  491MOL    H6940249   3.637   1.809   7.664 -1.2016  2.1792  1.2721
  491MOL    C7040250   3.523   1.857   0.106 -0.5057  0.0247  0.1659
  491MOL    O7140251   3.462   1.735   0.124  0.1376  0.0245 -0.5776
  491MOL    H7240252   3.476   1.897   0.017  1.7204  2.6987  0.1310
  491MOL    H7340253   3.508   1.934   0.181 -2.0942  0.8800 -1.0073
  491MOL    C7440254   3.331   1.756   0.172 -0.1757  0.2617 -0.3310
  491MOL    O7540255   3.331   1.802   0.308  0.0599  0.0857  0.2821
  491MOL    H7640256   3.274   1.663   0.164 -1.3309  1.0730 -1.5280
  491MOL    H7740257   3.284   1.831   0.109 -0.8712 -0.5147 -0.7425
  491MOL    C7840258   3.347   1.707   0.410  0.0735  0.7966  0.3241
  491MOL    O7940259   3.324   1.771   0.540 -0.1113 -0.8834 -0.2017
  491MOL    H8040260   3.452   1.677   0.407 -0.6911 -1.9650 -0.5559
  491MOL    H8140261   3.293   1.612   0.406  1.6425 -0.1069  0.1571
  491MOL    H8240262   3.376   1.849   0.550  0.0004 -0.8655 -0.9256
  492MOL     C140263   2.906   6.682   5.858 -0.5937 -0.3082 -0.1535
  492MOL     O240264   3.033   6.690   5.787  0.1558 -0.3629  0.1579
  492MOL     H340265   2.870   6.583   5.888 -0.9554 -0.2020 -0.2344
  492MOL     H440266   2.911   6.750   5.942  0.9485  3.0776 -2.8586
  492MOL     H540267   2.825   6.725   5.800 -0.9780 -0.9389 -0.0924
  492MOL     C640268   3.147   6.680   5.873  0.9721  0.2769  0.4124
  492MOL     O740269   3.153   6.773   5.974 -0.3505  0.3429 -0.0565
  492MOL     H840270   3.239   6.681   5.815  1.5776 -0.3433  1.3531
  492MOL     H940271   3.147   6.578   5.911 -0.5893 -0.3069 -1.0425
  492MOL    C1040272   3.158   6.906   5.928 -1.1821 -0.3539 -0.7143
  492MOL    O1140273   3.283   6.940   5.882 -0.4950  0.5476 -0.2539
  492MOL    H1240274   3.130   6.978   6.005  0.8229  1.1295 -1.3219
  492MOL    H1340275   3.089   6.923   5.846 -1.0425 -1.3156 -1.0333
  492MOL    C1440276   3.386   6.922   5.972 -0.3544  0.1338 -0.4368
  492MOL    O1540277   3.369   7.000   6.091  0.5981  0.1032 -0.2509
  492MOL    H1640278   3.476   6.951   5.917  1.6018 -0.6910  2.2539
  492MOL    H1740279   3.395   6.820   6.009 -0.7775  0.5556  0.8540
  492MOL    C1840280   3.358   7.136   6.074  0.0596  0.0383 -0.0219
  492MOL    O1940281   3.451   7.189   5.989 -0.0794  0.5644  0.0248
  492MOL    H2040282   3.371   7.180   6.173  1.4547  0.4896 -0.3975
  492MOL    H2140283   3.256   7.151   6.038 -0.1262 -1.7505 -0.2855
  492MOL    C2240284   3.421   7.319   5.940 -0.8416 -0.1692 -0.1715
  492MOL    O2340285   3.316   7.316   5.841  0.1018  0.0532  0.3586
  492MOL    H2440286   3.512   7.356   5.895  0.3154 -1.7118  0.8520
  492MOL    H2540287   3.399   7.382   6.026  0.3700 -0.6386  0.4893
  492MOL    C2640288   3.351   7.263   5.718 -0.4477 -1.1333  0.1311
  492MOL    O2740289   3.242   7.186   5.669 -0.4563  0.4978  0.4276
  492MOL    H2840290   3.424   7.183   5.730 -1.2835 -2.0691 -0.9189
  492MOL    H2940291   3.398   7.340   5.657 -1.1899  0.4320  1.4922
  492MOL    C3040292   3.169   7.266   5.575 -0.1727  0.0798 -0.0280
  492MOL    O3140293   3.246   7.313   5.467 -0.1339 -0.5780 -0.4624
  492MOL    H3240294   3.118   7.342   5.633 -1.6330 -1.6013  0.9439
  492MOL    H3340295   3.097   7.194   5.537  0.8645 -0.5759 -0.7807
  492MOL    C3440296   3.172   7.387   5.366 -0.2191  0.0602  0.5485
  492MOL    O3540297   3.147   7.517   5.414 -0.3825  0.5459 -0.4154
  492MOL    H3640298   3.077   7.338   5.344 -0.9415  1.4446  0.5604
  492MOL    H3740299   3.228   7.386   5.272 -2.1817  0.2898 -0.6566
  492MOL    C3840300   3.263   7.593   5.401 -0.0982  0.2194 -0.0113
  492MOL    O3940301   3.364   7.562   5.494 -0.7585  0.8264  0.1833
  492MOL    H4040302   3.237   7.699   5.404  0.0118  0.2356  0.3586
  492MOL    H4140303   3.297   7.593   5.297 -3.4977  0.6263 -1.1918
  492MOL    C4240304   3.353   7.634   5.614 -0.2197  0.3594 -0.2683
  492MOL    O4340305   3.383   7.770   5.600  0.6688  0.7477  0.2619
  492MOL    H4440306   3.421   7.582   5.682 -0.3076 -0.6961 -0.9726
  492MOL    H4540307   3.254   7.619   5.657 -0.4741 -0.8212 -1.2281
  492MOL    C4640308   3.511   0.016   5.566  0.7010  0.2784 -0.1378
  492MOL    O4740309   3.532   0.153   5.560  0.1434  0.3449 -0.1450
  492MOL    H4840310   3.540   7.767   5.466 -0.3910 -2.4222  0.3945
  492MOL    H4940311   3.580   7.760   5.640  1.4317 -1.2784 -1.5981
  492MOL    C5040312   3.474   0.213   5.450 -0.5010  0.2535 -0.0793
  492MOL    O5140313   3.554   0.202   5.337  0.4897  0.2414  0.0503
  492MOL    H5240314   3.450   0.315   5.480  0.8815  0.1265  1.5250
  492MOL    H5340315   3.376   0.167   5.439 -0.5904  0.6407 -0.9589
  492MOL    C5440316   3.676   0.256   5.343  0.1520 -0.2958  0.1292
  492MOL    O5540317   3.699   0.389   5.334  0.1440  0.0441  0.6879
  492MOL    H5640318   3.721   0.213   5.253  0.6378  0.8123 -0.1716
  492MOL    H5740319   3.728   0.215   5.430 -1.9099 -1.4123  0.8739
  492MOL    C5840320   3.831   0.427   5.334  0.0507  0.5219 -0.2361
  492MOL    O5940321   3.907   0.384   5.447 -0.3662  0.3619 -0.2053
  492MOL    H6040322   3.820   0.535   5.333 -1.6258  0.4472  3.5061
  492MOL    H6140323   3.883   0.399   5.242 -0.1965  0.6052 -0.4010
  492MOL    C6240324   4.045   0.381   5.420  0.1430  0.5963 -0.8790
  492MOL    O6340325   4.085   0.305   5.311  0.3054 -0.0598  0.3275
  492MOL    H6440326   4.086   0.344   5.514  0.5757 -1.8375 -1.9802
  492MOL    H6540327   4.096   0.475   5.398  0.2348  0.1684 -2.5934
  492MOL    C6640328   4.042   0.168   5.311  0.4067 -0.3088 -0.2613
  492MOL    O6740329   4.085   0.104   5.198  0.4942  0.5463  0.6067
  492MOL    H6840330   3.933   0.161   5.307  0.3546  0.1717  0.2176
  492MOL    H6940331   4.085   0.124   5.401 -1.1924  2.0495  1.7190
  492MOL    C7040332   4.022   0.137   5.078 -0.1410  0.1721 -0.5232
  492MOL    O7140333   3.884   0.124   5.088  0.2904 -0.2959  0.0184
  492MOL    H7240334   4.078   0.081   5.003 -0.2043 -0.4669 -0.0944
  492MOL    H7340335   4.026   0.245   5.065 -1.5383  0.4543  1.1622
  492MOL    C7440336   3.844   7.767   5.092 -0.5409 -0.7321  0.4380
  492MOL    O7540337   3.717   7.746   5.025 -0.1015 -0.0059  0.2553
  492MOL    H7640338   3.854   7.743   5.197  1.1328  2.4396  1.0678
  492MOL    H7740339   3.917   7.698   5.050  1.4906  1.7773 -0.3143
  492MOL    C7840340   3.612   0.023   5.105  0.4589  1.0561 -0.6256
  492MOL    O7940341   3.488   7.737   5.084 -0.3899  0.2676 -0.0530
  492MOL    H8040342   3.607   0.126   5.069 -1.7096  2.2138  2.8046
  492MOL    H8140343   3.645   0.014   5.208  2.2204 -0.3094 -1.2648
  492MOL    H8240344   3.453   7.776   5.005  0.4822  1.5541  0.1699
  493MOL     C140345   3.757   5.466   4.217 -0.5045 -0.1355 -0.2791
  493MOL     O240346   3.665   5.399   4.297  0.2557 -0.3108 -0.3338
  493MOL     H340347   3.707   5.554   4.177 -2.3463 -0.9549  0.1515
  493MOL     H440348   3.846   5.487   4.276  0.1037  1.1414 -1.6394
  493MOL     H540349   3.783   5.416   4.124 -2.1857 -1.4865 -0.0485
  493MOL     C640350   3.539   5.390   4.230 -0.4920 -0.1085 -0.2139
  493MOL     O740351   3.533   5.285   4.143 -0.3847 -0.2681 -0.0814
  493MOL     H840352   3.529   5.483   4.174 -1.9728  0.3988  0.8617
  493MOL     H940353   3.459   5.388   4.303 -2.5333  0.1537 -2.3645
  493MOL    C1040354   3.531   5.162   4.217  0.2616 -0.9043 -0.0677
  493MOL    O1140355   3.407   5.127   4.254 -0.4436  0.3699 -0.7033
  493MOL    H1240356   3.611   5.150   4.290 -0.2779 -1.1081  0.4875
  493MOL    H1340357   3.550   5.090   4.137  0.0288 -0.5906 -0.4079
  493MOL    C1440358   3.386   5.136   4.398  0.2928 -0.5532 -0.2481
  493MOL    O1540359   3.406   5.021   4.477  0.2747 -0.3260 -0.2617
  493MOL    H1640360   3.293   5.189   4.416  0.3801 -0.9708  1.4924
  493MOL    H1740361   3.473   5.194   4.431  0.9037 -0.4013 -2.0695
  493MOL    C1840362   3.310   4.931   4.451 -0.0581 -0.3764  0.0841
  493MOL    O1940363   3.192   4.974   4.499  0.1797 -0.1803  0.2318
  493MOL    H2040364   3.335   4.849   4.519  2.2889  0.7435  0.6282
  493MOL    H2140365   3.302   4.893   4.349 -0.1043  0.5343 -0.2517
  493MOL    C2240366   3.092   4.879   4.498  0.5671  0.6771  0.0105
  493MOL    O2340367   2.975   4.917   4.565 -0.4778 -0.2056 -0.1825
  493MOL    H2440368   3.119   4.787   4.550  0.3647  0.2537 -0.6232
  493MOL    H2540369   3.059   4.865   4.395  4.1186  1.1799 -1.2560
  493MOL    C2640370   2.988   4.957   4.696 -0.4644 -0.0534  0.2864
  493MOL    O2740371   2.867   4.989   4.753  0.6779  0.1471 -0.1612
  493MOL    H2840372   3.034   5.055   4.697 -0.1312 -0.2102  0.1615
  493MOL    H2940373   3.057   4.892   4.750 -0.4338 -0.1125  0.1739
  493MOL    C3040374   2.788   4.875   4.779  0.3264 -0.3588  0.2036
  493MOL    O3140375   2.652   4.912   4.806 -0.2500 -0.0817  0.1082
  493MOL    H3240376   2.836   4.824   4.862  1.0881 -1.1883 -0.7439
  493MOL    H3340377   2.782   4.811   4.691 -1.0550 -0.8196  0.6253
  493MOL    C3440378   2.634   4.961   4.937  0.1665 -0.5281  0.0572
  493MOL    O3540379   2.646   4.860   5.036 -0.7492 -0.4230  0.2430
  493MOL    H3640380   2.531   4.998   4.939  0.8766  1.4784  2.2335
  493MOL    H3740381   2.692   5.049   4.964 -2.4742  1.0192  0.9564
  493MOL    C3840382   2.626   4.916   5.166 -0.1654 -0.3757  0.3013
  493MOL    O3940383   2.595   4.822   5.257  0.3012  0.2493 -0.2886
  493MOL    H4040384   2.538   4.978   5.152  1.1241  0.6747 -3.8126
  493MOL    H4140385   2.710   4.977   5.195 -1.0767  0.6409  0.8203
  493MOL    C4240386   2.711   4.772   5.310 -0.1277  0.1554 -0.6742
  493MOL    O4340387   2.759   4.855   5.409 -0.4624 -0.1820  0.1950
  493MOL    H4440388   2.782   4.750   5.230  2.1842 -0.9392  1.6020
  493MOL    H4540389   2.684   4.680   5.361 -1.6231  0.3615 -1.0624
  493MOL    C4640390   2.888   4.823   5.451 -0.6304 -0.0116  0.6688
  493MOL    O4740391   2.983   4.898   5.382  0.1101 -0.1574  0.5219
  493MOL    H4840392   2.908   4.718   5.428 -1.4621 -0.4020  1.6988
  493MOL    H4940393   2.896   4.838   5.558  0.0687 -0.4643  0.6857
  493MOL    C5040394   2.994   5.032   5.430  0.3975  0.3115  0.2043
  493MOL    O5140395   3.060   5.035   5.553  0.3170 -0.4267 -0.3692
  493MOL    H5240396   2.900   5.084   5.449  0.0662 -1.2226  3.1137
  493MOL    H5340397   3.055   5.085   5.358 -0.1469  0.1359 -0.3857
  493MOL    C5440398   3.192   5.003   5.543 -0.4507  0.6434  0.1053
  493MOL    O5540399   3.265   5.116   5.494  0.1243  0.5378  0.5723
  493MOL    H5640400   3.212   4.917   5.479 -0.1635 -0.1779  1.2963
  493MOL    H5740401   3.236   4.972   5.637 -0.6965 -0.4207 -0.1285
  493MOL    C5840402   3.320   5.194   5.604 -0.0643 -0.1426  0.1941
  493MOL    O5940403   3.430   5.140   5.656  0.1098 -0.2620 -0.2326
  493MOL    H6040404   3.241   5.205   5.679  0.8154 -0.9820  1.2618
  493MOL    H6140405   3.337   5.291   5.558  0.1450 -0.1539  0.2493
  493MOL    C6240406   3.452   5.180   5.795  0.2102 -0.3697 -0.4474
  493MOL    O6340407   3.353   5.128   5.876  0.1645 -0.3772 -0.3724
  493MOL    H6440408   3.446   5.288   5.797 -2.0304 -0.4357 -1.5350
  493MOL    H6540409   3.553   5.167   5.833 -0.3057 -0.8285  0.8223
  493MOL    C6640410   3.369   5.159   6.007 -0.1769 -0.0565 -1.0583
  493MOL    O6740411   3.256   5.105   6.076 -0.0749 -0.3500 -0.0105
  493MOL    H6840412   3.352   5.266   6.006  0.2022  0.0028 -1.5140
  493MOL    H6940413   3.466   5.132   6.050 -1.0691  1.3224  1.9423
  493MOL    C7040414   3.284   4.978   6.132 -0.1080 -0.4693 -0.2866
  493MOL    O7140415   3.396   4.978   6.221 -0.2294 -0.0407  0.1313
  493MOL    H7240416   3.299   4.897   6.061  1.0770 -0.2043 -0.3432
  493MOL    H7340417   3.200   4.934   6.187  0.6100 -0.6041  0.7045
  493MOL    C7440418   3.375   5.040   6.338  0.4472 -0.5220  0.2890
  493MOL    O7540419   3.479   5.015   6.434 -0.5402 -0.1623 -0.1320
  493MOL    H7640420   3.284   5.003   6.383  0.8041  0.3854  1.7864
  493MOL    H7740421   3.373   5.148   6.319 -2.8534 -0.7207 -0.7020
  493MOL    C7840422   3.474   4.885   6.477 -0.8483 -0.0378 -0.8109
  493MOL    O7940423   3.584   4.858   6.561 -0.2795 -0.0387 -0.4893
  493MOL    H8040424   3.489   4.826   6.386  0.6930 -1.2345  0.2073
  493MOL    H8140425   3.379   4.866   6.528 -0.9845  0.9739 -0.6789
  493MOL    H8240426   3.583   4.917   6.635  0.5114  1.3662 -1.5651
  494MOL     C140427   0.107   0.862   1.776 -0.1418 -0.2764 -0.6517
  494MOL     O240428   0.042   0.740   1.729 -0.2911  0.8306 -0.5927
  494MOL     H340429   0.192   0.829   1.835  0.7355  2.3782 -0.3739
  494MOL     H440430   0.153   0.932   1.707  1.7411 -0.7903  0.0594
  494MOL     H540431   0.034   0.920   1.833 -2.1309 -1.1251 -2.2595
  494MOL     C640432   7.726   0.767   1.639 -0.6677  0.2997  1.0190
  494MOL     O740433   7.624   0.822   1.708  0.2492  0.2363 -0.3047
  494MOL     H840434   7.702   0.676   1.584 -0.3002  0.6456  0.2738
  494MOL     H940435   7.762   0.849   1.576 -0.3654 -0.4463  0.2105
  494MOL    C1040436   7.513   0.851   1.632  0.3118  0.1638 -0.7436
  494MOL    O1140437   7.437   0.736   1.612  0.1887 -0.3672 -0.4314
  494MOL    H1240438   7.543   0.885   1.532 -0.6004 -0.1812 -1.1438
  494MOL    H1340439   7.451   0.920   1.689 -1.1538 -0.3812 -1.6485
  494MOL    C1440440   7.310   0.756   1.551  1.2756 -0.0785  0.1867
  494MOL    O1540441   7.208   0.777   1.644 -0.0379  0.0914  0.0441
  494MOL    H1640442   7.283   0.669   1.490 -0.6230  3.1793 -3.8700
  494MOL    H1740443   7.307   0.845   1.488  0.1815 -2.1015 -2.7436
  494MOL    C1840444   7.198   0.684   1.743 -0.3208 -0.4237  0.0790
  494MOL    O1940445   7.084   0.607   1.726 -0.3526 -0.2915 -0.0292
  494MOL    H2040446   7.200   0.740   1.837  0.8760  0.4733 -0.4748
  494MOL    H2140447   7.287   0.620   1.745  0.4077  0.3455 -4.2091
  494MOL    C2240448   6.965   0.678   1.772 -0.0342  0.6278 -0.6192
  494MOL    O2340449   6.968   0.711   1.911 -0.1234  0.1859  0.4337
  494MOL    H2440450   6.870   0.626   1.758 -0.4063  1.0924  0.1629
  494MOL    H2540451   6.951   0.768   1.712 -0.1742  0.7468 -0.4050
  494MOL    C2640452   6.949   0.590   1.987  0.1572  0.0243 -0.2839
  494MOL    O2740453   6.817   0.554   1.988 -0.4562 -0.2664 -0.0072
  494MOL    H2840454   6.969   0.618   2.091 -1.0570 -1.1352  0.2794
  494MOL    H2940455   7.011   0.508   1.954  0.2299  0.6065 -1.6202
  494MOL    C3040456   6.730   0.647   2.036 -0.4109 -0.0227  0.3850
  494MOL    O3140457   6.745   0.681   2.174 -0.0080 -0.1710 -0.4962
  494MOL    H3240458   6.630   0.605   2.025 -0.4807  0.5525 -1.4880
  494MOL    H3340459   6.740   0.740   1.980  2.5861 -0.7798 -0.4032
  494MOL    C3440460   6.689   0.590   2.270  0.0127 -0.2764  0.2951
  494MOL    O3540461   6.552   0.573   2.249 -0.4114  0.0270 -0.1713
  494MOL    H3640462   6.701   0.637   2.367 -3.6681 -0.2588  0.8305
  494MOL    H3740463   6.746   0.497   2.271 -0.3597 -0.5750 -2.3552
  494MOL    C3840464   6.511   0.455   2.304 -0.3318 -0.0162 -0.8914
  494MOL    O3940465   6.566   0.343   2.240  0.9714  0.2865  0.3735
  494MOL    H4040466   6.403   0.447   2.295 -0.4141  0.9257 -0.8247
  494MOL    H4140467   6.525   0.462   2.412  0.3606 -2.4605 -0.8093
  494MOL    C4240468   6.548   0.219   2.296  0.5043  0.2746 -0.4707
  494MOL    O4340469   6.422   0.190   2.346  0.3987  0.6425 -0.1982
  494MOL    H4440470   6.604   0.202   2.388  1.5131 -1.1437 -1.3257
  494MOL    H4540471   6.586   0.141   2.230  1.8890 -0.9118  1.7048
  494MOL    C4640472   6.336   0.167   2.239 -0.1466 -0.1270 -0.8092
  494MOL    O4740473   6.375   0.053   2.175  0.3541 -0.1464 -0.3849
  494MOL    H4840474   6.336   0.253   2.172  1.0924 -0.0883 -0.7820
  494MOL    H4940475   6.234   0.168   2.275 -0.3084 -1.7820 -1.2166
  494MOL    C5040476   6.319   7.717   2.241 -0.5508 -0.7456 -0.3864
  494MOL    O5140477   6.180   7.725   2.249 -0.3435  0.1336 -0.0790
  494MOL    H5240478   6.355   7.708   2.343 -0.0373 -1.3716 -0.6239
  494MOL    H5340479   6.334   7.629   2.179  2.0810 -1.2833  0.9308
  494MOL    C5440480   6.108   7.682   2.132  0.2205  0.0823 -0.6649
  494MOL    O5540481   6.104   7.541   2.134 -0.8552  0.0030 -0.1461
  494MOL    H5640482   6.165   7.722   2.048  0.7793 -1.4563 -1.0400
  494MOL    H5740483   6.006   7.719   2.138  0.9782  2.3138 -1.3327
  494MOL    C5840484   6.017   7.495   2.227 -0.0038 -0.1235  0.4056
  494MOL    O5940485   5.884   7.520   2.198 -0.5029  0.3140 -0.2746
  494MOL    H6040486   6.030   7.526   2.331  1.1971 -0.3466  0.3238
  494MOL    H6140487   6.043   7.390   2.235 -0.7550 -0.4858 -1.6238
  494MOL    C6240488   5.848   7.476   2.067 -0.2922  0.3731  0.9793
  494MOL    O6340489   5.735   7.399   2.074  0.1173  0.4627  0.4848
  494MOL    H6440490   5.911   7.409   2.008 -1.6507 -0.0676 -0.0013
  494MOL    H6540491   5.822   7.550   1.992 -0.5452 -2.2881 -1.6371
  494MOL    C6640492   5.623   7.476   2.066  0.1875  0.8705 -0.2462
  494MOL    O6740493   5.584   7.494   1.940 -0.1225 -0.8430  0.1493
  494MOL    H6840494   5.626   7.567   2.125 -2.2062  1.2637 -0.6771
  494MOL    H6940495   5.543   7.424   2.119  0.3011  1.8348  0.8877
  494MOL    C7040496   5.496   7.607   1.930  0.0441  0.4971 -0.6051
  494MOL    O7140497   5.366   7.585   1.989  0.4304  0.1943 -0.4490
  494MOL    H7240498   5.486   7.629   1.824  1.1970  0.0482 -0.8085
  494MOL    H7340499   5.550   7.692   1.972  0.5313 -1.5138  3.0091
  494MOL    C7440500   5.283   7.695   1.984 -0.0813 -0.9760  0.2276
  494MOL    O7540501   5.253   7.727   1.846 -0.0811  0.1445 -0.0539
  494MOL    H7640502   5.336   7.783   2.021  0.4095 -1.0949 -0.1879
  494MOL    H7740503   5.199   7.695   2.054  0.9072  0.6554  1.4625
  494MOL    C7840504   5.174   7.629   1.792  0.3283  0.0353  0.3024
  494MOL    O7940505   5.093   7.674   1.685 -0.3940  0.0410 -0.4267
  494MOL    H8040506   5.095   7.605   1.863  0.5656  0.8185  0.8387
  494MOL    H8140507   5.230   7.542   1.758  0.4576  0.7090 -1.2215
  494MOL    H8240508   5.141   7.672   1.604 -1.2376 -0.7169 -0.9123
  495MOL     C140509   6.120   2.263   5.638  0.1780  0.4295 -1.0606
  495MOL     O240510   6.042   2.143   5.632  0.3267 -0.5742  0.3135
  495MOL     H340511   6.208   2.231   5.693 -0.8616  1.7498  1.4062
  495MOL     H440512   6.156   2.312   5.547  2.6026  1.7894  0.5977
  495MOL     H540513   6.081   2.343   5.700  0.0955 -0.1620 -0.3434
  495MOL     C640514   6.084   2.049   5.546 -0.5534  0.2080 -0.0765
  495MOL     O740515   6.075   2.099   5.415 -0.8423 -0.4886 -0.0005
  495MOL     H840516   6.027   1.958   5.563  2.9629 -1.8672  1.0946
  495MOL     H940517   6.186   2.015   5.566 -1.1185 -0.3058  2.0446
  495MOL    C1040518   5.993   2.035   5.327  0.3366  0.1164  0.3787
  495MOL    O1140519   6.040   1.908   5.299  0.7431  0.6829 -0.0955
  495MOL    H1240520   5.977   2.093   5.236  1.1616 -1.3817 -0.7460
  495MOL    H1340521   5.896   2.043   5.376  0.4859  3.8910  0.1717
  495MOL    C1440522   6.162   1.924   5.221  0.3204  0.1630 -0.0021
  495MOL    O1540523   6.144   1.988   5.098 -0.3331  0.3339 -0.3908
  495MOL    H1640524   6.199   1.822   5.210  0.7757  0.0300  2.4648
  495MOL    H1740525   6.233   1.977   5.285 -0.4884 -0.5381  1.4918
  495MOL    C1840526   6.259   2.013   5.032 -0.6128 -0.4141  1.0476
  495MOL    O1940527   6.335   1.898   5.009 -0.1200  0.6314  0.4984
  495MOL    H2040528   6.316   2.095   5.077  0.4597 -0.5938  0.0545
  495MOL    H2140529   6.236   2.050   4.932  1.7033 -0.7286  0.3569
  495MOL    C2240530   6.461   1.920   4.949 -0.0002 -0.4071  0.8651
  495MOL    O2340531   6.458   1.913   4.803  0.5334  0.3191  0.0109
  495MOL    H2440532   6.526   1.836   4.972 -1.3888 -1.9010 -0.5023
  495MOL    H2540533   6.514   2.009   4.982 -1.9824  0.8118  0.8375
  495MOL    C2640534   6.454   1.782   4.752 -0.6448 -0.0985 -0.1837
  495MOL    O2740535   6.571   1.714   4.782 -0.2986 -0.1659 -0.1264
  495MOL    H2840536   6.437   1.791   4.644  0.5944 -0.0291 -0.3747
  495MOL    H2940537   6.369   1.727   4.791 -0.9210 -0.2033 -0.9119
  495MOL    C3040538   6.674   1.729   4.692 -0.1333  0.2072 -0.2399
  495MOL    O3140539   6.727   1.600   4.665  0.4646  0.2621 -0.0656
  495MOL    H3240540   6.751   1.794   4.734  1.4300 -0.4780 -2.0044
  495MOL    H3340541   6.646   1.769   4.595  0.5735  3.9280  1.0088
  495MOL    C3440542   6.825   1.599   4.563 -0.3219 -0.5956  0.0318
  495MOL    O3540543   6.773   1.631   4.440  0.1941 -0.1111  0.6765
  495MOL    H3640544   6.874   1.502   4.573  0.3986 -0.0817  1.6695
  495MOL    H3740545   6.906   1.666   4.589  1.6497 -3.8125  2.6159
  495MOL    C3840546   6.667   1.545   4.403 -0.7179 -0.2694  0.4643
  495MOL    O3940547   6.709   1.416   4.380  0.0449 -0.1569  0.1367
  495MOL    H4040548   6.618   1.574   4.310 -0.8652 -2.3913 -0.1706
  495MOL    H4140549   6.598   1.541   4.487  0.1088  1.6399  1.2362
  495MOL    C4240550   6.772   1.391   4.252 -0.4972 -0.2366  0.3916
  495MOL    O4340551   6.772   1.254   4.226  0.3423  0.2089 -0.5400
  495MOL    H4440552   6.878   1.418   4.247 -0.1320 -1.9374 -2.0366
  495MOL    H4540553   6.729   1.443   4.168 -0.4138 -2.3772 -1.0271
  495MOL    C4640554   6.648   1.201   4.193 -1.0077  0.3048  0.2878
  495MOL    O4740555   6.619   1.215   4.055 -0.4482 -0.0199  0.2086
  495MOL    H4840556   6.573   1.244   4.260 -2.4437 -2.3265  0.4201
  495MOL    H4940557   6.652   1.094   4.215  0.2335  0.2797 -0.0330
  495MOL    C5040558   6.492   1.173   4.031  0.4296 -0.5242  0.4397
  495MOL    O5140559   6.395   1.269   4.048 -0.0085  0.2193  0.0288
  495MOL    H5240560   6.470   1.082   4.087  1.9810 -0.1941  1.6280
  495MOL    H5340561   6.481   1.159   3.924  2.4901  0.6479  0.0516
  495MOL    C5440562   6.263   1.244   4.022  1.0135  0.3267  0.3457
  495MOL    O5540563   6.212   1.168   4.124  0.1875 -0.1180  0.1235
  495MOL    H5640564   6.266   1.191   3.927 -0.4941  0.0800  0.4178
  495MOL    H5740565   6.202   1.335   4.020  0.8750  0.2777  1.9712
  495MOL    C5840566   6.171   1.244   4.233 -0.1270 -0.2230 -0.4749
  495MOL    O5940567   6.050   1.312   4.210 -0.1913 -0.5919 -0.0471
  495MOL    H6040568   6.260   1.305   4.248 -0.3070 -0.3811  1.3810
  495MOL    H6140569   6.164   1.177   4.318 -1.1735 -0.7516 -0.9706
  495MOL    C6240570   5.941   1.232   4.215 -0.8299 -0.1069 -0.0983
  495MOL    O6340571   5.928   1.179   4.342  0.4691  0.4949  0.1146
  495MOL    H6440572   5.946   1.156   4.137  1.8630 -1.3814  1.2295
  495MOL    H6540573   5.855   1.295   4.193 -0.7586  0.1575  0.3795
  495MOL    C6640574   5.886   1.267   4.437  0.0001 -0.5925  0.0274
  495MOL    O6740575   5.757   1.321   4.413 -0.0379 -0.4462 -0.2151
  495MOL    H6840576   5.958   1.349   4.445  1.0344 -1.1039 -3.4549
  495MOL    H6940577   5.895   1.228   4.539 -1.6018 -2.1596 -0.3997
  495MOL    C7040578   5.654   1.235   4.426  0.1292  0.1203  1.0701
  495MOL    O7140579   5.590   1.241   4.547  0.9675  0.4415  0.0528
  495MOL    H7240580   5.679   1.132   4.400 -0.7443  0.2431 -0.3257
  495MOL    H7340581   5.591   1.261   4.341 -0.5339 -1.0720  1.1902
  495MOL    C7440582   5.469   1.168   4.543 -0.6314  0.1793 -0.2371
  495MOL    O7540583   5.387   1.182   4.658  0.5440 -0.0229 -0.2197
  495MOL    H7640584   5.494   1.068   4.509 -0.0171  0.1771  0.2171
  495MOL    H7740585   5.417   1.216   4.460  2.3664  0.3649 -2.0675
  495MOL    C7840586   5.258   1.154   4.630  0.9700 -0.4451 -0.3705
  495MOL    O7940587   5.190   1.259   4.568 -0.2024  0.4097  0.0267
  495MOL    H8040588   5.196   1.127   4.716  1.6509 -1.4647 -0.1962
  495MOL    H8140589   5.245   1.067   4.565 -0.6269 -0.9603  0.6166
  495MOL    H8240590   5.132   1.298   4.632  1.6004  2.1303  0.6646
  496MOL     C140591   0.062   2.783   2.943  0.0606 -0.1424 -0.2915
  496MOL     O240592   0.114   2.802   3.081  0.1846 -0.2282 -0.8453
  496MOL     H340593   0.145   2.744   2.884  0.9243  1.9074 -0.4873
  496MOL     H440594   7.764   2.713   2.957 -2.5152  2.8885  0.3760
  496MOL     H540595   0.028   2.875   2.895  1.8625  0.7872  0.1561
  496MOL     C640596   0.217   2.893   3.084 -0.4233 -0.7532  0.4301
  496MOL     O740597   0.171   3.003   3.010 -0.1362  0.5462 -0.7043
  496MOL     H840598   0.313   2.852   3.054 -0.5245 -1.5565  1.1803
  496MOL     H940599   0.214   2.927   3.188  0.6233 -1.6228  0.7563
  496MOL    C1040600   0.254   3.108   3.007  0.6279  0.5716  0.5749
  496MOL    O1140601   0.266   3.175   3.131  0.2183  0.8014  0.0224
  496MOL    H1240602   0.210   3.182   2.940  0.2816 -1.1710 -1.1808
  496MOL    H1340603   0.357   3.082   2.983  1.3532  2.1412  1.9187
  496MOL    C1440604   0.144   3.229   3.179 -0.6277 -0.5596 -0.0576
  496MOL    O1540605   0.161   3.288   3.303  0.4609  0.3012  0.6550
  496MOL    H1640606   0.068   3.152   3.195 -1.7806  0.5068 -0.3473
  496MOL    H1740607   0.102   3.305   3.113 -0.9743 -1.9694 -1.4793
  496MOL    C1840608   0.212   3.196   3.397 -0.0350 -0.4702  0.4535
  496MOL    O1940609   0.115   3.106   3.449  0.1888  0.4559 -0.2085
  496MOL    H2040610   0.256   3.260   3.473  0.4558  1.7654 -1.6521
  496MOL    H2140611   0.291   3.149   3.339  1.2650  2.2683 -0.0677
  496MOL    C2240612   0.025   3.172   3.532  0.7056  0.0725  0.6076
  496MOL    O2340613   0.003   3.106   3.651 -0.0852 -0.2709 -0.0222
  496MOL    H2440614   7.722   3.177   3.466  1.6236 -1.0239 -0.7418
  496MOL    H2540615   0.059   3.268   3.570  1.8812 -0.2239  0.3232
  496MOL    C2640616   0.124   3.077   3.717  0.3123  0.2149  0.4128
  496MOL    O2740617   0.173   3.192   3.764  0.0083 -0.1840 -0.2366
  496MOL    H2840618   0.192   3.033   3.644 -1.1028 -0.0882 -0.7701
  496MOL    H2940619   0.112   3.001   3.794  0.7183 -0.6449 -0.3590
  496MOL    C3040620   0.115   3.237   3.887 -0.3150 -0.1118  0.5921
  496MOL    O3140621   0.174   3.183   4.001 -0.0411 -0.4185  0.4162
  496MOL    H3240622   0.008   3.221   3.890 -0.2208 -1.1060 -0.8708
  496MOL    H3340623   0.125   3.345   3.877 -1.0994 -0.2993 -2.8507
  496MOL    C3440624   0.298   3.238   4.026  0.6061 -0.6699  0.4028
  496MOL    O3540625   0.289   3.381   4.052 -0.0782  0.7258 -0.8553
  496MOL    H3640626   0.367   3.222   3.943 -2.2554  0.9930 -2.4121
  496MOL    H3740627   0.332   3.211   4.126  1.8517  1.4185  0.5698
  496MOL    C3840628   0.404   3.441   4.005  0.2757  0.3967 -0.2347
  496MOL    O3940629   0.393   3.479   3.874 -0.1733 -0.2359 -0.8086
  496MOL    H4040630   0.495   3.383   4.020 -0.1046  0.0082  0.6283
  496MOL    H4140631   0.411   3.531   4.066  2.7018 -0.5483  0.9433
  496MOL    C4240632   0.285   3.563   3.846  0.1857 -0.0538 -0.1378
  496MOL    O4340633   0.307   3.695   3.889  0.2491  0.4056  0.2181
  496MOL    H4440634   0.199   3.531   3.905  0.4993 -0.4367  0.1072
  496MOL    H4540635   0.268   3.551   3.738  0.6501 -0.1739 -0.1989
  496MOL    C4640636   0.402   3.767   3.815  0.3688 -0.2937 -0.2828
  496MOL    O4740637   0.425   3.890   3.881  0.5264 -0.1803 -0.8333
  496MOL    H4840638   0.388   3.764   3.707  3.0659 -4.6660 -0.6528
  496MOL    H4940639   0.492   3.707   3.805 -0.1095 -1.3720  1.5913
  496MOL    C5040640   0.323   3.985   3.841  0.1227 -0.4313 -0.6156
  496MOL    O5140641   0.325   4.010   3.703  0.5039  0.4943  0.0920
  496MOL    H5240642   0.344   4.080   3.889 -0.8503 -0.6721  0.3070
  496MOL    H5340643   0.227   3.943   3.871  0.4736 -1.1907 -0.5362
  496MOL    C5440644   0.441   4.084   3.662 -0.1080 -0.6422  0.5680
  496MOL    O5540645   0.435   4.087   3.521  0.3772  0.1013  0.4072
  496MOL    H5640646   0.533   4.043   3.702 -0.0423 -2.1675 -1.1097
  496MOL    H5740647   0.441   4.183   3.709 -0.7384  1.1651 -3.0919
  496MOL    C5840648   0.468   3.958   3.469 -0.3038  0.5791 -0.5900
  496MOL    O5940649   0.594   3.914   3.485  0.6539  0.0696  0.0864
  496MOL    H6040650   0.450   3.972   3.363  1.0285  1.4047 -0.7286
  496MOL    H6140651   0.407   3.876   3.507 -1.4952  1.3839 -0.7634
  496MOL    C6240652   0.681   3.993   3.413 -0.0593 -0.7867  0.0295
  496MOL    O6340653   0.661   3.963   3.271  0.1525 -0.2386  0.3402
  496MOL    H6440654   0.781   3.959   3.438  0.0421  1.1369  2.3747
  496MOL    H6540655   0.662   4.096   3.443 -0.4290 -0.1738 -2.1863
  496MOL    C6640656   0.726   4.053   3.183 -0.0748 -0.5551 -0.0935
  496MOL    O6740657   0.864   4.053   3.199  0.0369 -0.5631  0.2502
  496MOL    H6840658   0.690   4.156   3.183 -2.3712 -1.3337 -2.1112
  496MOL    H6940659   0.698   4.023   3.083 -0.4512 -2.8204  0.6670
  496MOL    C7040660   0.928   4.080   3.075 -0.0813 -0.0944 -0.2534
  496MOL    O7140661   0.924   3.957   3.007 -0.1644 -0.2797  0.1883
  496MOL    H7240662   1.033   4.110   3.069 -0.2657  0.6106  0.1269
  496MOL    H7340663   0.872   4.154   3.018  1.4013 -0.3257 -2.0783
  496MOL    C7440664   0.909   3.965   2.868 -0.6916  0.2248 -0.5390
  496MOL    O7540665   1.035   3.984   2.812  0.2320  0.0842  0.2554
  496MOL    H7640666   0.834   4.040   2.845 -1.9362  0.2271  3.1572
  496MOL    H7740667   0.862   3.876   2.826 -0.7106  0.5160 -1.1444
  496MOL    C7840668   1.106   3.868   2.788  0.1317  0.4009  0.1828
  496MOL    O7940669   1.229   3.900   2.733 -0.2414 -0.1923  0.3032
  496MOL    H8040670   1.048   3.804   2.722 -1.2849 -0.1025  1.8819
  496MOL    H8140671   1.130   3.807   2.875 -1.9786  0.6386  0.9552
  496MOL    H8240672   1.206   3.931   2.647 -1.3533 -0.0714  0.6321
  497MOL     C140673   0.538   5.547   7.574 -0.0193  0.2135  0.3659
  497MOL     O240674   0.450   5.478   7.485 -0.1537  0.0264  0.3898
  497MOL     H340675   0.521   5.654   7.572 -1.9200 -0.0458 -3.7939
  497MOL     H440676   0.512   5.526   7.678 -0.8989  1.4103  0.3961
  497MOL     H540677   0.644   5.528   7.554  0.1698  0.9494  0.6598
  497MOL     C640678   0.317   5.484   7.530  1.0461  0.2833  0.2223
  497MOL     O740679   0.263   5.616   7.529  0.2479 -0.5624 -0.0396
  497MOL     H840680   0.309   5.435   7.628 -0.9559 -1.9827 -1.0278
  497MOL     H940681   0.265   5.417   7.462  0.7837  1.3935 -0.6728
  497MOL    C1040682   0.127   5.620   7.517 -0.1519  0.2250 -0.6323
  497MOL    O1140683   0.082   5.584   7.395  0.5300  0.1134 -0.1750
  497MOL    H1240684   0.093   5.721   7.541 -1.0539  0.2432 -1.9241
  497MOL    H1340685   0.068   5.563   7.589 -0.8111  1.0081 -0.5533
  497MOL    C1440686   0.150   5.654   7.290  0.1767  0.1675 -0.6426
  497MOL    O1540687   0.087   5.655   7.168 -0.2941  0.0640 -0.2937
  497MOL    H1640688   0.252   5.617   7.283 -0.0667 -0.0723 -3.2921
  497MOL    H1740689   0.154   5.759   7.317  0.1149  0.5623 -2.1469
  497MOL    C1840690   0.082   5.527   7.107  0.1264  0.1110 -0.2915
  497MOL    O1940691   0.198   5.492   7.045  0.2506 -0.4301  0.1594
  497MOL    H2040692   7.782   5.543   7.038  0.6134  2.9697 -0.2669
  497MOL    H2140693   0.040   5.465   7.186 -1.0146  0.7876 -0.3495
  497MOL    C2240694   0.200   5.354   7.018  0.0037  0.0460 -0.1867
  497MOL    O2340695   0.213   5.284   7.135  0.5435  0.4106 -0.2778
  497MOL    H2440696   0.288   5.328   6.959 -0.3104  1.5197 -1.3315
  497MOL    H2540697   0.107   5.330   6.966  0.0912  1.0626 -0.8170
  497MOL    C2640698   0.328   5.306   7.205 -0.2493  0.1857  0.3000
  497MOL    O2740699   0.434   5.257   7.123  0.1734  0.2735  0.5138
  497MOL    H2840700   0.322   5.251   7.299  0.4793 -2.0336 -0.9194
  497MOL    H2940701   0.343   5.411   7.232  2.1205 -0.3103  1.0466
  497MOL    C3040702   0.454   5.120   7.110  0.4942 -1.1155 -0.0288
  497MOL    O3140703   0.526   5.074   7.216  0.3414  0.6637  0.0844
  497MOL    H3240704   0.514   5.112   7.020 -1.7420  2.1028 -1.9132
  497MOL    H3340705   0.362   5.066   7.089 -0.4929 -0.2881  1.9526
  497MOL    C3440706   0.660   5.092   7.206 -0.1694 -0.4767  0.3281
  497MOL    O3540707   0.709   5.009   7.112  0.0832  0.7166  0.1701
  497MOL    H3640708   0.701   5.075   7.305 -0.2934  1.5926  0.7471
  497MOL    H3740709   0.683   5.197   7.188  0.5616 -0.5308  0.9465
  497MOL    C3840710   0.697   4.872   7.144 -0.5485 -0.9805  0.3379
  497MOL    O3940711   0.760   4.832   7.262  0.1979 -0.0847  0.5397
  497MOL    H4040712   0.741   4.811   7.065  0.5741 -1.0803  1.0274
  497MOL    H4140713   0.591   4.850   7.153 -0.2397 -2.3519  0.7077
  497MOL    C4240714   0.724   4.699   7.296 -1.0257 -0.3882 -0.4125
  497MOL    O4340715   0.772   4.611   7.201  0.2342 -0.0421 -0.9390
  497MOL    H4440716   0.616   4.690   7.294 -0.9137 -1.8054 -1.0822
  497MOL    H4540717   0.770   4.677   7.393 -0.4217  0.4067 -0.5160
  497MOL    C4640718   0.757   4.476   7.231  0.5575  1.0085  0.1326
  497MOL    O4740719   0.832   4.426   7.338 -0.4087  0.3961  0.4223
  497MOL    H4840720   0.774   4.421   7.138  0.9404  0.6238  0.4293
  497MOL    H4940721   0.652   4.451   7.240  0.5870  0.5688 -0.6855
  497MOL    C5040722   0.950   4.357   7.307  0.5416  0.0014  0.4897
  497MOL    O5140723   0.920   4.231   7.244  0.2412 -0.4498 -0.2852
  497MOL    H5240724   0.997   4.344   7.404 -0.0647  0.4531  0.8453
  497MOL    H5340725   1.020   4.413   7.244  0.1684 -0.1734 -0.0894
  497MOL    C5440726   0.869   4.139   7.326  0.2469 -0.1447  0.0141
  497MOL    O5540727   0.970   4.059   7.390 -0.5878  0.1413  0.1401
  497MOL    H5640728   0.822   4.065   7.261  0.1266 -1.1571  1.2370
  497MOL    H5740729   0.799   4.178   7.398  0.5273  2.0757 -0.8735
  497MOL    C5840730   1.069   4.009   7.310  0.0048  0.4967  0.0443
  497MOL    O5940731   1.151   3.919   7.382  0.3883  0.4671 -0.7422
  497MOL    H6040732   1.135   4.092   7.285 -1.0761  1.2406 -0.3724
  497MOL    H6140733   1.037   3.955   7.220 -3.8072  2.4373  0.1529
  497MOL    C6240734   1.265   3.865   7.317  0.1124 -0.3221 -0.3525
  497MOL    O6340735   1.360   3.959   7.292  0.0505  0.6849 -0.2752
  497MOL    H6440736   1.226   3.828   7.222  2.5335 -3.3240 -0.2434
  497MOL    H6540737   1.291   3.782   7.383  1.2052 -0.0912 -0.4914
  497MOL    C6640738   1.437   3.982   7.407  0.4078 -0.7393 -0.3720
  497MOL    O6740739   1.547   3.897   7.424  0.1216  0.2909 -0.2669
  497MOL    H6840740   1.359   3.973   7.483  2.0074 -0.6750  1.2922
  497MOL    H6940741   1.457   4.089   7.420 -0.1159 -0.8733  1.5841
  497MOL    C7040742   1.651   3.957   7.365  0.2846 -0.1304  0.1313
  497MOL    O7140743   1.724   4.042   7.456 -0.3504 -0.2781  0.0638
  497MOL    H7240744   1.620   4.013   7.277 -1.1068  1.2494  1.4521
  497MOL    H7340745   1.705   3.875   7.319 -0.1152  1.2622 -2.9753
  497MOL    C7440746   1.832   3.978   7.514  0.0379 -0.2254 -1.0613
  497MOL    O7540747   1.928   3.938   7.419  0.2019  0.6545  0.6611
  497MOL    H7640748   1.792   3.887   7.558 -0.4349  0.0492 -0.9244
  497MOL    H7740749   1.872   4.048   7.587 -1.5589  0.3362 -0.7135
  497MOL    C7840750   1.976   4.036   7.339 -0.2648  0.0675  0.0055
  497MOL    O7940751   2.052   3.990   7.229  0.1306 -0.4098  0.3245
  497MOL    H8040752   2.041   4.108   7.390 -1.0670 -0.5438  1.9635
  497MOL    H8140753   1.903   4.106   7.299  0.2845  0.5036 -0.2338
  497MOL    H8240754   1.988   3.973   7.161  0.2525  0.7055 -0.0859
  498MOL     C140755   2.720   2.804   2.222 -0.1995  0.2199 -0.4811
  498MOL     O240756   2.670   2.801   2.082 -0.0905 -0.0126  0.2175
  498MOL     H340757   2.736   2.903   2.265  0.0329 -1.6206  3.9056
  498MOL     H440758   2.638   2.758   2.278  0.1159  0.4571  0.1786
  498MOL     H540759   2.808   2.743   2.241  0.1369  1.4546  2.1748
  498MOL     C640760   2.662   2.666   2.037  0.4101  0.2114  0.8126
  498MOL     O740761   2.789   2.600   2.045  0.3092 -0.7906  0.4161
  498MOL     H840762   2.615   2.649   1.940  1.2534 -0.7106  0.5576
  498MOL     H940763   2.591   2.610   2.097  1.5883 -0.2886  1.7497
  498MOL    C1040764   2.872   2.646   1.938 -0.4714 -0.1155  0.2299
  498MOL    O1140765   2.832   2.596   1.817 -0.0519 -0.1621  0.0887
  498MOL    H1240766   2.973   2.613   1.961 -1.0232 -1.8174  0.2897
  498MOL    H1340767   2.865   2.755   1.931 -2.9709 -0.3698 -1.8045
  498MOL    C1440768   2.871   2.462   1.810 -0.0757 -0.0163  0.3791
  498MOL    O1540769   3.000   2.451   1.796 -0.6206  0.5012 -0.4524
  498MOL    H1640770   2.836   2.434   1.711  1.6820 -0.0254 -0.2651
  498MOL    H1740771   2.823   2.400   1.886 -1.0725  2.2391  1.6551
  498MOL    C1840772   3.051   2.321   1.814  0.0041 -0.1955  0.0136
  498MOL    O1940773   3.054   2.289   1.952  0.1396 -0.4124 -0.2411
  498MOL    H2040774   3.153   2.308   1.776 -0.5565  0.0194 -1.5826
  498MOL    H2140775   2.990   2.253   1.754  1.0021 -1.3394  0.2536
  498MOL    C2240776   3.147   2.369   2.031  0.0079  0.6345  1.2961
  498MOL    O2340777   3.137   2.355   2.174 -0.2337 -0.6386 -0.0038
  498MOL    H2440778   3.141   2.470   1.991  0.6866  0.3124  0.3515
  498MOL    H2540779   3.249   2.341   2.005 -0.3635 -0.6486  1.1783
  498MOL    C2640780   3.005   2.376   2.229 -0.5112 -0.4986 -0.5129
  498MOL    O2740781   2.997   2.413   2.374  0.7601 -0.2240  0.3465
  498MOL    H2840782   2.957   2.278   2.223  1.7495 -1.5544 -1.7533
  498MOL    H2940783   2.953   2.442   2.159  1.2055  1.1250 -0.2698
  498MOL    C3040784   3.043   2.538   2.390  0.2823 -0.3195 -0.3511
  498MOL    O3140785   3.020   2.569   2.525 -0.0030  0.7678 -0.6243
  498MOL    H3240786   2.995   2.611   2.324 -0.1467  0.0571  0.3602
  498MOL    H3340787   3.151   2.546   2.377  0.1858  1.2867 -0.3239
  498MOL    C3440788   2.887   2.594   2.560  0.3925 -0.1309 -0.0770
  498MOL    O3540789   2.839   2.713   2.515  0.1668  0.5656  0.3103
  498MOL    H3640790   2.896   2.600   2.669 -0.8619  1.9448 -0.0475
  498MOL    H3740791   2.822   2.512   2.527 -0.7196  0.8339 -0.3361
  498MOL    C3840792   2.708   2.737   2.545  0.4844 -0.7573 -0.9334
  498MOL    O3940793   2.678   2.758   2.684  0.1289 -0.3940 -0.0575
  498MOL    H4040794   2.649   2.658   2.499  1.5497 -1.1997 -1.5651
  498MOL    H4140795   2.663   2.821   2.492  1.2004 -0.5091 -1.1618
  498MOL    C4240796   2.730   2.881   2.727  0.5910 -0.2199  0.3222
  498MOL    O4340797   2.634   2.979   2.702 -0.1633 -0.0495  0.4492
  498MOL    H4440798   2.829   2.890   2.681  0.4505  0.6385  0.1658
  498MOL    H4540799   2.743   2.862   2.833 -0.2609  1.1632  0.6876
  498MOL    C4640800   2.681   3.109   2.734  0.4498  0.3983  0.1186
  498MOL    O4740801   2.776   3.155   2.644  0.1424  0.2351 -0.0584
  498MOL    H4840802   2.730   3.109   2.831  0.8737 -0.4612 -0.0979
  498MOL    H4940803   2.606   3.188   2.741  0.7129  0.6326  0.3081
  498MOL    C5040804   2.725   3.168   2.520 -0.8706  0.5366  0.3667
  498MOL    O5140805   2.832   3.208   2.442  0.4583 -0.2314  0.5189
  498MOL    H5240806   2.645   3.241   2.526  1.7696  3.6552 -0.5823
  498MOL    H5340807   2.687   3.072   2.486  0.4001 -0.2317  1.0580
  498MOL    C5440808   2.804   3.204   2.304 -0.0798 -0.1071  0.1389
  498MOL    O5540809   2.695   3.281   2.267  0.5292  0.6321 -0.4618
  498MOL    H5640810   2.775   3.101   2.284  1.7853 -0.9362  1.6901
  498MOL    H5740811   2.894   3.209   2.243  0.8703  1.4222  1.6458
  498MOL    C5840812   2.721   3.414   2.251 -0.6318  0.7176  0.0073
  498MOL    O5940813   2.623   3.477   2.189 -0.4021  0.6367 -0.3420
  498MOL    H6040814   2.816   3.427   2.200  0.7869  1.0344  2.6287
  498MOL    H6140815   2.732   3.449   2.354 -0.6534 -1.0477  0.6319
  498MOL    C6240816   2.612   3.454   2.053  0.1106 -0.2467  0.1251
  498MOL    O6340817   2.706   3.518   1.971 -0.2176  0.1227  0.1709
  498MOL    H6440818   2.519   3.487   2.007 -0.2454 -1.7174 -0.2132
  498MOL    H6540819   2.628   3.347   2.043  0.4421 -0.4903  2.8158
  498MOL    C6640820   2.686   3.658   1.971 -0.2199  0.4621  0.2234
  498MOL    O6740821   2.775   3.727   1.891  0.0886  0.1084 -0.0701
  498MOL    H6840822   2.686   3.688   2.075  0.1253 -0.9311  0.6360
  498MOL    H6940823   2.588   3.692   1.937 -1.5439 -2.0168  1.5043
  498MOL    C7040824   2.764   3.686   1.752  1.2384 -0.6164  0.0590
  498MOL    O7140825   2.832   3.783   1.678 -0.3426  0.8119  0.4709
  498MOL    H7240826   2.666   3.669   1.708  0.9184 -0.6709  0.7961
  498MOL    H7340827   2.809   3.587   1.742 -0.4944 -1.2553 -1.5443
  498MOL    C7440828   2.772   3.912   1.677 -0.2825  0.5105 -0.7606
  498MOL    O7540829   2.655   3.915   1.614  0.4951  0.1385  0.3086
  498MOL    H7640830   2.839   3.971   1.615  0.5494 -1.0819 -1.4216
  498MOL    H7740831   2.772   3.956   1.777  3.2210  2.3211 -1.4551
  498MOL    C7840832   2.661   3.860   1.484  0.0386  0.0677  0.8187
  498MOL    O7940833   2.532   3.851   1.418 -0.3935  0.1854  0.5682
  498MOL    H8040834   2.702   3.759   1.479 -2.5699 -1.0379  1.2288
  498MOL    H8140835   2.719   3.919   1.413 -1.2518  2.1639  1.4721
  498MOL    H8240836   2.487   3.934   1.408 -0.4084  0.1928  0.6982
  499MOL     C140837   3.196   7.142   4.988  0.2756  0.1341  0.3572
  499MOL     O240838   3.280   7.141   4.872  0.6184  0.8482 -0.3830
  499MOL     H340839   3.097   7.098   4.972  0.5987 -0.9172  1.1771
  499MOL     H440840   3.234   7.091   5.077  0.0244  0.7183  0.8052
  499MOL     H540841   3.184   7.248   5.011  1.1229  0.3769 -0.3272
  499MOL     C640842   3.278   7.035   4.783  0.7838  0.3393  0.2213
  499MOL     O740843   3.173   7.051   4.694  0.2901  0.1358 -0.4771
  499MOL     H840844   3.271   6.937   4.830  0.9898  0.6556  0.9157
  499MOL     H940845   3.375   7.031   4.734 -0.2987 -1.3428 -1.8799
  499MOL    C1040846   3.188   7.163   4.621  0.1122  0.2008  0.3984
  499MOL    O1140847   3.274   7.138   4.513 -0.2076 -0.0369 -0.4238
  499MOL    H1240848   3.214   7.257   4.670  0.6839  0.7261 -0.8771
  499MOL    H1340849   3.091   7.175   4.572  0.2418 -0.1400  0.0543
  499MOL    C1440850   3.223   7.179   4.391  0.1470 -0.2414  0.1419
  499MOL    O1540851   3.124   7.095   4.346  0.2067 -0.3213 -0.3913
  499MOL    H1640852   3.299   7.179   4.313 -1.6743  2.4312 -1.7206
  499MOL    H1740853   3.195   7.284   4.392  1.1511  0.0365 -0.2818
  499MOL    C1840854   3.167   6.968   4.308  0.2915  0.2241  0.0920
  499MOL    O1940855   3.246   6.965   4.193  0.5676 -0.6802  0.3197
  499MOL    H2040856   3.091   6.892   4.290  2.1661 -1.5772 -0.4037
  499MOL    H2140857   3.237   6.923   4.378  3.7942  2.7847 -1.6319
  499MOL    C2240858   3.178   6.999   4.071 -0.1670 -0.8460 -0.0225
  499MOL    O2340859   3.187   6.890   3.979 -0.3392 -0.6160 -0.0754
  499MOL    H2440860   3.230   7.083   4.024 -1.8367 -1.2850 -2.7713
  499MOL    H2540861   3.073   7.027   4.077  0.2199  1.2335 -2.1940
  499MOL    C2640862   3.089   6.794   4.019 -0.3938 -0.0656  0.3302
  499MOL    O2740863   2.961   6.841   3.992  0.2139 -0.0621 -0.0435
  499MOL    H2840864   3.102   6.764   4.123  0.2080 -0.0348  0.2681
  499MOL    H2940865   3.113   6.709   3.955  1.1445  0.5927 -0.0086
  499MOL    C3040866   2.936   6.879   3.858 -0.2046  0.1837 -0.5572
  499MOL    O3140867   2.804   6.856   3.833 -0.6299 -0.6152  0.0548
  499MOL    H3240868   2.988   6.815   3.786 -0.8341 -1.6249  0.5471
  499MOL    H3340869   2.974   6.980   3.849  0.7713 -0.0707  0.6286
  499MOL    C3440870   2.755   6.725   3.828  0.0132 -0.4452  0.2329
  499MOL    O3540871   2.791   6.672   3.709 -0.0130 -0.4238 -0.3486
  499MOL    H3640872   2.647   6.740   3.832 -0.0883 -1.6117  2.8912
  499MOL    H3740873   2.778   6.658   3.911 -2.4666  1.6559  2.7256
  499MOL    C3840874   2.702   6.686   3.601  0.2989 -0.6040  0.3531
  499MOL    O3940875   2.595   6.595   3.605  0.4506 -0.0686  0.2870
  499MOL    H4040876   2.760   6.668   3.511 -2.1143 -0.4783 -1.2739
  499MOL    H4140877   2.676   6.791   3.594  2.2423  0.0192  1.9170
  499MOL    C4240878   2.629   6.460   3.603 -0.1940 -0.2603 -0.0990
  499MOL    O4340879   2.521   6.372   3.615 -0.2004 -0.5438 -0.8304
  499MOL    H4440880   2.691   6.450   3.692 -0.1661  0.6132 -0.0130
  499MOL    H4540881   2.685   6.439   3.513  3.0550  1.1774  1.5045
  499MOL    C4640882   2.439   6.362   3.504  0.4186 -0.4798  0.1751
  499MOL    O4740883   2.509   6.319   3.392 -0.1905  0.5154 -0.2615
  499MOL    H4840884   2.387   6.457   3.494  1.7653  0.1814 -0.7607
  499MOL    H4940885   2.362   6.290   3.532  1.8060 -1.3234  1.9202
  499MOL    C5040886   2.554   6.190   3.400  0.1457 -1.2613 -0.7512
  499MOL    O5140887   2.454   6.092   3.373 -0.8614 -0.0771  0.0700
  499MOL    H5240888   2.608   6.169   3.493 -0.5050 -0.3599 -0.1613
  499MOL    H5340889   2.628   6.186   3.320  0.9085 -0.1171 -0.1187
  499MOL    C5440890   2.409   6.109   3.245  0.2353 -0.2772  0.7218
  499MOL    O5540891   2.496   6.069   3.136  0.2824 -0.6940 -0.5409
  499MOL    H5640892   2.377   6.212   3.226  1.3560 -0.1560 -0.6715
  499MOL    H5740893   2.321   6.045   3.234 -0.2233  0.4241  0.2344
  499MOL    C5840894   2.504   5.932   3.128 -0.0489  0.3958  1.1125
  499MOL    O5940895   2.567   5.879   3.238 -0.4493  0.3101 -0.7673
  499MOL    H6040896   2.559   5.912   3.037 -0.6137  1.0821  0.6182
  499MOL    H6140897   2.409   5.878   3.130  1.4100 -2.3405  0.0386
  499MOL    C6240898   2.711   5.884   3.239  0.5524 -0.0895 -0.1634
  499MOL    O6340899   2.772   5.778   3.164 -0.7996 -0.0558 -0.2781
  499MOL    H6440900   2.740   5.897   3.343 -1.7351  2.6293  0.1834
  499MOL    H6540901   2.748   5.973   3.189 -1.5963  0.8203 -0.1892
  499MOL    C6640902   2.759   5.652   3.219  0.1882  0.4949 -0.2493
  499MOL    O6740903   2.850   5.625   3.321  0.4648  0.2140 -0.4191
  499MOL    H6840904   2.804   5.589   3.143 -1.0554 -1.4099  0.5474
  499MOL    H6940905   2.659   5.624   3.252  0.5389  0.1919  0.5933
  499MOL    C7040906   2.831   5.517   3.401 -0.4766 -0.4297 -0.6594
  499MOL    O7140907   2.725   5.532   3.495  0.1707  0.5215 -0.2899
  499MOL    H7240908   2.926   5.512   3.454 -0.5820  0.0929 -0.4232
  499MOL    H7340909   2.828   5.421   3.348  0.4072 -2.1891  2.3423
  499MOL    C7440910   2.747   5.629   3.595  0.0613 -0.0939  0.7756
  499MOL    O7540911   2.825   5.573   3.692  0.5356  0.4170  0.6740
  499MOL    H7640912   2.650   5.667   3.628 -0.6755  0.9811 -2.3704
  499MOL    H7740913   2.788   5.720   3.550 -0.2443 -0.3865 -0.1140
  499MOL    C7840914   2.777   5.452   3.742 -0.1039  0.2094 -0.5738
  499MOL    O7940915   2.868   5.404   3.833  0.3453  0.2349 -0.2817
  499MOL    H8040916   2.766   5.378   3.663 -2.1014 -0.4087  0.2726
  499MOL    H8140917   2.678   5.473   3.780  0.0028 -0.7016  0.2170
  499MOL    H8240918   2.941   5.368   3.784  1.4089  0.4866  1.0638
  500MOL     C140919   5.006   3.476   3.981  0.2214  0.0707  0.0955
  500MOL     O240920   4.934   3.479   3.861 -0.2827 -0.3814  0.3829
  500MOL     H340921   5.074   3.560   3.998  0.0835  0.2027 -0.0053
  500MOL     H440922   4.939   3.466   4.066  1.8170 -1.1079  1.2574
  500MOL     H540923   5.071   3.390   3.999 -0.9234 -0.9375 -0.4822
  500MOL     C640924   4.992   3.413   3.753 -0.5072 -0.4400  0.1139
  500MOL     O740925   5.037   3.287   3.780  0.2072 -0.2530  0.1417
  500MOL     H840926   5.076   3.470   3.713  0.4374 -0.9101  1.4100
  500MOL     H940927   4.915   3.417   3.676  0.5477 -0.1021 -0.9377
  500MOL    C1040928   4.927   3.201   3.781 -0.8292  0.4357 -0.1460
  500MOL    O1140929   4.881   3.175   3.653 -0.5600 -0.3489  0.3471
  500MOL    H1240930   4.845   3.233   3.846  0.0739  1.6740  0.3910
  500MOL    H1340931   4.965   3.105   3.816 -2.4074 -0.7121 -1.4847
  500MOL    C1440932   4.970   3.111   3.568 -0.5585  0.0674 -0.5205
  500MOL    O1540933   4.894   3.056   3.468 -0.0939 -0.6353  0.3921
  500MOL    H1640934   5.015   3.029   3.624  1.2277  2.1368  1.1573
  500MOL    H1740935   5.049   3.171   3.524  0.0281 -2.6454 -3.4294
  500MOL    C1840936   4.867   3.142   3.358  0.6161 -0.8207  0.5015
  500MOL    O1940937   4.983   3.193   3.296 -0.1220 -0.2213  0.1012
  500MOL    H2040938   4.819   3.230   3.399  2.3010  0.5469 -0.3993
  500MOL    H2140939   4.821   3.076   3.284  1.5631 -0.0437 -0.8132
  500MOL    C2240940   5.049   3.094   3.225  0.4705  0.2724 -1.0909
  500MOL    O2340941   5.156   3.152   3.156  0.3933 -0.2675  0.2967
  500MOL    H2440942   4.985   3.055   3.146  2.6834 -0.7322 -2.4416
  500MOL    H2540943   5.074   3.004   3.283 -0.7248  0.7577  0.2158
  500MOL    C2640944   5.236   3.057   3.089  0.3432  0.4483 -0.1475
  500MOL    O2740945   5.271   2.943   3.171 -0.4954 -0.1420  0.5592
  500MOL    H2840946   5.330   3.104   3.059  0.1564  1.6029  1.0254
  500MOL    H2940947   5.188   3.016   3.000 -2.2927 -1.4562  2.0710
  500MOL    C3040948   5.349   2.976   3.286  0.2322 -0.1138  0.3990
  500MOL    O3140949   5.482   3.002   3.256  0.1202  0.6140 -0.1468
  500MOL    H3240950   5.334   2.896   3.359 -1.3794  0.0246  0.2508
  500MOL    H3340951   5.309   3.063   3.337 -0.3846 -1.3879  2.1251
  500MOL    C3440952   5.560   2.877   3.242  0.6214  0.2107 -1.2158
  500MOL    O3540953   5.582   2.831   3.371 -0.6052 -0.3643 -0.0111
  500MOL    H3640954   5.649   2.896   3.182  1.9260 -1.5063  0.1355
  500MOL    H3740955   5.500   2.804   3.188 -0.4629  0.4491 -0.3673
  500MOL    C3840956   5.655   2.709   3.381 -0.2680 -0.2115  0.3412
  500MOL    O3940957   5.784   2.717   3.333 -0.1503 -0.0672 -0.1063
  500MOL    H4040958   5.592   2.632   3.336 -1.4629  1.2353 -0.5104
  500MOL    H4140959   5.647   2.679   3.486  2.0617 -1.0725  0.2988
  500MOL    C4240960   5.862   2.799   3.410  0.4135  0.1003 -0.3796
  500MOL    O4340961   5.910   2.735   3.528  0.0701 -0.1943  0.3177
  500MOL    H4440962   5.820   2.897   3.430  0.2852 -0.7397  4.0266
  500MOL    H4540963   5.953   2.803   3.349  0.1436  2.3350 -0.6671
  500MOL    C4640964   5.984   2.825   3.611 -0.2355 -0.2699  0.3519
  500MOL    O4740965   6.083   2.891   3.543 -0.5665 -0.1985 -0.7466
  500MOL    H4840966   6.030   2.767   3.691  1.1195 -1.6873 -1.4241
  500MOL    H4940967   5.924   2.903   3.658 -0.3398 -0.8986  1.2714
  500MOL    C5040968   6.183   2.809   3.489  0.1668 -0.1027  0.4454
  500MOL    O5140969   6.270   2.735   3.573  0.5022  0.3731  0.8204
  500MOL    H5240970   6.245   2.879   3.432 -1.1091  0.5502 -0.1861
  500MOL    H5340971   6.132   2.735   3.427 -1.1784  0.8823  0.3376
  500MOL    C5440972   6.326   2.810   3.676 -0.3639  0.7360  0.0904
  500MOL    O5540973   6.428   2.889   3.635  0.2929 -0.1587 -0.3309
  500MOL    H5640974   6.345   2.745   3.762 -0.6877  1.1587  0.4813
  500MOL    H5740975   6.251   2.880   3.713 -1.1318 -0.2024  0.3210
  500MOL    C5840976   6.540   2.829   3.590 -0.0764  0.7230  0.0436
  500MOL    O5940977   6.625   2.800   3.695 -0.5535 -0.2641  0.4956
  500MOL    H6040978   6.592   2.876   3.506  0.1445  0.7557  0.1988
  500MOL    H6140979   6.499   2.737   3.548  0.8377  1.3487 -2.3074
  500MOL    C6240980   6.689   2.913   3.750 -0.2549  0.5635 -0.0009
  500MOL    O6340981   6.747   3.001   3.648 -0.0174  0.0677  0.5276
  500MOL    H6440982   6.760   2.892   3.829 -1.7314  1.3273  1.5625
  500MOL    H6540983   6.617   2.969   3.809 -2.0463 -2.2444  0.5687
  500MOL    C6640984   6.868   2.947   3.600 -0.1083 -0.6818  0.5202
  500MOL    O6740985   6.974   2.961   3.686  0.0161 -0.4505  0.2864
  500MOL    H6840986   6.891   2.994   3.504  0.1860 -0.5672  0.6480
  500MOL    H6940987   6.866   2.839   3.581  1.1144 -0.9453  1.8257
  500MOL    C7040988   7.040   3.081   3.663  0.0983  0.1999 -0.1116
  500MOL    O7140989   7.144   3.065   3.562 -0.4449  0.3147  0.2652
  500MOL    H7240990   7.090   3.113   3.754 -1.1029  3.5763 -0.5726
  500MOL    H7340991   6.972   3.160   3.631 -0.3897 -0.4651 -0.7359
  500MOL    C7440992   7.233   2.960   3.595 -0.3451  0.5860  0.1565
  500MOL    O7540993   7.349   2.992   3.667  0.6238  0.0965 -0.2118
  500MOL    H7640994   7.270   2.920   3.501 -2.5538 -0.9699 -0.0876
  500MOL    H7740995   7.172   2.883   3.641 -0.2109 -1.0936 -2.3625
  500MOL    C7840996   7.431   3.083   3.602 -0.3526 -0.1288 -0.3920
  500MOL    O7940997   7.522   3.142   3.696 -0.2670  0.2219  0.0470
  500MOL    H8040998   7.384   3.161   3.542 -0.9762 -0.1308  0.0901
  500MOL    H8140999   7.497   3.027   3.536  1.0091  0.5049  0.3973
  500MOL    H8241000   7.604   3.096   3.698 -0.5516 -0.2929  0.0664
  501MOL     C141001   1.837   4.613   7.623 -0.1536 -0.0465 -0.3402
  501MOL     O241002   1.733   4.535   7.683 -0.5697  0.5096 -0.0569
  501MOL     H341003   1.789   4.667   7.540 -2.8904  0.7111  1.6611
  501MOL     H441004   1.889   4.686   7.686 -1.0960  0.1359  0.2311
  501MOL     H541005   1.915   4.555   7.574 -0.5661 -2.5179  1.8320
  501MOL     C641006   1.784   4.458   0.008 -0.0891 -0.1418 -0.4367
  501MOL     O741007   1.798   4.330   7.745  0.4504 -0.0090 -0.1104
  501MOL     H841008   1.719   4.466   0.095  0.4044  0.4840 -0.1224
  501MOL     H941009   1.881   4.487   0.050 -0.8993  0.1809  1.2401
  501MOL    C1041010   1.670   4.266   7.730  0.5170  0.1415 -0.5002
  501MOL    O1141011   1.598   4.236   0.057  0.4584  0.0825 -0.2275
  501MOL    H1241012   1.694   4.169   7.686  0.4528 -0.7072  1.2747
  501MOL    H1341013   1.603   4.322   7.665 -1.5909 -0.2626  1.2780
  501MOL    C1441014   1.668   4.168   0.155  0.9651 -0.0542 -0.2710
  501MOL    O1541015   1.598   4.162   0.277  0.0741 -0.0931 -0.1847
  501MOL    H1641016   1.758   4.219   0.187  0.0414  1.3967  0.0517
  501MOL    H1741017   1.690   4.068   0.117  0.7011 -0.3047  0.2342
  501MOL    C1841018   1.492   4.069   0.272 -0.3392 -0.0472 -0.2425
  501MOL    O1941019   1.415   4.082   0.385  0.1156  0.0864 -0.5050
  501MOL    H2041020   1.530   3.968   0.263 -0.1373  0.0042  0.0376
  501MOL    H2141021   1.440   4.092   0.178  1.9563 -1.7576 -1.9678
  501MOL    C2241022   1.353   4.208   0.399 -0.2016  0.6174  0.4134
  501MOL    O2341023   1.216   4.201   0.388  0.3159  0.3894 -0.5269
  501MOL    H2441024   1.390   4.286   0.333 -1.9960  1.1922  0.0474
  501MOL    H2541025   1.370   4.238   0.503 -2.2244 -0.4436  1.0848
  501MOL    C2641026   1.170   4.192   0.256  0.1199 -0.0935  0.0615
  501MOL    O2741027   1.184   4.309   0.182 -0.6384  0.3618  0.7531
  501MOL    H2841028   1.073   4.142   0.253 -0.8135  1.6768  0.1285
  501MOL    H2941029   1.236   4.118   0.211  0.1791 -0.6488  1.0491
  501MOL    C3041030   1.092   4.402   0.222 -0.6293  0.7840  0.2097
  501MOL    O3141031   0.964   4.360   0.181 -0.0796 -0.0401 -0.2556
  501MOL    H3241032   1.115   4.500   0.180 -3.5038  1.0371 -0.8676
  501MOL    H3341033   1.092   4.425   0.329  2.2391 -0.6885  0.5653
  501MOL    C3441034   0.937   4.383   0.048  0.4418  0.3981 -0.7440
  501MOL    O3541035   0.941   4.523   0.011 -0.5352  0.0240  0.2515
  501MOL    H3641036   0.841   4.334   0.031  1.1171 -0.2235 -3.0107
  501MOL    H3741037   1.014   4.334   7.772  0.9317 -0.7907  0.8445
  501MOL    C3841038   0.915   4.556   7.659  0.2261  0.2312 -0.4591
  501MOL    O3941039   0.943   4.686   7.621 -0.0884  0.4041 -0.5054
  501MOL    H4041040   0.808   4.538   7.641  0.4504 -0.7024 -0.9071
  501MOL    H4141041   0.960   4.487   7.588 -1.9032  0.6415 -2.2946
  501MOL    C4241042   1.080   4.705   7.608  0.1230  0.3732  0.5889
  501MOL    O4341043   1.133   4.654   7.487  0.3546  0.6106  0.4987
  501MOL    H4441044   1.130   4.656   7.692 -0.9357  0.6173  1.3683
  501MOL    H4541045   1.094   4.813   7.609 -0.6267  0.4854 -0.5462
  501MOL    C4641046   1.082   4.718   7.374 -0.9113  0.0257 -0.1607
  501MOL    O4741047   1.176   4.810   7.337 -0.4250  0.1592  0.4880
  501MOL    H4841048   0.986   4.763   7.400 -1.5738 -1.4729  0.0530
  501MOL    H4941049   1.065   4.646   7.294  0.1321  0.5563 -0.8621
  501MOL    C5041050   1.298   4.756   7.298 -0.3959  0.0195 -0.1757
  501MOL    O5141051   1.392   4.852   7.251 -0.0590 -0.3417 -0.6261
  501MOL    H5241052   1.274   4.691   7.214 -1.9978  1.5648 -0.9408
  501MOL    H5341053   1.344   4.697   7.378  1.3783  1.2753 -0.2322
  501MOL    C5441054   1.432   4.938   7.348 -0.0370 -0.2382 -0.4197
  501MOL    O5541055   1.511   4.874   7.451  0.2573  0.0059 -0.0448
  501MOL    H5641056   1.343   4.988   7.385  0.8507  0.4837  0.7983
  501MOL    H5741057   1.500   5.010   7.302  2.0929 -0.8898  1.5938
  501MOL    C5841058   1.544   4.967   7.554 -0.1106  0.0752  0.2348
  501MOL    O5941059   1.431   5.036   7.602 -0.1844  0.2401 -0.4934
  501MOL    H6041060   1.616   5.036   7.511  0.2993 -1.7620 -2.1245
  501MOL    H6141061   1.597   4.921   7.637 -1.0609 -0.0153  0.8002
  501MOL    C6241062   1.467   5.122   7.705 -0.4073  0.3328 -0.3112
  501MOL    O6341063   1.508   5.241   7.645 -0.5533 -0.3461 -0.0605
  501MOL    H6441064   1.541   5.075   7.769  0.3834  1.0603 -0.6720
  501MOL    H6541065   1.383   5.138   7.773  0.0121  0.5135  0.1678
  501MOL    C6641066   1.410   5.309   7.569  0.3814 -0.2793  0.0995
  501MOL    O6741067   1.460   5.417   7.489 -0.5165 -0.3917 -0.4805
  501MOL    H6841068   1.343   5.350   7.645  2.8242  1.0088  1.6386
  501MOL    H6941069   1.368   5.236   7.499 -2.9736  1.7620 -0.1500
  501MOL    C7041070   1.456   5.531   7.557 -0.0844 -0.2697  0.3767
  501MOL    O7141071   1.337   5.590   7.604  0.4075  0.5085  0.5124
  501MOL    H7241072   1.513   5.603   7.498 -1.1291  3.7655  3.9954
  501MOL    H7341073   1.529   5.520   7.638  1.2547 -0.8673 -0.8858
  501MOL    C7441074   1.262   5.625   7.491  0.1870  0.2175 -0.0944
  501MOL    O7541075   1.332   5.725   7.422 -0.0321  0.1766  0.4574
  501MOL    H7641076   1.172   5.676   7.526  0.9886  0.7503  1.2382
  501MOL    H7741077   1.234   5.535   7.435 -0.5727 -0.3212  1.1173
  501MOL    C7841078   1.340   5.840   7.497 -0.4491 -0.4147  0.2908
  501MOL    O7941079   1.384   5.945   7.417  0.3828  0.2452 -0.0635
  501MOL    H8041080   1.422   5.831   7.569  0.1182 -0.6461 -0.3803
  501MOL    H8141081   1.240   5.870   7.530 -1.5957 -0.3733 -3.0572
  501MOL    H8241082   1.306   5.996   7.399  0.7350  0.9184  0.3022
  502MOL     C141083   2.445   7.626   0.393  0.4699  0.5067 -0.5371
  502MOL     O241084   2.325   7.658   0.461  0.0328 -0.0686 -0.2692
  502MOL     H341085   2.444   7.543   0.322 -0.9603 -1.4776  1.7416
  502MOL     H441086   2.459   7.714   0.330 -2.1187  1.2995 -0.0692
  502MOL     H541087   2.533   7.633   0.457  0.6314  0.5346 -0.7644
  502MOL     C641088   2.270   7.554   0.540  0.6525 -0.6416  0.2019
  502MOL     O741089   2.353   7.507   0.637  0.1009  0.2993  0.8605
  502MOL     H841090   2.242   7.474   0.472 -1.5703  0.3036 -0.0446
  502MOL     H941091   2.176   7.584   0.588  1.0234  0.3672  0.3236
  502MOL    C1041092   2.396   7.610   0.718  0.9200 -1.0454 -0.2311
  502MOL    O1141093   2.291   7.647   0.810 -0.4871  0.5069  0.1357
  502MOL    H1241094   2.439   7.696   0.667 -3.4240  1.0863 -0.5464
  502MOL    H1341095   2.474   7.556   0.772  0.4962 -0.8833  0.5528
  502MOL    C1441096   2.340   7.728   0.909  0.7325  0.4584 -0.4029
  502MOL    O1541097   2.368   0.073   0.863  0.0825 -0.8894 -0.2926
  502MOL    H1641098   2.424   7.676   0.956 -0.7756 -1.0296  0.6934
  502MOL    H1741099   2.262   7.736   0.984  0.4359  0.0799 -0.6706
  502MOL    C1841100   2.251   0.151   0.834 -1.3242  0.4555 -0.7966
  502MOL    O1941101   2.201   0.221   0.943 -0.4061  0.6554 -0.3058
  502MOL    H2041102   2.169   0.095   0.790  1.8585 -2.9356 -2.7102
  502MOL    H2141103   2.289   0.207   0.748  2.5513 -0.0571  0.4782
  502MOL    C2241104   2.291   0.311   0.994 -0.0633 -0.1922 -0.2040
  502MOL    O2341105   2.323   0.408   0.897  0.0988 -0.4728  0.1054
  502MOL    H2441106   2.390   0.269   1.014  0.4814  1.0841 -0.1506
  502MOL    H2541107   2.250   0.361   1.082 -0.3840 -2.1269  0.7632
  502MOL    C2641108   2.225   0.509   0.882  0.6074  0.8087 -0.6566
  502MOL    O2741109   2.244   0.609   0.974  0.3182  0.0459  0.3311
  502MOL    H2841110   2.124   0.469   0.895  0.0708  2.5757  0.7256
  502MOL    H2941111   2.239   0.545   0.780  0.1159  0.1997 -0.9436
  502MOL    C3041112   2.353   0.686   0.955 -0.3879 -0.0793 -0.4473
  502MOL    O3141113   2.346   0.766   0.837  0.1667 -0.5677 -0.5787
  502MOL    H3241114   2.440   0.619   0.954 -0.3960 -0.0891 -0.5031
  502MOL    H3341115   2.391   0.753   1.032 -0.6281 -2.1476  1.5054
  502MOL    C3441116   2.268   0.883   0.850 -0.1777  0.2333 -0.5289
  502MOL    O3541117   2.335   0.976   0.924 -0.4261 -0.2093  0.3148
  502MOL    H3641118   2.169   0.859   0.891  0.4648  0.5872  1.2736
  502MOL    H3741119   2.251   0.916   0.748 -1.2439  0.1471 -0.3900
  502MOL    C3841120   2.258   1.095   0.939 -0.7421  0.0025 -0.5040
  502MOL    O3941121   2.223   1.156   0.821 -0.2427  0.4520  0.0233
  502MOL    H4041122   2.325   1.159   0.996 -1.6753  1.8228 -1.4055
  502MOL    H4141123   2.166   1.076   0.994 -0.1116 -0.4864  0.4074
  502MOL    C4241124   2.328   1.219   0.756 -1.1851  0.9367 -0.4561
  502MOL    O4341125   2.369   1.337   0.813 -0.2262 -0.3691 -0.0942
  502MOL    H4441126   2.304   1.228   0.650  0.5445 -2.6303 -1.2355
  502MOL    H4541127   2.414   1.153   0.759 -2.4385 -0.6714  0.9814
  502MOL    C4641128   2.269   1.438   0.797  0.4805 -0.0648  0.0892
  502MOL    O4741129   2.295   1.548   0.876  0.2021  0.0721 -0.2221
  502MOL    H4841130   2.169   1.398   0.812  1.0001 -0.8895  1.5310
  502MOL    H4941131   2.275   1.479   0.696  0.8686 -2.4510 -0.8869
  502MOL    C5041132   2.234   1.530   1.001 -0.3501 -1.1256  0.6113
  502MOL    O5141133   2.097   1.505   0.997 -0.2482  0.4240 -0.2879
  502MOL    H5241134   2.260   1.615   1.064  1.3115  0.3745 -2.0428
  502MOL    H5341135   2.284   1.447   1.050  2.5984 -0.7929 -1.7645
  502MOL    C5441136   2.014   1.612   0.965  0.3150 -0.0011 -0.0695
  502MOL    O5541137   2.032   1.723   1.052  0.0472  0.2930 -0.0614
  502MOL    H5641138   1.910   1.580   0.963 -0.2678  1.8345 -3.6348
  502MOL    H5741139   2.048   1.645   0.867 -2.0082 -0.2898 -0.9957
  502MOL    C5841140   1.980   1.699   1.179 -0.4936 -0.2159  0.1821
  502MOL    O5941141   1.890   1.795   1.206  0.3268  0.1061 -0.2583
  502MOL    H6041142   2.054   1.725   1.254 -0.8216 -0.7807  0.7052
  502MOL    H6141143   1.936   1.600   1.187 -1.9176  0.3442 -0.4392
  502MOL    C6241144   1.760   1.762   1.158  0.4688 -0.5763 -0.0134
  502MOL    O6341145   1.664   1.868   1.159  0.4050  0.2788 -0.3199
  502MOL    H6441146   1.724   1.683   1.225 -0.7984 -0.1515 -0.1801
  502MOL    H6541147   1.773   1.737   1.053  1.8629  0.0655 -0.0100
  502MOL    C6641148   1.620   1.923   1.282 -0.8386 -0.5446  0.2248
  502MOL    O6741149   1.519   2.024   1.264 -0.4541  0.4237 -0.1324
  502MOL    H6841150   1.695   1.957   1.353 -1.5418 -0.6513  1.0185
  502MOL    H6941151   1.561   1.848   1.334 -2.6418  1.4379  1.1076
  502MOL    C7041152   1.560   2.125   1.176  0.1940 -0.3849  0.4956
  502MOL    O7141153   1.651   2.202   1.247 -0.4705 -0.2952  0.0323
  502MOL    H7241154   1.482   2.199   1.161 -1.0871 -1.6501  0.7870
  502MOL    H7341155   1.606   2.086   1.085  0.6039 -2.2381  1.4621
  502MOL    C7441156   1.730   2.286   1.171 -0.5105  0.1773  0.1065
  502MOL    O7541157   1.655   2.382   1.094 -0.6032  0.0082  0.3012
  502MOL    H7641158   1.792   2.237   1.097  1.0478  0.7457  1.0062
  502MOL    H7741159   1.791   2.334   1.248 -0.6298  0.9551 -0.2785
  502MOL    C7841160   1.570   2.460   1.173 -0.1251 -0.7580  0.4026
  502MOL    O7941161   1.506   2.553   1.081  0.0049  0.2035  0.6688
  502MOL    H8041162   1.614   2.532   1.242  0.1529  0.4154 -0.9474
  502MOL    H8141163   1.494   2.401   1.223 -0.5484  1.1951  2.1273
  502MOL    H8241164   1.580   2.598   1.042  0.0094 -0.5606 -0.2259
  503MOL     C141165   4.802   1.420   5.971 -0.0328 -0.3002 -0.3747
  503MOL     O241166   4.785   1.382   6.107 -0.5166  0.1623 -0.2328
  503MOL     H341167   4.871   1.504   5.961 -1.7230  0.9000 -2.6123
  503MOL     H441168   4.846   1.339   5.912  0.1814 -0.3745 -0.1138
  503MOL     H541169   4.707   1.447   5.924 -1.6419 -0.6372  2.5815
  503MOL     C641170   4.727   1.486   6.191 -0.3760 -0.1181  0.6117
  503MOL     O741171   4.795   1.614   6.187 -0.4719  0.1479 -0.6065
  503MOL     H841172   4.717   1.468   6.298 -0.5078  1.8048  0.9278
  503MOL     H941173   4.626   1.495   6.152  0.2011  2.1834 -0.3943
  503MOL    C1041174   4.906   1.620   6.268  0.0240 -0.2079 -0.1401
  503MOL    O1141175   4.978   1.739   6.253  0.4352  0.2754 -0.2618
  503MOL    H1241176   4.972   1.534   6.259  0.7577  0.2348  0.8641
  503MOL    H1341177   4.865   1.608   6.369 -0.0405 -1.5493 -0.3147
  503MOL    C1441178   4.915   1.850   6.312 -0.1021  0.5542  0.2473
  503MOL    O1541179   4.980   1.965   6.262  0.3273 -0.3790 -0.2578
  503MOL    H1641180   4.914   1.856   6.421 -2.0702  2.2797  0.1770
  503MOL    H1741181   4.811   1.853   6.278  0.1323 -1.6713 -0.7494
  503MOL    C1841182   5.103   1.995   6.325  0.1095  0.2927  0.9936
  503MOL    O1941183   5.096   2.021   6.467 -0.6845 -1.0355 -0.0071
  503MOL    H2041184   5.151   2.072   6.263 -0.4843 -0.9601 -1.0466
  503MOL    H2141185   5.168   1.910   6.308  1.5449  1.8889 -1.9503
  503MOL    C2241186   5.060   2.151   6.504  0.5535  0.3243  0.0663
  503MOL    O2341187   5.163   2.247   6.483  0.5780 -0.3944 -0.5259
  503MOL    H2441188   5.024   2.149   6.606  0.9392 -0.5859  0.1890
  503MOL    H2541189   4.977   2.174   6.438 -0.7826 -2.4350  0.7306
  503MOL    C2641190   5.280   2.219   6.562  0.4611  0.0186  0.6603
  503MOL    O2741191   5.376   2.315   6.532  0.0131 -0.1767 -0.4609
  503MOL    H2841192   5.330   2.123   6.549 -0.4733 -0.7245  2.4024
  503MOL    H2941193   5.264   2.226   6.670  2.4379  3.2938  0.8001
  503MOL    C3041194   5.425   2.305   6.404 -0.4549  0.0044 -0.2766
  503MOL    O3141195   5.555   2.347   6.387 -0.6716  0.2285  0.0835
  503MOL    H3241196   5.355   2.372   6.353 -2.3300 -0.9808  0.9498
  503MOL    H3341197   5.422   2.207   6.358  1.8831  0.9304 -2.5401
  503MOL    C3441198   5.579   2.476   6.428 -1.0131  0.0158 -0.2715
  503MOL    O3541199   5.520   2.578   6.354  0.0623  0.7664  0.4880
  503MOL    H3641200   5.687   2.494   6.422 -1.1471  1.4945  1.2299
  503MOL    H3741201   5.560   2.485   6.535 -1.0741  0.3352 -0.3066
  503MOL    C3841202   5.557   2.573   6.222  0.5460 -0.4182  0.5299
  503MOL    O3941203   5.664   2.663   6.205 -0.3839  0.6539  0.0490
  503MOL    H4041204   5.472   2.599   6.159  0.3150 -1.7506  0.2723
  503MOL    H4141205   5.600   2.479   6.189 -1.9542 -1.4557  0.1428
  503MOL    C4241206   5.629   2.791   6.206  0.0218 -0.2395  0.0403
  503MOL    O4341207   5.580   2.822   6.078  0.3287 -0.6210  0.8005
  503MOL    H4441208   5.724   2.838   6.230 -0.5051  0.4442  0.8367
  503MOL    H4541209   5.558   2.816   6.286  2.8271  1.3031  2.1516
  503MOL    C4641210   5.686   2.836   5.988 -0.4364  0.7403 -0.0297
  503MOL    O4741211   5.719   2.974   5.966 -0.6280 -0.0763  0.2399
  503MOL    H4841212   5.656   2.803   5.888  1.0013 -0.2069 -0.1556
  503MOL    H4941213   5.773   2.776   6.016  0.1095  0.5116 -2.1295
  503MOL    C5041214   5.628   3.045   5.895  0.5314 -0.1178 -0.1863
  503MOL    O5141215   5.623   3.006   5.757 -0.0859  0.2454 -0.4384
  503MOL    H5241216   5.648   3.152   5.904  1.2769 -0.0766 -2.0797
  503MOL    H5341217   5.533   3.032   5.947  1.1750  1.5755  1.4680
  503MOL    C5441218   5.723   3.073   5.687 -0.0330 -0.5210  0.4843
  503MOL    O5541219   5.694   3.211   5.679 -0.0648  0.8026 -0.8211
  503MOL    H5641220   5.731   3.048   5.581  0.1225 -0.8468  0.5724
  503MOL    H5741221   5.820   3.046   5.727  0.9914  1.4722 -0.5526
  503MOL    C5841222   5.600   3.255   5.586  0.2989 -0.6496  0.8326
  503MOL    O5941223   5.484   3.279   5.647  0.1509 -0.5617  0.1153
  503MOL    H6041224   5.577   3.183   5.507 -0.6779 -1.0561  1.4710
  503MOL    H6141225   5.631   3.340   5.526 -1.0461 -1.5095 -1.1324
  503MOL    C6241226   5.468   3.396   5.717  0.1459  0.0908 -0.6438
  503MOL    O6341227   5.410   3.484   5.629 -0.6842  0.1769  0.6065
  503MOL    H6441228   5.569   3.427   5.745  0.4470  0.7304 -2.3633
  503MOL    H6541229   5.412   3.377   5.808  1.7906 -0.6051  0.2532
  503MOL    C6641230   5.333   3.578   5.700 -0.1795 -0.5336 -0.7950
  503MOL    O6741231   5.223   3.523   5.745  0.4963  0.8384 -0.4224
  503MOL    H6841232   5.324   3.658   5.627  0.2129  1.7797  1.6074
  503MOL    H6941233   5.393   3.611   5.784 -0.6191  1.3733 -1.2137
  503MOL    C7041234   5.127   3.511   5.650  0.0373 -0.6364 -0.2776
  503MOL    O7141235   5.072   3.634   5.624 -0.2041  0.5167  0.3239
  503MOL    H7241236   5.045   3.445   5.678  1.2014 -2.3227 -0.7775
  503MOL    H7341237   5.163   3.468   5.556 -0.3027  0.4918 -0.9469
  503MOL    C7441238   4.995   3.684   5.730  0.4149  0.3616 -0.2416
  503MOL    O7541239   4.881   3.599   5.744 -0.7570 -0.1908 -0.2936
  503MOL    H7641240   4.971   3.782   5.689  0.0301  0.4560  0.2099
  503MOL    H7741241   5.054   3.689   5.822 -1.5982 -0.1546  1.0931
  503MOL    C7841242   4.783   3.665   5.823  0.2369 -0.5129  0.2558
  503MOL    O7941243   4.662   3.591   5.838 -0.3256 -0.0303  0.0596
  503MOL    H8041244   4.758   3.762   5.782 -2.6755 -1.3424 -0.0797
  503MOL    H8141245   4.820   3.680   5.925  0.3301 -0.7394  0.2572
  503MOL    H8241246   4.598   3.652   5.870 -0.2353 -0.1475  0.4734
  504MOL     C141247   3.433   3.468   6.837  0.0850 -0.0111  0.1484
  504MOL     O241248   3.301   3.409   6.850 -0.0027 -0.5770  0.2459
  504MOL     H341249   3.493   3.455   6.926  1.3874 -0.2966 -0.7648
  504MOL     H441250   3.474   3.416   6.751 -1.4156 -2.2238  0.7359
  504MOL     H541251   3.429   3.575   6.812 -1.5897  0.4662  2.2969
  504MOL     C641252   3.294   3.286   6.915 -0.2856 -0.5060 -1.1939
  504MOL     O741253   3.361   3.284   7.033 -0.3559  0.0765 -0.4539
  504MOL     H841254   3.363   3.221   6.862  1.8712  2.1338 -1.7453
  504MOL     H941255   3.197   3.238   6.901  0.2574 -1.7451 -0.7921
  504MOL    C1041256   3.275   3.313   7.138  0.5820  0.3937 -0.3866
  504MOL    O1141257   3.195   3.199   7.172 -0.3773 -0.7861 -0.1665
  504MOL    H1241258   3.218   3.405   7.122  2.0295  1.5157  0.8244
  504MOL    H1341259   3.337   3.342   7.222  0.2454 -2.0666  0.7575
  504MOL    C1441260   3.254   3.125   7.277 -0.5157  0.7236  0.0743
  504MOL    O1541261   3.250   3.191   7.400 -0.0984 -0.1875 -0.9619
  504MOL    H1641262   3.352   3.090   7.243 -0.4125  2.1213 -1.0867
  504MOL    H1741263   3.206   3.028   7.294 -1.4505  1.1666 -0.0004
  504MOL    C1841264   3.346   3.135   7.485 -0.1641  0.4132 -0.1820
  504MOL    O1941265   3.314   3.007   7.524  0.0521  0.0554 -0.5116
  504MOL    H2041266   3.348   3.207   7.568  1.1094  1.1807 -0.8576
  504MOL    H2141267   3.441   3.134   7.431 -0.0679  0.3878 -0.0146
  504MOL    C2241268   3.381   2.973   7.645 -0.3648 -0.0551 -0.5100
  504MOL    O2341269   3.367   3.074   7.742 -0.5511  0.2244 -0.0768
  504MOL    H2441270   3.489   2.968   7.634  0.1814  0.2310  3.8204
  504MOL    H2541271   3.348   2.878   7.686  1.1218 -1.3933 -2.2940
  504MOL    C2641272   3.397   3.031   0.088 -0.3180 -0.8158  0.0011
  504MOL    O2741273   3.510   2.959   0.092 -0.2354 -0.7047  0.2288
  504MOL    H2841274   3.314   2.977   0.133 -0.7650  1.8042  2.5177
  504MOL    H2941275   3.405   3.117   0.156  1.4276 -1.2253  0.3388
  504MOL    C3041276   3.630   3.020   0.078 -0.1710 -0.5744 -0.4517
  504MOL    O3141277   3.667   3.107   0.181 -0.8472  0.2426  0.2891
  504MOL    H3241278   3.634   3.073   7.766 -1.7758  2.7968  1.2784
  504MOL    H3341279   3.705   2.941   0.073 -0.6076 -1.1635  1.7546
  504MOL    C3441280   3.668   3.053   0.312  0.0985 -0.0903  0.1217
  504MOL    O3541281   3.724   3.137   0.413 -0.0928  0.2423  0.2670
  504MOL    H3641282   3.711   2.954   0.313  3.0953  1.1722  0.1689
  504MOL    H3741283   3.564   3.037   0.342  0.4084 -1.1021  0.6801
  504MOL    C3841284   3.868   3.129   0.417  0.9178  0.1264  0.4466
  504MOL    O3941285   3.911   3.010   0.460 -0.4756 -0.3538  0.4029
  504MOL    H4041286   3.909   3.210   0.477  0.0763  0.5310  0.4823
  504MOL    H4141287   3.909   3.149   0.318 -0.2846  2.8706  0.4771
  504MOL    C4241288   3.903   3.005   0.593  0.0768 -0.6566  0.9148
  504MOL    O4341289   4.026   3.046   0.644 -0.2573  0.0097 -0.3505
  504MOL    H4441290   3.878   2.903   0.623  0.9714 -1.3187 -0.5587
  504MOL    H4541291   3.826   3.064   0.644  0.1960  1.5316 -1.3598
  504MOL    C4641292   4.123   2.945   0.654 -1.0025  0.0660 -0.2212
  504MOL    O4741293   4.081   2.856   0.753  0.5295 -0.3450 -0.4529
  504MOL    H4841294   4.214   2.992   0.690 -1.6726 -0.3452  2.0642
  504MOL    H4941295   4.142   2.908   0.553 -2.5570 -0.3725 -0.3584
  504MOL    C5041296   4.125   2.727   0.727  0.0841 -0.5228  0.3989
  504MOL    O5141297   4.074   2.635   0.813  0.1794 -0.1541 -0.2620
  504MOL    H5241298   4.232   2.732   0.745  0.5390 -3.0992 -1.3701
  504MOL    H5341299   4.107   2.701   0.623  0.3657  1.4492 -0.1677
  504MOL    C5441300   4.145   2.633   0.931  0.5345  0.0114  0.3981
  504MOL    O5541301   4.266   2.567   0.917 -0.7030 -0.0612 -0.0825
  504MOL    H5641302   4.088   2.578   1.006  0.1285  0.0769  0.1408
  504MOL    H5741303   4.170   2.732   0.969 -1.7601  1.0160 -0.5949
  504MOL    C5841304   4.244   2.437   0.862  0.0245  0.1452  0.1995
  504MOL    O5941305   4.349   2.349   0.893 -0.1673 -0.1698 -0.1391
  504MOL    H6041306   4.217   2.443   0.756 -2.4284 -1.7888  0.6901
  504MOL    H6141307   4.155   2.395   0.909  0.7058 -2.3416 -0.6693
  504MOL    C6241308   4.470   2.382   0.826  0.1761 -0.6804  0.9778
  504MOL    O6341309   4.453   2.344   0.691 -0.5648  0.3787 -0.2990
  504MOL    H6441310   4.554   2.341   0.883  0.5547 -0.9169  0.2488
  504MOL    H6541311   4.480   2.490   0.835  0.8654 -0.8191  2.0149
  504MOL    C6641312   4.483   2.207   0.677  0.0519  0.1087  0.5076
  504MOL    O6741313   4.621   2.172   0.674 -0.3570 -0.0060  0.0839
  504MOL    H6841314   4.443   2.183   0.579 -0.4170 -2.3065  1.2546
  504MOL    H6941315   4.427   2.143   0.744 -1.4411 -1.0095 -1.7671
  504MOL    C7041316   4.643   2.040   0.625 -0.4399 -0.5070 -0.1717
  504MOL    O7141317   4.698   1.952   0.721 -0.0673  0.3072 -0.7313
  504MOL    H7241318   4.722   2.045   0.549  0.8223 -3.7402  0.8547
  504MOL    H7341319   4.555   1.997   0.577 -0.9173 -0.7028  0.8770
  504MOL    C7441320   4.602   1.911   0.810 -0.0693  0.7715 -0.3859
  504MOL    O7541321   4.488   1.852   0.746 -0.3607  0.0923 -1.0950
  504MOL    H7641322   4.560   1.998   0.860  0.3862 -1.1144  3.5308
  504MOL    H7741323   4.654   1.852   0.886 -0.4779  0.5421 -0.2828
  504MOL    C7841324   4.514   1.720   0.715 -0.0929  0.1689 -0.4537
  504MOL    O7941325   4.397   1.649   0.708 -0.1262  0.0643  0.3738
  504MOL    H8041326   4.577   1.674   0.791 -3.1090  0.1963  2.1919
  504MOL    H8141327   4.573   1.703   0.625  2.0558  0.9941  0.7453
  504MOL    H8241328   4.341   1.699   0.651 -2.1153 -1.6904  0.7313
  505MOL     C141329   4.944   2.298   5.710 -0.4912 -0.1647  0.0222
  505MOL     O241330   4.880   2.185   5.753 -0.0919 -0.0093  0.3285
  505MOL     H341331   5.010   2.256   5.634  0.4767 -0.6156  1.0962
  505MOL     H441332   4.890   2.383   5.669  1.0881  1.0901  0.5080
  505MOL     H541333   5.008   2.340   5.787 -0.6455  0.2179 -0.0571
  505MOL     C641334   4.971   2.095   5.810 -0.0008 -0.9037 -0.5254
  505MOL     O741335   4.913   1.963   5.835  0.1411 -0.3477  0.4654
  505MOL     H841336   5.015   2.136   5.901  0.9558  0.1436 -1.4504
  505MOL     H941337   5.055   2.082   5.742  0.3885 -0.7287 -0.0807
  505MOL    C1041338   5.007   1.891   5.904 -0.7878  0.1383 -0.0843
  505MOL    O1141339   5.124   1.862   5.834  0.4256 -0.0209  0.1329
  505MOL    H1241340   4.948   1.802   5.929  1.4148 -1.1913  0.5378
  505MOL    H1341341   5.029   1.947   5.995  0.8674  1.3836 -1.2129
  505MOL    C1441342   5.114   1.753   5.747  0.4225  0.2493 -0.6026
  505MOL    O1541343   5.081   1.633   5.810  0.2963  0.2062  0.1345
  505MOL    H1641344   5.208   1.739   5.695 -0.4416 -1.0186 -1.8524
  505MOL    H1741345   5.045   1.784   5.669  1.5641  2.8531 -0.6495
  505MOL    C1841346   5.156   1.611   5.917  0.6959  0.6662 -0.4810
  505MOL    O1941347   5.287   1.581   5.878  0.0645  0.0516  0.3468
  505MOL    H2041348   5.123   1.527   5.979 -1.6700  2.5322  0.8887
  505MOL    H2141349   5.161   1.690   5.992  4.7581 -0.2658  0.3581
  505MOL    C2241350   5.383   1.564   5.980  0.3147 -0.0349  0.3871
  505MOL    O2341351   5.392   1.671   6.067  0.5668  0.5353  0.2809
  505MOL    H2441352   5.481   1.542   5.935  1.2511  0.7843  1.9838
  505MOL    H2541353   5.346   1.485   6.044 -2.1506  0.1863 -0.7266
  505MOL    C2641354   5.448   1.781   6.001 -0.7089 -0.2656 -0.0089
  505MOL    O2741355   5.587   1.771   5.977 -0.1310 -0.4700  0.0334
  505MOL    H2841356   5.442   1.866   6.069  3.7209 -0.0388  0.2310
  505MOL    H2941357   5.405   1.813   5.906  0.2266 -1.2078 -0.7595
  505MOL    C3041358   5.666   1.809   6.085  0.4355 -0.1594 -0.1866
  505MOL    O3141359   5.676   1.947   6.089  0.6126  0.3056  0.4365
  505MOL    H3241360   5.761   1.758   6.067  0.3312  0.0928 -1.4937
  505MOL    H3341361   5.624   1.782   6.183  0.5043  1.1676  0.2130
  505MOL    C3441362   5.750   2.004   5.980  0.1651 -0.3785 -0.2332
  505MOL    O3541363   5.836   2.114   6.017 -0.4957  0.2985 -0.2232
  505MOL    H3641364   5.682   2.040   5.903 -1.4155  3.1993  2.7112
  505MOL    H3741365   5.818   1.936   5.929  1.7377  1.6379 -0.8909
  505MOL    C3841366   5.940   2.066   6.106 -0.3522  0.5675  0.6985
  505MOL    O3941367   6.018   2.170   6.159 -0.6376  0.4458  0.5059
  505MOL    H4041368   6.007   2.002   6.049 -1.6691  0.1205 -0.3751
  505MOL    H4141369   5.901   2.012   6.192 -0.0303  0.6068  0.8721
  505MOL    C4241370   5.949   2.267   6.223  0.2410 -0.2968 -0.0413
  505MOL    O4341371   5.916   2.220   6.349 -0.6432  0.5461  0.3760
  505MOL    H4441372   5.855   2.297   6.178  0.0905  1.0004  1.1216
  505MOL    H4541373   6.010   2.356   6.237 -0.4023  0.1440 -0.0498
  505MOL    C4641374   6.016   2.222   6.442  0.0006 -0.0600 -0.1633
  505MOL    O4741375   5.987   2.305   6.549 -0.4920  0.3914 -0.0748
  505MOL    H4841376   6.116   2.249   6.410 -0.6886  0.3530 -2.0556
  505MOL    H4941377   6.023   2.119   6.477  1.0887 -0.2766 -1.0115
  505MOL    C5041378   5.875   2.273   6.622  0.0024  0.5407  0.7997
  505MOL    O5141379   5.898   2.160   6.702 -0.2011  0.8696  0.0785
  505MOL    H5241380   5.779   2.262   6.571  0.8773 -1.3793 -0.4909
  505MOL    H5341381   5.853   2.357   6.688 -1.4936  0.2343  0.7102
  505MOL    C5441382   5.956   2.192   6.819 -0.4144 -0.0513 -0.0822
  505MOL    O5541383   5.872   2.246   6.903  0.4500  0.4854  0.2270
  505MOL    H5641384   6.040   2.256   6.793 -2.1887  3.1053  1.5318
  505MOL    H5741385   5.998   2.103   6.866  0.8606 -0.6627 -2.3046
  505MOL    C5841386   5.931   2.285   7.026 -0.0501 -0.2273  0.2712
  505MOL    O5941387   5.949   2.170   7.112  0.0295 -0.4925  0.3121
  505MOL    H6041388   5.864   2.361   7.068 -0.8486 -0.8601  0.1521
  505MOL    H6141389   6.023   2.341   7.008 -0.8480  0.0285 -3.5989
  505MOL    C6241390   5.841   2.134   7.178 -0.4660 -0.1116  0.5407
  505MOL    O6341391   5.812   2.227   7.275 -0.1160  0.1130  0.0111
  505MOL    H6441392   5.857   2.038   7.228 -2.6960 -0.3464  0.8708
  505MOL    H6541393   5.758   2.120   7.108 -0.5125  0.6848  0.4378
  505MOL    C6641394   5.674   2.241   7.309 -0.4481  0.0385  0.0513
  505MOL    O6741395   5.633   2.117   7.364  0.2900 -0.3185 -0.3657
  505MOL    H6841396   5.618   2.264   7.218 -1.7632 -1.1892  0.5341
  505MOL    H6941397   5.666   2.323   7.380  0.1607 -0.2324  0.4368
  505MOL    C7041398   5.681   2.086   7.489 -0.4101 -0.0364 -0.2252
  505MOL    O7141399   5.628   1.957   7.524  0.3198 -0.0060  0.2551
  505MOL    H7241400   5.648   2.158   7.564  0.4982 -0.3361  0.4586
  505MOL    H7341401   5.790   2.083   7.492 -0.5157 -1.9646  4.0269
  505MOL    C7441402   5.658   1.913   7.654 -1.0426 -0.1348  0.2145
  505MOL    O7541403   5.791   1.894   7.675 -0.4119  0.4950 -0.0144
  505MOL    H7641404   5.602   1.820   7.664 -0.9802 -0.2774 -0.6578
  505MOL    H7741405   5.621   1.975   7.736  0.6469 -0.2277  1.0531
  505MOL    C7841406   5.849   1.778   7.616 -0.0934  0.1716 -0.7254
  505MOL    O7941407   5.969   1.745   7.673 -0.7507 -0.3541  0.1250
  505MOL    H8041408   5.876   1.796   7.512  0.1062  3.3894 -0.1753
  505MOL    H8141409   5.789   1.687   7.623  0.7868 -0.3769 -0.1887
  505MOL    H8241410   5.957   1.709   7.760  1.7500 -2.2860 -0.2554
  506MOL     C141411   1.436   5.632   4.877  0.6796 -0.0745 -0.0234
  506MOL     O241412   1.369   5.691   4.772 -0.7273  0.1187  0.3754
  506MOL     H341413   1.402   5.529   4.894  0.5612 -0.0924 -0.3713
  506MOL     H441414   1.545   5.636   4.866  0.4331  0.3877 -2.5635
  506MOL     H541415   1.407   5.684   4.968  0.3159  0.0649 -0.2220
  506MOL     C641416   1.390   5.618   4.659  0.2141  0.5662 -0.1523
  506MOL     O741417   1.522   5.616   4.612 -0.0448 -0.1658 -0.1486
  506MOL     H841418   1.323   5.653   4.580  0.4940  0.8938 -0.2455
  506MOL     H941419   1.362   5.514   4.672  2.0342  0.3062  1.8025
  506MOL    C1041420   1.555   5.745   4.575 -0.1533  0.0130  0.0971
  506MOL    O1141421   1.490   5.783   4.457  0.0466 -0.3493  0.3114
  506MOL    H1241422   1.662   5.749   4.552 -0.3861  2.9460 -0.6502
  506MOL    H1341423   1.538   5.817   4.655  2.3906  1.3534 -0.4995
  506MOL    C1441424   1.541   5.902   4.404  0.1681  0.0237  0.0447
  506MOL    O1541425   1.669   5.887   4.346  0.3832 -0.0077  0.0447
  506MOL    H1641426   1.550   5.982   4.477  0.6050  0.2932 -0.3000
  506MOL    H1741427   1.473   5.949   4.332 -1.7193 -0.5763  1.4119
  506MOL    C1841428   1.662   5.830   4.211  0.2226  0.2456  0.4807
  506MOL    O1941429   1.623   5.924   4.123  0.0928  0.4301  0.9999
  506MOL    H2041430   1.583   5.754   4.216 -0.0944  0.6235  1.1996
  506MOL    H2141431   1.755   5.783   4.179 -0.9511 -3.2539  1.9649
  506MOL    C2241432   1.615   5.887   3.987  0.6023 -0.4210  0.1959
  506MOL    O2341433   1.505   5.809   3.946 -0.0682  0.2535  0.2792
  506MOL    H2441434   1.706   5.834   3.958  0.9910  1.0866 -1.4327
  506MOL    H2541435   1.616   5.974   3.921 -0.7836  0.7913  1.7189
  506MOL    C2641436   1.381   5.872   3.956 -0.0933 -0.0909 -1.1693
  506MOL    O2741437   1.293   5.791   4.033  0.0670 -0.3990  0.1202
  506MOL    H2841438   1.342   5.868   3.855  1.9979 -1.6802 -1.9669
  506MOL    H2941439   1.390   5.972   4.000  0.0155 -0.5324 -0.1806
  506MOL    C3041440   1.250   5.836   4.155 -0.3060  0.7468  0.6157
  506MOL    O3141441   1.290   5.754   4.258 -0.5237  0.2959  0.7573
  506MOL    H3241442   1.142   5.836   4.144 -0.0984  0.5804 -1.6475
  506MOL    H3341443   1.289   5.937   4.170 -0.8734  1.1262 -0.3685
  506MOL    C3441444   1.221   5.634   4.255 -0.0148  0.0492 -0.8830
  506MOL    O3541445   1.095   5.642   4.322 -0.0901 -0.4037 -0.0164
  506MOL    H3641446   1.278   5.561   4.311  0.7793  0.4627 -1.1455
  506MOL    H3741447   1.219   5.591   4.154 -2.0944 -0.0948 -0.8019
  506MOL    C3841448   0.996   5.556   4.279 -0.2461 -0.4485  0.5205
  506MOL    O3941449   0.969   5.565   4.145  0.9408  0.8299 -0.2162
  506MOL    H4041450   0.913   5.578   4.346 -1.1338  1.0979 -1.0543
  506MOL    H4141451   1.036   5.457   4.301 -0.6974 -0.5819  0.7450
  506MOL    C4241452   0.891   5.683   4.126 -0.3208  0.7842 -0.6568
  506MOL    O4341453   0.756   5.674   4.148 -0.2401 -0.1207  0.5483
  506MOL    H4441454   0.909   5.738   4.034  2.2534  1.1049 -0.0265
  506MOL    H4541455   0.931   5.761   4.191 -1.2221  1.2343 -0.6349
  506MOL    C4641456   0.698   5.605   4.049  0.1337 -0.4666 -0.0191
  506MOL    O4741457   0.681   5.687   3.934  0.5320 -0.2102 -0.0638
  506MOL    H4841458   0.600   5.567   4.078 -0.0749  0.0536 -0.0184
  506MOL    H4941459   0.747   5.510   4.030  0.9604 -0.1419  0.4717
  506MOL    C5041460   0.590   5.789   3.955  0.0202 -0.4951 -0.1477
  506MOL    O5141461   0.574   5.860   3.837 -0.4381 -0.1704  0.2185
  506MOL    H5241462   0.624   5.858   4.032  2.7128 -1.0617 -0.7711
  506MOL    H5341463   0.494   5.747   3.986  0.3232  0.1742  1.7290
  506MOL    C5441464   0.691   5.931   3.809  0.7275  0.4880 -0.5908
  506MOL    O5541465   0.669   6.038   3.726  0.3457 -0.0643  0.2235
  506MOL    H5641466   0.770   5.868   3.767  2.2581 -0.4811  3.4629
  506MOL    H5741467   0.737   5.965   3.902 -0.2009  2.2482 -0.7564
  506MOL    C5841468   0.582   6.137   3.774  0.6341 -0.4129  0.3357
  506MOL    O5941469   0.617   6.193   3.893 -0.1782  0.0588 -0.1685
  506MOL    H6041470   0.487   6.090   3.800  1.0443 -0.4234  1.8493
  506MOL    H6141471   0.557   6.209   3.696 -2.7346 -1.6468  0.1696
  506MOL    C6241472   0.691   6.316   3.887  0.0969 -0.0246 -0.4920
  506MOL    O6341473   0.613   6.417   3.832  0.5165 -0.1455  0.3055
  506MOL    H6441474   0.790   6.304   3.845  0.8976  0.5468  1.1845
  506MOL    H6541475   0.715   6.344   3.989  1.1302 -2.0145 -0.1859
  506MOL    C6641476   0.680   6.533   3.799  0.1212  0.1684  0.4326
  506MOL    O6741477   0.756   6.514   3.684 -0.1902 -1.2194 -0.4820
  506MOL    H6841478   0.747   6.571   3.876  1.4901 -1.3454 -0.0013
  506MOL    H6941479   0.604   6.610   3.780 -0.1540 -0.6587 -1.9443
  506MOL    C7041480   0.681   6.505   3.567  0.1824  0.4044  0.1483
  506MOL    O7141481   0.632   6.631   3.527 -0.4767  0.4514 -0.1165
  506MOL    H7241482   0.591   6.445   3.580  1.0302 -0.7226  0.9387
  506MOL    H7341483   0.735   6.449   3.491  0.5044 -2.0879  2.1348
  506MOL    C7441484   0.727   6.713   3.473 -0.0828  0.5745 -0.4882
  506MOL    O7541485   0.684   6.846   3.490 -0.5126  0.3917  0.3473
  506MOL    H7641486   0.719   6.689   3.367 -1.9767  0.0629 -0.2408
  506MOL    H7741487   0.824   6.686   3.515 -2.5416 -1.7259  3.9865
  506MOL    C7841488   0.682   6.886   3.627  0.2001  0.2297  0.4964
  506MOL    O7941489   0.807   6.905   3.688 -0.1020  0.1565 -0.0296
  506MOL    H8041490   0.628   6.809   3.682 -1.1165 -0.2122 -1.3632
  506MOL    H8141491   0.615   6.972   3.624 -0.1144 -0.0189  0.3935
  506MOL    H8241492   0.835   6.994   3.674  0.5743 -0.3429 -2.0667
  507MOL     C141493   0.546   5.484   5.049  0.1773 -0.0626  0.3142
  507MOL     O241494   0.449   5.559   4.979 -0.3112 -0.5292 -0.0756
  507MOL     H341495   0.494   5.422   5.122 -0.9546 -1.0765 -1.3232
  507MOL     H441496   0.605   5.417   4.986 -2.5555 -1.6912 -0.5852
  507MOL     H541497   0.612   5.553   5.102  0.2265 -0.3562  0.6361
  507MOL     C641498   0.398   5.492   4.870  0.5690  0.2866 -0.2872
  507MOL     O741499   0.303   5.400   4.912  0.0653  0.1535  0.2128
  507MOL     H841500   0.470   5.448   4.801 -0.3086 -3.3562  1.0110
  507MOL     H941501   0.350   5.573   4.814  0.7684  1.4689  1.2365
  507MOL    C1041502   0.182   5.463   4.939 -0.6753 -0.0229  1.1881
  507MOL    O1141503   0.115   5.492   4.815 -0.3896 -0.3084  0.3108
  507MOL    H1241504   0.193   5.560   4.988  0.1572 -0.1513  1.2638
  507MOL    H1341505   0.119   5.406   5.006  0.0621 -0.2302  1.7195
  507MOL    C1441506   0.091   5.388   4.735  0.5197 -0.0115 -1.1068
  507MOL    O1541507   0.009   5.285   4.789 -0.1493 -0.1163 -0.0206
  507MOL    H1641508   0.188   5.340   4.717  0.5687 -0.1555 -0.4562
  507MOL    H1741509   0.058   5.421   4.636 -0.1758  2.0510 -0.2213
  507MOL    C1841510   7.656   5.302   4.767  0.0265 -0.0002 -0.5436
  507MOL    O1941511   7.621   5.277   4.633  0.6614 -0.7331 -0.2751
  507MOL    H2041512   7.627   5.405   4.788  1.0745 -0.2907  2.5204
  507MOL    H2141513   7.593   5.249   4.839 -0.3947 -0.3206 -1.1399
  507MOL    C2241514   7.479   5.297   4.621 -0.6257 -0.3017 -0.7530
  507MOL    O2341515   7.408   5.196   4.688 -0.2827  0.2596 -0.3151
  507MOL    H2441516   7.442   5.283   4.520  0.0954 -1.7577 -0.8375
  507MOL    H2541517   7.441   5.395   4.647 -2.0691 -1.4103  1.5062
  507MOL    C2641518   7.439   5.067   4.646 -0.2051  0.5712  0.0755
  507MOL    O2741519   7.327   5.007   4.599  0.0812  0.4104  0.5506
  507MOL    H2841520   7.472   5.007   4.731 -0.6580 -1.2490 -1.0124
  507MOL    H2941521   7.510   5.070   4.563 -0.1246  0.8819  0.1548
  507MOL    C3041522   7.245   4.961   4.703 -0.4630  0.3845 -0.3624
  507MOL    O3141523   7.136   4.918   4.636 -0.3369  0.0475  0.3545
  507MOL    H3241524   7.218   5.041   4.772 -1.0868 -0.8116  0.8094
  507MOL    H3341525   7.295   4.881   4.759 -0.2541 -0.0861 -1.2136
  507MOL    C3441526   7.168   4.807   4.556 -0.1990 -0.0205 -0.8698
  507MOL    O3541527   7.147   4.686   4.629 -0.6448 -0.6653  0.2917
  507MOL    H3641528   7.255   4.816   4.491 -1.0100  0.8506 -1.8581
  507MOL    H3741529   7.083   4.799   4.489  0.1663  0.0048 -1.3371
  507MOL    C3841530   7.172   4.564   4.567  0.0557 -0.1011 -0.6959
  507MOL    O3941531   7.305   4.531   4.574 -0.4965 -0.2562 -0.6949
  507MOL    H4041532   7.136   4.575   4.465 -3.0633  2.8893  0.6489
  507MOL    H4141533   7.108   4.484   4.603 -1.6529  0.6632 -1.9496
  507MOL    C4241534   7.343   4.519   4.709 -0.1897 -0.1647 -0.1053
  507MOL    O4341535   7.278   4.413   4.777  0.2665  0.2207 -0.2406
  507MOL    H4441536   7.340   4.613   4.763  2.6582  0.4003 -0.8776
  507MOL    H4541537   7.444   4.497   4.675  0.9125  0.4915  2.6123
  507MOL    C4641538   7.327   4.395   4.898 -0.3705  0.3721  0.1272
  507MOL    O4741539   7.463   4.361   4.895 -0.5151  0.4589  0.1076
  507MOL    H4841540   7.277   4.308   4.940  0.5731 -0.0486  0.3960
  507MOL    H4941541   7.308   4.469   4.976 -0.3671  0.5606 -0.0493
  507MOL    C5041542   7.491   4.235   4.839  0.1192 -0.6538  0.1405
  507MOL    O5141543   7.452   4.131   4.924 -0.2098 -0.1000 -0.3763
  507MOL    H5241544   7.596   4.238   4.810  0.3545  1.1347  1.1099
  507MOL    H5341545   7.428   4.226   4.751  0.2063  0.9630 -0.1060
  507MOL    C5441546   7.535   4.113   5.030 -0.0535  0.6469  0.1445
  507MOL    O5541547   7.661   4.066   4.988  0.3206 -0.4627 -0.1084
  507MOL    H5641548   7.503   4.048   5.111  1.4220 -1.7984 -1.1939
  507MOL    H5741549   7.546   4.210   5.079  0.6870  1.0252 -0.7608
  507MOL    C5841550   7.665   3.931   4.956 -0.1300  0.8210 -0.7317
  507MOL    O5941551   7.666   3.858   5.067  0.0137 -0.5204 -0.2941
  507MOL    H6041552   7.744   3.911   4.883  1.6303  1.3977  0.9744
  507MOL    H6141553   7.577   3.896   4.901  1.5588 -1.2160 -2.1957
  507MOL    C6241554   0.000   3.878   5.137  0.3755 -0.5891 -0.1761
  507MOL    O6341555   0.118   3.841   5.068  0.1324 -0.2117  0.5933
  507MOL    H6441556   7.765   3.827   5.231  1.8024  1.1769  1.0914
  507MOL    H6541557   0.010   3.983   5.162 -1.3463 -0.7627  1.3385
  507MOL    C6641558   0.237   3.854   5.140  0.1574 -0.0469  0.9483
  507MOL    O6741559   0.247   3.752   5.238 -0.4675  0.2711  0.4541
  507MOL    H6841560   0.244   3.941   5.204  0.9466 -0.9252  2.0820
  507MOL    H6941561   0.324   3.848   5.074 -1.9172  1.7117 -2.0755
  507MOL    C7041562   0.275   3.630   5.173 -0.5065  0.5205  0.0144
  507MOL    O7141563   0.403   3.635   5.120  0.3283 -0.4512 -0.6062
  507MOL    H7241564   0.209   3.604   5.091  2.4307 -2.9583 -1.3793
  507MOL    H7341565   0.267   3.545   5.240  1.8447  1.7771  1.9928
  507MOL    C7441566   0.503   3.618   5.210 -0.4747 -0.3416 -0.3113
  507MOL    O7541567   0.621   3.631   5.142  0.2438  0.3997  0.2852
  507MOL    H7641568   0.496   3.526   5.267 -1.8032 -0.5940 -0.8686
  507MOL    H7741569   0.487   3.680   5.298 -0.1066  0.0400 -0.5110
  507MOL    C7841570   0.633   3.757   5.083  0.3192 -0.1856 -0.1396
  507MOL    O7941571   0.762   3.773   5.036 -0.0674  0.4278  0.0324
  507MOL    H8041572   0.614   3.846   5.145 -0.1636 -0.6305  0.3543
  507MOL    H8141573   0.559   3.765   5.003  0.7569  1.3685 -0.4237
  507MOL    H8241574   0.772   3.708   4.967 -0.4317  0.9954 -0.5682
  508MOL     C141575   3.078   6.278   4.773  0.1409  0.1289  0.7757
  508MOL     O241576   3.155   6.170   4.718  0.0245 -0.1141 -0.2445
  508MOL     H341577   2.998   6.313   4.707 -0.2105 -0.9907  0.6022
  508MOL     H441578   3.030   6.244   4.864 -0.8798  0.9304  0.5514
  508MOL     H541579   3.147   6.353   4.812  1.4286 -0.6948  0.1185
  508MOL     C641580   3.243   6.203   4.615  0.2817  0.0376  0.2380
  508MOL     O741581   3.175   6.236   4.501 -0.5739 -0.0059  0.2765
  508MOL     H841582   3.304   6.115   4.592 -1.6097 -0.5023 -3.2016
  508MOL     H941583   3.303   6.286   4.650 -2.0241  0.0576  4.3800
  508MOL    C1041584   3.101   6.136   4.453  0.1310  0.6465  0.4760
  508MOL    O1141585   3.176   6.026   4.413 -0.6252 -0.4819  0.2818
  508MOL    H1241586   3.036   6.171   4.373  2.1088 -0.4848 -1.6983
  508MOL    H1341587   3.026   6.102   4.524  1.2849 -2.9072  0.0992
  508MOL    C1441588   3.236   6.034   4.285 -0.8519  0.4008  0.3730
  508MOL    O1541589   3.143   6.055   4.185  0.3043 -0.2614  0.5707
  508MOL    H1641590   3.287   5.944   4.252 -0.5356  0.7851 -0.1852
  508MOL    H1741591   3.307   6.117   4.292 -0.5901  0.4871 -2.7427
  508MOL    C1841592   3.076   5.942   4.131  0.0042  0.1499  0.2835
  508MOL    O1941593   3.169   5.875   4.056 -0.2869 -0.6852 -0.2750
  508MOL    H2041594   2.985   5.959   4.073 -0.1427 -1.0104  0.1617
  508MOL    H2141595   3.057   5.876   4.216 -1.5757  0.5121  0.2259
  508MOL    C2241596   3.178   5.933   3.930  0.1702 -0.3390  0.3883
  508MOL    O2341597   3.080   5.879   3.841  0.1819  0.2553 -0.1378
  508MOL    H2441598   3.274   5.914   3.883 -0.5112  0.1302 -1.2437
  508MOL    H2541599   3.171   6.042   3.936 -2.0709 -0.5050  1.3236
  508MOL    C2641600   3.107   5.743   3.803 -0.3992  0.3913  0.0508
  508MOL    O2741601   3.228   5.722   3.740 -0.0384  0.6384  0.1971
  508MOL    H2841602   3.029   5.694   3.745  0.4534 -1.2269  0.2389
  508MOL    H2941603   3.110   5.680   3.892 -1.4482 -2.6594 -1.9944
  508MOL    C3041604   3.234   5.789   3.619 -0.3828 -0.0967 -0.4051
  508MOL    O3141605   3.246   5.694   3.525 -0.8375  0.5713  0.3435
  508MOL    H3241606   3.313   5.863   3.617 -1.1353  0.7039 -1.5010
  508MOL    H3341607   3.146   5.849   3.594  0.9391  2.5880  1.2611
  508MOL    C3441608   3.378   5.661   3.496  0.0010  0.1796 -0.4396
  508MOL    O3541609   3.446   5.759   3.423 -0.2709 -0.2977  0.0863
  508MOL    H3641610   3.362   5.573   3.433 -0.2157 -2.0090  2.5648
  508MOL    H3741611   3.430   5.614   3.580 -1.1325 -0.2916  0.0085
  508MOL    C3841612   3.559   5.712   3.357 -0.1465  0.4860 -0.4050
  508MOL    O3941613   3.669   5.690   3.437 -0.1865 -0.4851  0.3128
  508MOL    H4041614   3.582   5.792   3.286  0.0559  0.8387  0.0586
  508MOL    H4141615   3.551   5.629   3.288 -3.7655  1.3414 -1.1573
  508MOL    C4241616   3.735   5.801   3.487  0.5196 -0.3018 -0.9688
  508MOL    O4341617   3.804   5.877   3.391  0.0007  0.1649  0.2951
  508MOL    H4441618   3.794   5.749   3.563  0.3481 -0.6141 -1.0492
  508MOL    H4541619   3.661   5.863   3.539  0.9323  0.6816 -1.5332
  508MOL    C4641620   3.860   5.992   3.436 -0.7673 -0.1135 -0.1975
  508MOL    O4741621   3.982   5.968   3.514  0.1297  0.8063  0.3251
  508MOL    H4841622   3.793   6.058   3.491  0.3971 -0.2171  1.3856
  508MOL    H4941623   3.890   6.046   3.346 -1.6785  0.2091 -0.3053
  508MOL    C5041624   4.105   5.985   3.448  0.4653  0.3930 -0.0440
  508MOL    O5141625   4.162   5.872   3.388  0.1676 -0.0616 -0.1789
  508MOL    H5241626   4.179   6.016   3.521  1.5554 -0.4655 -0.7688
  508MOL    H5341627   4.101   6.061   3.370  2.3487  0.1780 -0.3711
  508MOL    C5441628   4.103   5.837   3.264 -0.1859 -0.2632 -0.0630
  508MOL    O5541629   4.114   5.928   3.162  0.0509  0.5945  1.1385
  508MOL    H5641630   3.997   5.825   3.284 -0.0093  0.6412  1.4990
  508MOL    H5741631   4.138   5.743   3.221  1.5791 -0.6706  2.1767
  508MOL    C5841632   4.250   5.952   3.126 -0.1415  0.6236  0.3364
  508MOL    O5941633   4.327   5.846   3.082 -0.0201  0.2187 -0.2111
  508MOL    H6041634   4.304   5.984   3.216 -0.8505 -0.3333  1.1082
  508MOL    H6141635   4.244   6.036   3.056  0.5221  1.3898  1.1754
  508MOL    C6241636   4.274   5.793   2.964  0.2500  1.0634  0.9663
  508MOL    O6341637   4.369   5.720   2.889  0.2355 -0.5175  0.1025
  508MOL    H6441638   4.210   5.862   2.909 -0.2636 -0.4438 -0.3497
  508MOL    H6541639   4.204   5.715   2.995  1.7487 -0.4160  0.6986
  508MOL    C6641640   4.389   5.592   2.936 -0.2095 -0.2199 -0.4051
  508MOL    O6741641   4.279   5.510   2.906 -0.3360  0.2130  0.2265
  508MOL    H6841642   4.408   5.597   3.043  0.2183 -0.9959 -0.4409
  508MOL    H6941643   4.480   5.563   2.885 -0.2700 -0.1274 -0.5651
  508MOL    C7041644   4.258   5.513   2.770  0.1417  0.1134  0.2492
  508MOL    O7141645   4.181   5.404   2.733  0.0939  0.1415 -0.0763
  508MOL    H7241646   4.355   5.486   2.727  1.1316  0.4665  2.2222
  508MOL    H7341647   4.220   5.604   2.723 -1.4675  0.3249  1.9440
  508MOL    C7441648   4.044   5.417   2.761  0.0914 -0.1127  0.0937
  508MOL    O7541649   3.981   5.505   2.677  0.0739 -0.7854  0.3653
  508MOL    H7641650   4.034   5.451   2.864 -2.0954  1.0363 -0.4583
  508MOL    H7741651   3.994   5.320   2.760  1.6401 -0.9404  0.7475
  508MOL    C7841652   3.968   5.454   2.550 -0.5790  0.0683 -0.1497
  508MOL    O7941653   3.906   5.536   2.456 -0.3599 -0.6568 -0.2731
  508MOL    H8041654   3.911   5.361   2.550 -0.2355 -0.1470 -0.9646
  508MOL    H8141655   4.066   5.427   2.511 -0.6630  1.7957 -1.6018
  508MOL    H8241656   3.815   5.513   2.446 -0.0146 -1.9372 -0.5133
  509MOL     C141657   3.077   7.490   3.354 -0.8051  0.6140  0.2082
  509MOL     O241658   2.935   7.489   3.376 -0.2352  0.6583 -0.3212
  509MOL     H341659   3.140   7.503   3.442  0.0040  2.5682 -0.6367
  509MOL     H441660   3.116   7.413   3.288 -0.5715  0.6245  0.3323
  509MOL     H541661   3.098   7.580   3.297  0.1234 -0.2370 -0.8191
  509MOL     C641662   2.899   7.610   3.424 -0.6254  0.3913  0.0450
  509MOL     O741663   2.780   7.602   3.489 -0.4165 -0.2888 -0.6103
  509MOL     H841664   2.904   7.694   3.355  0.0749 -0.3707 -0.8442
  509MOL     H941665   2.966   7.641   3.504 -0.7202  1.0161 -0.1155
  509MOL    C1041666   2.664   7.584   3.403  1.0929 -0.1714 -0.2651
  509MOL    O1141667   2.656   7.689   3.315  0.0448 -0.5293 -0.1445
  509MOL    H1241668   2.574   7.572   3.463  2.2424 -0.8534  1.3688
  509MOL    H1341669   2.690   7.492   3.352  1.2406 -0.6629  0.6769
  509MOL    C1441670   2.622   0.022   3.380 -0.6077  0.1862  0.1000
  509MOL    O1541671   2.555   0.110   3.292 -0.4681 -0.5128 -0.4299
  509MOL    H1641672   2.706   0.065   3.435  0.2432 -2.2269  0.7576
  509MOL    H1741673   2.555   7.779   3.461  0.2135 -0.9728  0.4117
  509MOL    C1841674   2.438   0.060   3.234 -0.7938 -0.1599 -0.3185
  509MOL    O1941675   2.332   0.053   3.326  0.5766  0.1985 -0.4810
  509MOL    H2041676   2.467   7.754   3.180  0.0210 -0.5814  0.8059
  509MOL    H2141677   2.411   0.128   3.153 -0.2648  1.6428  0.9834
  509MOL    C2241678   2.274   0.173   3.360  0.4869 -0.7544  0.0799
  509MOL    O2341679   2.197   0.207   3.249  0.1555 -0.1620 -0.1430
  509MOL    H2441680   2.349   0.248   3.384 -3.2391  2.3021  2.7785
  509MOL    H2541681   2.203   0.160   3.441 -2.1785  1.8667 -1.7499
  509MOL    C2641682   2.160   0.341   3.241 -0.5711  0.7586  0.0164
  509MOL    O2741683   2.069   0.377   3.341 -0.0377  0.4577 -0.2398
  509MOL    H2841684   2.108   0.350   3.146  0.2954 -0.5781 -0.5950
  509MOL    H2941685   2.250   0.401   3.248 -2.5786  4.0596 -1.0388
  509MOL    C3041686   2.051   0.512   3.355 -0.0029 -0.3068 -0.1237
  509MOL    O3141687   2.153   0.575   3.416  0.3613 -1.0277 -0.1144
  509MOL    H3241688   1.965   0.507   3.422  0.9615 -0.2074  1.1495
  509MOL    H3341689   2.017   0.557   3.262 -2.2527  1.7366  1.6402
  509MOL    C3441690   2.185   0.523   3.547 -0.3722 -0.1240 -0.2215
  509MOL    O3541691   2.304   0.583   3.594 -0.2702  0.0944 -0.4408
  509MOL    H3641692   2.194   0.415   3.550  0.7883  0.0090  2.2042
  509MOL    H3741693   2.098   0.543   3.609  0.2120 -0.4241  0.7014
  509MOL    C3841694   2.417   0.557   3.516 -0.5793 -0.1143 -0.4390
  509MOL    O3941695   2.470   0.423   3.543  0.1378  0.3490 -0.1721
  509MOL    H4041696   2.490   0.623   3.563  0.0083 -0.7906 -0.3865
  509MOL    H4141697   2.400   0.586   3.413  2.7648 -0.9279 -1.2796
  509MOL    C4241698   2.584   0.398   3.469 -0.6430  0.4280 -0.3689
  509MOL    O4341699   2.690   0.466   3.537  0.4785 -0.4906 -0.4178
  509MOL    H4441700   2.571   0.430   3.366 -2.1459  0.6217 -0.1303
  509MOL    H4541701   2.605   0.292   3.455  0.4032  0.7973 -1.7357
  509MOL    C4641702   2.735   0.399   3.644  0.4240 -0.0887 -0.3398
  509MOL    O4741703   2.794   0.277   3.608  0.4242 -0.6261  0.3196
  509MOL    H4841704   2.652   0.363   3.705  0.0281  0.6811 -0.4245
  509MOL    H4941705   2.800   0.465   3.700 -0.2269  1.2069 -1.0980
  509MOL    C5041706   2.909   0.290   3.520 -0.0050  0.0577  0.6967
  509MOL    O5141707   3.007   0.371   3.572 -0.1988 -0.8080 -0.1582
  509MOL    H5241708   2.870   0.336   3.429 -0.8834  3.5367  2.7610
  509MOL    H5341709   2.952   0.192   3.497 -0.8703 -0.3383  0.7443
  509MOL    C5441710   3.109   0.304   3.644 -0.2593 -0.3646 -0.2163
  509MOL    O5541711   3.203   0.253   3.559  0.3924  0.1953  0.0858
  509MOL    H5641712   3.062   0.220   3.695  0.0397  0.4764  1.4765
  509MOL    H5741713   3.137   0.379   3.718  0.1367 -0.3750 -0.3589
  509MOL    C5841714   3.298   0.350   3.533 -0.2875 -0.0526 -0.0987
  509MOL    O5941715   3.396   0.292   3.457 -0.1796  0.1453 -0.3924
  509MOL    H6041716   3.339   0.394   3.624 -1.7284 -0.8291  0.9366
  509MOL    H6141717   3.255   0.422   3.465 -0.8313  0.1327  0.4350
  509MOL    C6241718   3.467   0.187   3.521  0.1733  0.2544 -0.2100
  509MOL    O6341719   3.601   0.197   3.503  0.3162 -0.3087 -0.1614
  509MOL    H6441720   3.426   0.095   3.480  2.3016 -1.2448  0.9679
  509MOL    H6541721   3.451   0.176   3.628  0.5842  0.6927 -0.1035
  509MOL    C6641722   3.641   0.192   3.368  0.2735 -0.0881  0.0454
  509MOL    O6741723   3.637   0.060   3.321  0.1639  0.4606 -0.0183
  509MOL    H6841724   3.741   0.235   3.359 -0.6933  2.7993  2.3546
  509MOL    H6941725   3.577   0.252   3.302  1.0389 -0.6309 -1.1971
  509MOL    C7041726   3.734   7.761   3.395 -0.1297  0.0095  0.6195
  509MOL    O7141727   3.728   7.634   3.348  0.4853 -0.0094  0.2707
  509MOL    H7241728   3.713   7.776   3.501  0.5923  2.0002  0.5130
  509MOL    H7341729   3.833   0.016   3.371 -0.0901 -1.8996 -2.5626
  509MOL    C7441730   3.620   7.568   3.415  0.0393  0.0787  0.2641
  509MOL    O7541731   3.644   7.557   3.550  1.0180 -0.3755 -0.1021
  509MOL    H7641732   3.607   7.465   3.381 -2.1424 -0.5876  2.9694
  509MOL    H7741733   3.527   7.619   3.393  0.0128  0.4094  1.1477
  509MOL    C7841734   3.753   7.487   3.586 -0.1760  0.5044 -0.0352
  509MOL    O7941735   3.755   7.476   3.722 -0.3352  0.2510  0.0818
  509MOL    H8041736   3.845   7.532   3.549 -1.7563  2.7109 -1.4386
  509MOL    H8141737   3.748   7.388   3.541  1.1456  1.4271 -2.3011
  509MOL    H8241738   3.788   7.558   3.756 -1.8430  0.2004  1.7236
  510MOL     C141739   0.663   3.783   7.277  0.2475 -0.3631  0.1156
  510MOL     O241740   0.530   3.781   7.218  0.0642 -0.5234  0.2455
  510MOL     H341741   0.662   3.827   7.376  1.0064 -2.5216  1.1161
  510MOL     H441742   0.699   3.680   7.289  1.0114 -0.2966 -1.3668
  510MOL     H541743   0.737   3.831   7.213  0.4400 -3.2004 -1.9173
  510MOL     C641744   0.523   3.717   7.094 -0.4925  0.4265 -0.2590
  510MOL     O741745   0.529   3.572   7.108  0.3452  0.5429 -0.6627
  510MOL     H841746   0.612   3.746   7.038 -0.8527  1.0562 -0.5171
  510MOL     H941747   0.442   3.766   7.039 -0.5140  0.1553 -0.4696
  510MOL    C1041748   0.420   3.517   7.168  0.4705 -0.1362 -0.3713
  510MOL    O1141749   0.308   3.528   7.095  0.0166  0.3632 -0.1318
  510MOL    H1241750   0.411   3.568   7.264  2.0066  1.6204 -1.1474
  510MOL    H1341751   0.452   3.415   7.190 -0.0820 -0.2993 -0.3069
  510MOL    C1441752   0.306   3.439   6.979 -0.2045  0.2823  0.3536
  510MOL    O1541753   0.295   3.311   7.011  0.6633  0.7768 -0.2983
  510MOL    H1641754   0.391   3.439   6.911 -1.2942  0.7178 -1.0327
  510MOL    H1741755   0.222   3.471   6.917  0.1649 -0.3198 -0.4583
  510MOL    C1841756   0.187   3.281   7.092 -0.3075  0.3110  0.8925
  510MOL    O1941757   0.085   3.221   7.015  0.1619  0.0815  0.2544
  510MOL    H2041758   0.126   3.362   7.133  0.0288  0.4697  1.0770
  510MOL    H2141759   0.216   3.216   7.175 -0.2119 -0.0618  0.5716
  510MOL    C2241760   0.119   3.090   6.989 -0.5038 -0.0251  0.5763
  510MOL    O2341761   0.126   3.010   7.102 -0.1330 -0.1461  0.4088
  510MOL    H2441762   0.215   3.094   6.938  0.0026 -0.7430  1.4624
  510MOL    H2541763   0.038   3.052   6.928 -0.3008 -4.3963  2.8396
  510MOL    C2641764   0.004   3.014   7.165 -0.3989 -0.6207  0.4576
  510MOL    O2741765   0.002   2.936   7.286 -0.0923  0.1800  0.1433
  510MOL    H2841766   7.712   2.979   7.095 -2.3804  2.4633  0.9812
  510MOL    H2941767   7.761   3.114   7.198  0.2298  0.5548 -2.4317
  510MOL    C3041768   0.070   3.000   7.395 -0.0676 -0.1176  0.2635
  510MOL    O3141769   7.777   3.096   7.459  0.2451 -0.5070 -0.1327
  510MOL    H3241770   0.155   3.057   7.357 -2.6941  1.8146 -3.0245
  510MOL    H3341771   0.120   2.925   7.456 -1.3422 -3.1841 -2.3729
  510MOL    C3441772   7.670   3.048   7.527  0.5459 -0.4845 -0.5467
  510MOL    O3541773   7.709   3.002   7.653  0.1877 -0.0664 -0.0841
  510MOL    H3641774   7.610   2.971   7.478 -0.5318 -0.1445  0.2166
  510MOL    H3741775   7.609   3.137   7.538  1.0326 -0.4590  2.2656
  510MOL    C3841776   7.755   3.102   7.743 -0.1630  0.3157 -0.0370
  510MOL    O3941777   7.649   3.188   7.775  0.3306 -0.3688 -0.0380
  510MOL    H4041778   0.064   3.145   7.703 -0.8665  1.8604 -0.0252
  510MOL    H4141779   0.014   3.051   0.045  3.2530  1.7930 -0.7519
  510MOL    C4241780   7.544   3.124   0.056 -0.4156 -0.0205  0.2871
  510MOL    O4341781   7.581   3.096   0.187 -0.5730  0.0778 -0.1998
  510MOL    H4441782   7.503   3.030   0.017 -1.2531  0.4149  0.1085
  510MOL    H4541783   7.463   3.195   0.043 -1.6182 -1.3201  0.5683
  510MOL    C4641784   7.590   3.211   0.265 -0.1794  0.3228  0.6134
  510MOL    O4741785   7.472   3.234   0.342  0.3634 -0.2302 -0.5197
  510MOL    H4841786   7.614   3.303   0.211 -0.7933 -0.7377 -1.5275
  510MOL    H4941787   7.670   3.180   0.332  0.5042  0.2809 -0.2211
  510MOL    C5041788   7.501   3.249   0.479  0.1785  0.0781  0.0157
  510MOL    O5141789   7.582   3.362   0.497  0.3423  0.3592 -0.3721
  510MOL    H5241790   7.548   3.155   0.508  2.5597  1.4720  0.8170
  510MOL    H5341791   7.408   3.253   0.536  0.0172 -1.2376 -0.1295
  510MOL    C5441792   7.514   3.474   0.533 -0.1932  0.0876  0.1918
  510MOL    O5541793   7.579   3.593   0.505  0.1073  0.2942  0.2435
  510MOL    H5641794   7.486   3.469   0.639  0.4173 -1.9831  0.2785
  510MOL    H5741795   7.418   3.489   0.484 -0.2224  0.8056  0.4642
  510MOL    C5841796   7.697   3.611   0.582  0.6777 -0.9163  0.5274
  510MOL    O5941797   7.661   3.625   0.718  0.2259 -0.4137 -0.0531
  510MOL    H6041798   7.763   3.694   0.555 -1.5420  0.6152 -0.2899
  510MOL    H6141799   7.757   3.521   0.568 -0.6230 -1.8941  1.1320
  510MOL    C6241800   7.616   3.750   0.754  0.5350  0.5231  0.5913
  510MOL    O6341801   7.496   3.761   0.682  0.3191 -0.8514  0.2413
  510MOL    H6441802   7.684   3.831   0.727 -1.5053  1.1954 -2.9176
  510MOL    H6541803   7.603   3.756   0.862 -1.8314 -2.3035  0.5155
  510MOL    C6641804   7.455   3.894   0.676 -0.0482 -0.2120  0.4072
  510MOL    O6741805   7.444   3.951   0.803  0.2080 -1.2664 -0.4572
  510MOL    H6841806   7.361   3.912   0.623  1.5185 -0.4568 -2.5383
  510MOL    H6941807   7.538   3.933   0.618 -2.3508 -0.4148 -3.1372
  510MOL    C7041808   7.492   4.080   0.803 -0.1789  0.9977  0.0788
  510MOL    O7141809   7.625   4.077   0.823 -0.2582  0.1414 -0.4467
  510MOL    H7241810   7.449   4.148   0.877  2.0076  2.2540  0.2471
  510MOL    H7341811   7.470   4.134   0.711  0.4197 -0.3388 -0.8622
  510MOL    C7441812   7.696   4.174   0.747  0.5241 -0.3339  0.1863
  510MOL    O7541813   7.654   4.302   0.778  0.1754 -0.1130  0.2917
  510MOL    H7641814   7.679   4.161   0.640  1.9493  1.4456 -0.2812
  510MOL    H7741815   0.017   4.154   0.769  0.5447  1.6176  1.9860
  510MOL    C7841816   7.721   4.346   0.896  0.4181  0.4232  0.6773
  510MOL    O7941817   7.694   4.481   0.917 -0.0547  0.2234  0.5103
  510MOL    H8041818   0.045   4.346   0.877  0.6109  0.6214  1.7304
  510MOL    H8141819   7.696   4.284   0.981 -1.0861  0.2999  0.1586
  510MOL    H8241820   7.680   4.495   1.009  2.4391  3.3121  0.4911
  511MOL     C141821   2.608   5.566   6.178 -0.0876 -0.1350 -0.4209
  511MOL     O241822   2.612   5.620   6.048  0.4195 -0.0170 -0.2177
  511MOL     H341823   2.705   5.521   6.200 -0.1859  0.4282  1.2026
  511MOL     H441824   2.571   5.635   6.253  0.5770 -1.2307  0.9339
  511MOL     H541825   2.547   5.477   6.189 -1.0160  0.3892 -1.2581
  511MOL     C641826   2.482   5.657   6.010  0.1488  0.2313  0.3472
  511MOL     O741827   2.485   5.706   5.879 -0.2144 -0.4922 -0.7175
  511MOL     H841828   2.436   5.733   6.074 -1.9779  0.4394 -1.3977
  511MOL     H941829   2.426   5.564   6.016 -1.2233  0.9981 -0.4948
  511MOL    C1041830   2.523   5.609   5.781  0.2412 -0.1655 -0.3679
  511MOL    O1141831   2.430   5.506   5.779  0.1088 -0.3121 -0.0725
  511MOL    H1241832   2.621   5.572   5.811  0.7502  0.8836 -0.7343
  511MOL    H1341833   2.529   5.645   5.679 -2.1223  1.6683  0.0967
  511MOL    C1441834   2.332   5.526   5.683 -0.5503 -0.8764  0.3463
  511MOL    O1541835   2.240   5.627   5.716  0.8999  0.0313 -0.1530
  511MOL    H1641836   2.268   5.438   5.672 -0.5966 -0.8995  0.8199
  511MOL    H1741837   2.368   5.551   5.583 -3.0017 -2.4518 -0.9930
  511MOL    C1841838   2.160   5.590   5.823  0.1662  0.1843 -0.0500
  511MOL    O1941839   2.078   5.475   5.799 -0.0021  0.3960 -0.2078
  511MOL    H2041840   2.093   5.675   5.835 -2.0484 -1.2706 -1.8188
  511MOL    H2141841   2.219   5.574   5.914  1.0894 -2.6250 -1.0945
  511MOL    C2241842   1.969   5.497   5.712 -0.1149  0.0232 -0.1103
  511MOL    O2341843   1.865   5.563   5.783  0.4372  0.4337 -0.5436
  511MOL    H2441844   1.935   5.404   5.668  0.6534 -0.6099  0.6178
  511MOL    H2541845   2.008   5.558   5.631 -2.0992  1.9756  0.3556
  511MOL    C2641846   1.803   5.483   5.883 -0.0755 -0.4180  0.8380
  511MOL    O2741847   1.676   5.537   5.920  0.0086 -0.2816 -0.4597
  511MOL    H2841848   1.861   5.489   5.975 -0.1453  1.4220  0.7841
  511MOL    H2941849   1.786   5.382   5.845 -1.0245 -1.0763  2.9761
  511MOL    C3041850   1.582   5.521   5.820 -0.3646  0.2577 -0.5781
  511MOL    O3141851   1.484   5.613   5.833  0.1202  1.1543  0.7765
  511MOL    H3241852   1.547   5.418   5.808  3.0494 -1.2843  1.8356
  511MOL    H3341853   1.623   5.545   5.722  1.4156 -0.3390  0.0050
  511MOL    C3441854   1.362   5.557   5.880  0.2266 -0.4159  0.6558
  511MOL    O3541855   1.297   5.474   5.789 -0.4615 -0.4730  0.0802
  511MOL    H3641856   1.294   5.635   5.913 -0.2580 -0.4101 -0.3266
  511MOL    H3741857   1.359   5.495   5.969 -3.2514 -0.9727  0.2451
  511MOL    C3841858   1.260   5.550   5.679 -0.0372 -0.0382  0.0616
  511MOL    O3941859   1.136   5.601   5.704 -0.6085 -0.0909 -0.9594
  511MOL    H4041860   1.268   5.485   5.592  2.5968 -1.2885  1.1698
  511MOL    H4141861   1.329   5.628   5.648 -0.3128 -0.6922 -2.3259
  511MOL    C4241862   1.064   5.649   5.598 -0.8177  0.2069  0.3488
  511MOL    O4341863   1.113   5.769   5.545 -0.0556 -0.4998  0.5462
  511MOL    H4441864   0.963   5.666   5.636 -1.4088 -0.1338 -1.0273
  511MOL    H4541865   1.065   5.579   5.514 -0.5280  2.7044 -1.8065
  511MOL    C4641866   1.069   5.882   5.614 -0.2301  0.4806 -0.7390
  511MOL    O4741867   0.932   5.904   5.609  0.0427 -0.2058 -0.6415
  511MOL    H4841868   1.131   5.970   5.600  0.2059  0.1718 -0.7351
  511MOL    H4941869   1.078   5.856   5.720  0.0569 -0.6714 -1.0452
  511MOL    C5041870   0.897   6.006   5.696  0.6308 -0.3503  0.0712
  511MOL    O5141871   0.964   6.127   5.675  0.2212 -0.2494 -0.2367
  511MOL    H5241872   0.903   5.963   5.796 -0.1409  0.8315  0.6384
  511MOL    H5341873   0.791   6.029   5.693  0.1244 -2.4502  1.1967
  511MOL    C5441874   0.951   6.184   5.551 -0.5813 -0.3738  0.1207
  511MOL    O5541875   0.816   6.213   5.523  0.4459 -0.0522  0.4436
  511MOL    H5641876   0.988   6.121   5.469  1.7492  0.0125  0.8552
  511MOL    H5741877   1.019   6.269   5.542 -0.8436 -0.2687 -0.9955
  511MOL    C5841878   0.773   6.320   5.604 -0.3465 -0.3384  0.3160
  511MOL    O5941879   0.822   6.442   5.556  0.3195  0.6539  0.2443
  511MOL    H6041880   0.796   6.311   5.710  0.7844  1.0420  0.2014
  511MOL    H6141881   0.666   6.327   5.586 -0.0663 -2.3929 -2.5199
  511MOL    C6241882   0.771   6.548   5.634 -0.3426 -0.9424 -0.2182
  511MOL    O6341883   0.849   6.579   5.747 -0.2519  0.7966 -0.4463
  511MOL    H6441884   0.664   6.538   5.649 -0.7326  1.1083 -1.4973
  511MOL    H6541885   0.777   6.638   5.574 -2.2018 -0.1155  0.7937
  511MOL    C6641886   0.983   6.607   5.718 -0.8015 -0.3525 -0.0048
  511MOL    O6741887   1.035   6.721   5.782 -0.3018 -0.2752  0.2593
  511MOL    H6841888   1.002   6.615   5.611  0.2090  0.3682  0.2105
  511MOL    H6941889   1.034   6.523   5.765 -1.7332 -0.1705  1.3719
  511MOL    C7041890   1.166   6.716   5.828  0.3279  0.1036  0.8495
  511MOL    O7141891   1.204   6.609   5.906  0.4979 -0.3680  0.6655
  511MOL    H7241892   1.185   6.803   5.891  1.2231  0.2437  0.3921
  511MOL    H7341893   1.228   6.718   5.738 -0.0476  0.1345  0.5870
  511MOL    C7441894   1.156   6.625   6.039 -0.1334  0.3967 -0.0496
  511MOL    O7541895   1.232   6.717   6.111 -0.6862 -0.7691 -0.4141
  511MOL    H7641896   1.169   6.523   6.076 -0.9499  0.8840  1.6271
  511MOL    H7741897   1.048   6.641   6.039 -0.2080 -0.0326 -1.0977
  511MOL    C7841898   1.205   6.706   6.242 -0.0794  0.2453  0.3071
  511MOL    O7941899   1.262   6.595   6.307  0.5168 -0.1546  0.0506
  511MOL    H8041900   1.096   6.698   6.249 -0.3321  0.4794 -2.6032
  511MOL    H8141901   1.232   6.797   6.295 -0.1818  0.2029  0.4316
  511MOL    H8241902   1.346   6.630   6.331  0.3733  1.2105 -1.3224
  512MOL     C141903   5.884   7.585   0.938  0.8485 -1.0413  0.2584
  512MOL     O241904   5.751   7.606   0.972  0.5479 -0.1325 -0.1820
  512MOL     H341905   5.952   7.538   1.009  2.0650 -0.2343 -0.3606
  512MOL     H441906   5.884   7.524   0.848  0.0933 -0.6507 -0.0104
  512MOL     H541907   5.929   7.681   0.914  0.0296 -0.3369  1.4870
  512MOL     C641908   5.706   7.498   1.037  0.4902 -0.1759  0.4367
  512MOL     O741909   5.770   7.489   1.161  0.0547  0.4955  0.0624
  512MOL     H841910   5.733   7.416   0.970 -2.1594 -0.4804 -0.3220
  512MOL     H941911   5.597   7.497   1.046  0.0107 -1.1404 -3.9897
  512MOL    C1041912   5.793   7.362   1.203  0.3531 -0.2219 -0.0734
  512MOL    O1141913   5.677   7.275   1.193  0.2596 -0.6727 -0.2022
  512MOL    H1241914   5.828   7.381   1.304  1.5874  1.3676 -0.7841
  512MOL    H1341915   5.874   7.321   1.142  0.1146 -0.1898 -0.4127
  512MOL    C1441916   5.593   7.292   1.300 -0.0709 -0.9082  0.1946
  512MOL    O1541917   5.633   7.209   1.404 -0.2656  0.3272  0.0251
  512MOL    H1641918   5.493   7.264   1.265 -0.3985 -0.2108  0.5698
  512MOL    H1741919   5.610   7.393   1.335 -1.0255 -1.4101  2.2401
  512MOL    C1841920   5.570   7.234   1.524 -0.3842  0.4595  0.5812
  512MOL    O1941921   5.561   7.366   1.560 -0.0125 -0.2434  0.2948
  512MOL    H2041922   5.608   7.162   1.596  0.5317 -0.5985 -0.9253
  512MOL    H2141923   5.464   7.214   1.508 -0.4192  1.4985 -0.5785
  512MOL    C2241924   5.673   7.420   1.627  0.0714 -0.3912 -0.3045
  512MOL    O2341925   5.767   7.478   1.545  0.1658 -0.3962 -0.5543
  512MOL    H2441926   5.715   7.335   1.681 -0.1493 -0.4308 -0.1947
  512MOL    H2541927   5.628   7.489   1.698  0.5384  0.5373 -0.9093
  512MOL    C2641928   5.734   7.612   1.520  0.2713 -0.4164  0.0209
  512MOL    O2741929   5.735   7.691   1.637 -0.1251 -0.3887 -0.5469
  512MOL    H2841930   5.637   7.622   1.471  0.3376  0.2405  0.0265
  512MOL    H2941931   5.812   7.644   1.451  2.0973  1.2657  2.7866
  512MOL    C3041932   5.859   7.691   1.698  0.0913  0.0227  0.3187
  512MOL    O3141933   5.855   7.745   1.823 -0.4977  0.0012 -0.2180
  512MOL    H3241934   5.937   7.730   1.633  0.3095  0.4220  0.8225
  512MOL    H3341935   5.890   7.588   1.715 -0.0647 -0.3176 -1.3535
  512MOL    C3441936   5.895   0.093   1.819 -0.3824 -0.7809 -0.0850
  512MOL    O3541937   6.028   0.109   1.836 -0.3672 -0.0706  0.1247
  512MOL    H3641938   5.846   0.140   1.904  1.0520  0.4316  0.0707
  512MOL    H3741939   5.861   0.149   1.732 -1.7994 -1.2328  0.1628
  512MOL    C3841940   6.075   0.244   1.828 -0.5603 -0.1596  0.4256
  512MOL    O3941941   6.005   0.334   1.908 -0.0984  0.0647  0.3502
  512MOL    H4041942   6.091   0.277   1.726 -0.3411 -0.7703  0.2639
  512MOL    H4141943   6.179   0.252   1.861 -0.1803 -1.8195 -0.3535
  512MOL    C4241944   6.038   0.325   2.043 -0.3099 -0.3129 -0.0818
  512MOL    O4341945   5.961   0.407   2.121  0.0471  0.3852 -0.0683
  512MOL    H4441946   6.140   0.337   2.080 -0.4689 -1.5035  0.7628
  512MOL    H4541947   6.001   0.228   2.076 -0.5536 -0.5448 -1.0229
  512MOL    C4641948   5.992   0.544   2.115 -0.2305 -0.0679  0.1492
  512MOL    O4741949   6.023   0.598   2.235 -0.1695  0.2382 -0.4414
  512MOL    H4841950   5.895   0.576   2.078  0.2427  1.2798  0.0718
  512MOL    H4941951   6.069   0.575   2.045  0.0705 -0.0334  0.4930
  512MOL    C5041952   6.147   0.567   2.296 -0.1842 -0.2813  0.6076
  512MOL    O5141953   6.153   0.434   2.334  0.1519 -0.3676  0.4795
  512MOL    H5241954   6.168   0.616   2.390  0.1400  0.5057  0.1286
  512MOL    H5341955   6.238   0.582   2.238  0.6794  0.4804  2.1463
  512MOL    C5441956   6.075   0.405   2.441  0.1993 -0.3154  0.4648
  512MOL    O5541957   6.073   0.267   2.465 -0.0113  0.2409  0.2909
  512MOL    H5641958   5.971   0.433   2.420  1.1247  0.4501 -3.4557
  512MOL    H5741959   6.112   0.453   2.532  0.9032 -1.1284  0.6037
  512MOL    C5841960   6.180   0.209   2.535 -0.3887  0.5056  0.3256
  512MOL    O5941961   6.162   0.204   2.672  0.2873  0.0187 -0.3307
  512MOL    H6041962   6.270   0.265   2.510 -0.6742  1.1408  0.7175
  512MOL    H6141963   6.194   0.109   2.494  0.9519  0.6356  0.4423
  512MOL    C6241964   6.059   0.104   2.703 -0.7078  0.4554  0.8690
  512MOL    O6341965   6.103   7.760   2.700 -0.0627  0.4194 -0.3693
  512MOL    H6441966   5.968   0.101   2.643 -0.4961  1.4118  0.4925
  512MOL    H6541967   6.021   0.135   2.801 -2.2996  0.5196  0.2473
  512MOL    C6641968   6.190   7.736   2.805  0.2887  0.8260  0.2195
  512MOL    O6741969   6.119   7.732   2.926  0.0998  0.4105 -0.0094
  512MOL    H6841970   6.254   0.039   2.819 -1.1147  2.1147 -1.1761
  512MOL    H6941971   6.259   7.654   2.783 -1.9458 -1.3660  1.0648
  512MOL    C7041972   6.081   7.601   2.955 -0.2119  0.7049 -0.2329
  512MOL    O7141973   6.181   7.527   3.015 -0.1622 -0.0007 -0.4778
  512MOL    H7241974   6.022   7.557   2.875  1.0382 -1.1065 -0.1811
  512MOL    H7341975   6.014   7.606   3.041  1.3932  0.9866  1.0217
  512MOL    C7441976   6.152   7.392   3.036 -0.2904  0.2072 -0.7858
  512MOL    O7541977   6.063   7.358   3.141 -0.3116  0.0135  0.1143
  512MOL    H7641978   6.247   7.339   3.050  0.0678  0.8325 -0.8068
  512MOL    H7741979   6.117   7.351   2.942 -1.9168 -0.2601  0.0182
  512MOL    C7841980   6.111   7.410   3.264  0.0519  0.3767 -0.1797
  512MOL    O7941981   6.025   7.374   3.371  0.2827  0.0923 -0.1607
  512MOL    H8041982   6.112   7.519   3.265 -0.6556  0.3861 -0.5905
  512MOL    H8141983   6.209   7.364   3.278 -0.0462 -0.2814 -1.5579
  512MOL    H8241984   5.942   7.414   3.351 -1.0465 -1.9957  0.9453
  513MOL     C141985   2.683   5.906   3.986 -0.7919  0.3057 -0.0308
  513MOL     O241986   2.549   5.937   4.031  0.0299 -0.2657 -0.3319
  513MOL     H341987   2.708   5.800   3.982  0.2401  0.5990 -2.1538
  513MOL     H441988   2.714   5.964   3.899  0.8574  0.1438  0.4461
  513MOL     H541989   2.748   5.935   4.069 -1.2218  0.9378  0.0946
  513MOL     C641990   2.460   5.889   3.949 -0.3526  0.1232 -0.5706
  513MOL     O741991   2.470   5.931   3.818  0.0997 -0.2272  0.0409
  513MOL     H841992   2.368   5.932   3.988 -0.2745  1.1897 -1.5473
  513MOL     H941993   2.457   5.781   3.964  1.0117  0.5956  3.6389
  513MOL    C1041994   2.422   6.061   3.798 -0.0375  0.0007 -0.1873
  513MOL    O1141995   2.283   6.063   3.780 -0.3463 -0.4888  0.0755
  513MOL    H1241996   2.468   6.104   3.709 -0.2556 -2.0413 -1.3129
  513MOL    H1341997   2.458   6.120   3.883 -4.2401 -0.2348  1.8836
  513MOL    C1441998   2.240   6.030   3.650 -0.0991  0.1114 -0.2521
  513MOL    O1541999   2.161   6.133   3.600 -0.5069  0.1165  0.3809
  513MOL    H1642000   2.190   5.933   3.651  0.0722 -0.0021 -1.5616
  513MOL    H1742001   2.325   6.014   3.584  1.7086 -0.7993  2.2270
  513MOL    C1842002   2.033   6.136   3.648  0.1816  0.5645 -0.6450
  513MOL    O1942003   1.949   6.035   3.596 -0.3295  0.8752  0.3435
  513MOL    H2042004   1.989   6.234   3.627 -1.3684 -0.3443 -1.7274
  513MOL    H2142005   2.035   6.128   3.757  1.1594 -2.2907 -0.8353
  513MOL    C2242006   1.844   6.002   3.681  0.2780  0.6767  0.3151
  513MOL    O2342007   1.881   5.917   3.786  0.0994 -0.2000 -0.0795
  513MOL    H2442008   1.757   5.976   3.620 -0.7845  3.9426  0.3453
  513MOL    H2542009   1.806   6.096   3.723  2.3167  0.8709  1.7934
  513MOL    C2642010   1.880   5.784   3.758 -0.0141 -1.4165  0.0724
  513MOL    O2742011   1.922   5.712   3.864 -0.1536 -0.1288  0.0525
  513MOL    H2842012   1.937   5.773   3.666 -0.9160 -0.3895 -0.6191
  513MOL    H2942013   1.774   5.768   3.741 -0.2350  0.8749 -0.8237
  513MOL    C3042014   2.061   5.714   3.877 -0.3508 -0.0081  0.2302
  513MOL    O3142015   2.128   5.664   3.768  0.0523  0.5784 -0.0214
  513MOL    H3242016   2.085   5.655   3.965 -1.1177 -0.3844  0.1889
  513MOL    H3342017   2.082   5.820   3.892 -0.9823  0.3287 -1.1965
  513MOL    C3442018   2.135   5.522   3.760 -0.3718 -0.9934 -0.3881
  513MOL    O3542019   2.216   5.465   3.858 -0.1949  0.2128 -0.1614
  513MOL    H3642020   2.176   5.504   3.661 -0.2533  0.5643 -0.6358
  513MOL    H3742021   2.037   5.474   3.762 -0.2784 -1.1416  2.1034
  513MOL    C3842022   2.344   5.492   3.844 -0.5794  0.7939  0.0725
  513MOL    O3942023   2.400   5.399   3.745  0.1174 -0.2950 -0.0668
  513MOL    H4042024   2.402   5.476   3.935 -1.2509 -0.4045  0.2914
  513MOL    H4142025   2.358   5.597   3.818  1.5070  0.0561 -2.0390
  513MOL    C4242026   2.396   5.267   3.773 -0.3393 -0.3271 -0.8667
  513MOL    O4342027   2.479   5.241   3.884 -0.1734  0.8356  0.0251
  513MOL    H4442028   2.423   5.223   3.677  0.3344  1.7928 -1.6763
  513MOL    H4542029   2.299   5.222   3.795 -1.7584  3.1908  0.4825
  513MOL    C4642030   2.562   5.126   3.859  0.2128 -0.2456  0.2258
  513MOL    O4742031   2.476   5.014   3.847 -0.0556 -0.2734 -0.8035
  513MOL    H4842032   2.632   5.111   3.941 -1.6164  2.3488  2.3744
  513MOL    H4942033   2.622   5.137   3.769 -0.4963 -1.0270 -0.3623
  513MOL    C5042034   2.417   4.989   3.971  0.2462 -0.9524  0.4173
  513MOL    O5142035   2.429   4.859   4.007 -0.4745  0.2283 -0.4852
  513MOL    H5242036   2.313   5.017   3.954  1.0470  0.9705 -1.5811
  513MOL    H5342037   2.462   5.056   4.045  2.0362 -0.2822 -1.2208
  513MOL    C5442038   2.351   4.771   3.933  1.3532 -0.0669 -0.1132
  513MOL    O5542039   2.217   4.788   3.969 -0.2840 -0.5594  0.1860
  513MOL    H5642040   2.384   4.667   3.938 -0.0777 -0.5641 -0.8200
  513MOL    H5742041   2.343   4.804   3.829 -0.1883  0.1148  0.0651
  513MOL    C5842042   2.174   4.718   4.077 -0.1452 -1.0572 -0.0958
  513MOL    O5942043   2.142   4.590   4.039  0.2890 -0.0993 -0.0955
  513MOL    H6042044   2.083   4.775   4.096  0.1333 -0.4045 -0.6973
  513MOL    H6142045   2.232   4.726   4.169 -1.1168  0.4960  0.4106
  513MOL    C6242046   2.229   4.495   4.092  0.3227  0.6500 -0.4846
  513MOL    O6342047   2.224   4.491   4.228 -0.6741  0.3103  0.8892
  513MOL    H6442048   2.334   4.503   4.062  0.3310 -0.9670 -0.9327
  513MOL    H6542049   2.191   4.401   4.052  0.8959  0.4809 -0.6309
  513MOL    C6642050   2.101   4.466   4.281  0.5619 -0.8669 -0.1246
  513MOL    O6742051   2.021   4.588   4.304 -0.1805 -0.7227  0.0406
  513MOL    H6842052   2.103   4.414   4.376 -0.6397  0.6966  0.7624
  513MOL    H6942053   2.042   4.404   4.214  0.1921 -1.0081  0.3395
  513MOL    C7042054   2.070   4.670   4.412 -0.3636  0.6124  0.6911
  513MOL    O7142055   1.980   4.752   4.462  0.3130  0.0945 -0.6875
  513MOL    H7242056   2.157   4.730   4.386 -0.1034 -0.9707 -2.3220
  513MOL    H7342057   2.096   4.614   4.501  0.9105 -1.2280 -0.7827
  513MOL    C7442058   1.939   4.855   4.374  0.2257 -0.4045 -0.1088
  513MOL    O7542059   2.044   4.932   4.334  0.0331  0.2405  0.4649
  513MOL    H7642060   1.862   4.914   4.423  1.1484 -0.0008  0.8732
  513MOL    H7742061   1.896   4.808   4.285  0.5359  0.8116 -0.9169
  513MOL    C7842062   2.113   4.997   4.431 -0.0745  0.1333 -0.3399
  513MOL    O7942063   2.060   5.120   4.458  0.4346  0.3220 -0.3218
  513MOL    H8042064   2.213   5.009   4.390 -0.0284  0.7213 -0.0629
  513MOL    H8142065   2.125   4.940   4.523  0.2270 -2.4774 -1.9459
  513MOL    H8242066   2.042   5.157   4.373 -2.0932 -1.7792 -0.7674
  514MOL     C142067   5.888   1.489   1.553  0.0161  0.4447  0.3286
  514MOL     O242068   5.845   1.439   1.673  0.3527  0.4690 -0.3224
  514MOL     H342069   5.835   1.461   1.462  0.3095  0.6033  0.1050
  514MOL     H442070   5.873   1.597   1.556  0.2360  0.4971 -0.4842
  514MOL     H542071   5.993   1.467   1.530  0.5158  2.0038  1.0576
  514MOL     C642072   5.710   1.445   1.679  0.5743  0.4459 -0.5346
  514MOL     O742073   5.654   1.368   1.577 -0.6212  0.1051 -0.1147
  514MOL     H842074   5.675   1.547   1.663  1.0179  0.8310  0.9321
  514MOL     H942075   5.680   1.410   1.778  0.4214 -0.4297 -0.8884
  514MOL    C1042076   5.665   1.230   1.602 -0.7501  0.0637  0.0231
  514MOL    O1142077   5.560   1.190   1.682  0.1510 -0.3009  0.5431
  514MOL    H1242078   5.764   1.196   1.631 -0.2059  0.3580 -1.4162
  514MOL    H1342079   5.647   1.170   1.512  2.8280  1.1253 -1.4751
  514MOL    C1442080   5.438   1.216   1.629  0.7755 -0.0232  0.6894
  514MOL    O1542081   5.404   1.100   1.565  0.0189 -0.3307  0.7131
  514MOL    H1642082   5.426   1.309   1.573  2.9130  0.1651  0.5045
  514MOL    H1742083   5.372   1.234   1.714  1.3936  1.1731  0.9259
  514MOL    C1842084   5.359   1.003   1.651  0.1359  0.0446 -0.6584
  514MOL    O1942085   5.335   0.878   1.591 -0.1035  0.2785  0.0331
  514MOL    H2042086   5.259   1.031   1.685  1.0505  0.8440  1.4922
  514MOL    H2142087   5.423   0.985   1.737  0.2867 -2.3080 -1.2376
  514MOL    C2242088   5.450   0.824   1.532  0.6030 -0.7969 -0.0506
  514MOL    O2342089   5.473   0.874   1.408 -0.1231  0.1737 -0.5123
  514MOL    H2442090   5.430   0.717   1.525 -1.7992 -0.2771 -1.7040
  514MOL    H2542091   5.543   0.840   1.587 -0.6064  0.8032  1.6094
  514MOL    C2642092   5.370   0.849   1.319 -0.3781  1.2423  0.2146
  514MOL    O2742093   5.357   0.712   1.283  0.4506 -0.4250  0.2302
  514MOL    H2842094   5.380   0.897   1.222 -2.1796  2.0899  0.4225
  514MOL    H2942095   5.282   0.899   1.360  0.9005  2.1233  1.9611
  514MOL    C3042096   5.465   0.659   1.205 -0.2162  0.3724 -0.7382
  514MOL    O3142097   5.411   0.574   1.112  0.4213 -0.1591  0.1123
  514MOL    H3242098   5.529   0.602   1.272 -1.7113  1.1498  1.4136
  514MOL    H3342099   5.519   0.739   1.155  0.4860 -1.0577 -2.3221
  514MOL    C3442100   5.346   0.467   1.166  0.1993 -0.2757  0.0066
  514MOL    O3542101   5.440   0.377   1.219  0.6496 -0.4239 -0.2765
  514MOL    H3642102   5.297   0.420   1.081 -0.9886  1.1460 -0.1248
  514MOL    H3742103   5.267   0.499   1.235  0.7915 -1.6405  1.3600
  514MOL    C3842104   5.391   0.249   1.241 -0.0558 -0.5512  0.2388
  514MOL    O3942105   5.342   0.190   1.123  0.1440  0.1910  0.2816
  514MOL    H4042106   5.315   0.247   1.320 -0.8662 -0.6930 -0.5332
  514MOL    H4142107   5.487   0.203   1.264  0.7984  1.1020  0.0680
  514MOL    C4242108   5.438   0.174   1.023 -0.1602 -0.7247 -0.3063
  514MOL    O4342109   5.387   0.118   0.904  0.5996  0.0038 -0.4049
  514MOL    H4442110   5.525   0.119   1.058 -0.7343 -0.3517  1.7584
  514MOL    H4542111   5.475   0.274   0.999 -1.1957 -0.2528  0.0497
  514MOL    C4642112   5.350   7.761   0.922 -0.4435 -0.1269 -0.0899
  514MOL    O4742113   5.216   7.756   0.965 -0.2476  0.2806 -0.3262
  514MOL    H4842114   5.416   7.730   1.003 -0.0576  0.4723 -0.1675
  514MOL    H4942115   5.362   7.700   0.833  2.5198  1.3180 -0.7251
  514MOL    C5042116   5.129   0.025   0.878  0.4678  0.3545  0.4149
  514MOL    O5142117   5.017   0.067   0.955  0.1717 -0.0489  0.8445
  514MOL    H5242118   5.087   7.739   0.807 -2.1705  1.1369  1.1432
  514MOL    H5342119   5.161   0.116   0.828  1.7051  0.3528  1.1821
  514MOL    C5442120   5.039   0.166   1.045 -0.2605 -0.0289 -0.8906
  514MOL    O5542121   4.922   0.205   1.110  0.0182  0.4907 -0.5301
  514MOL    H5642122   5.079   0.256   0.999 -1.9753  1.1362 -0.1397
  514MOL    H5742123   5.119   0.127   1.109 -0.7572 -0.8085 -0.7467
  514MOL    C5842124   4.896   0.116   1.209  0.1771  0.1917 -0.0733
  514MOL    O5942125   4.984   0.143   1.316 -0.3330  0.4321  0.0617
  514MOL    H6042126   4.908   0.014   1.172  3.0075  0.2168  0.6872
  514MOL    H6142127   4.795   0.116   1.251  0.5183 -1.8779  0.7970
  514MOL    C6242128   4.979   0.044   1.414 -0.3692  0.5629 -0.8232
  514MOL    O6342129   5.028   7.706   1.365 -0.5444  0.5729  0.8298
  514MOL    H6442130   4.878   0.033   1.453 -0.6456  1.6005 -1.1977
  514MOL    H6542131   5.049   0.072   1.492  0.6002  1.2961 -1.9463
  514MOL    C6642132   5.160   7.712   1.330 -1.1900  0.5143 -0.7025
  514MOL    O6742133   5.237   7.686   1.445  0.3954  0.3488  0.3497
  514MOL    H6842134   5.194   0.023   1.288  2.2376  0.0533  0.7848
  514MOL    H6942135   5.177   7.640   1.251  0.7014 -0.3095  0.4161
  514MOL    C7042136   5.369   7.670   1.418 -0.2073  0.1531 -0.2779
  514MOL    O7142137   5.440   0.003   1.408 -0.1584 -0.1418 -0.0558
  514MOL    H7242138   5.388   7.627   1.320  0.3559 -3.3043  1.2687
  514MOL    H7342139   5.416   7.602   1.490  0.9979  0.0814 -1.1090
  514MOL    C7442140   5.448   0.070   1.531  0.2452 -0.0222 -0.0550
  514MOL    O7542141   5.466   0.210   1.514  0.5061  0.1419  0.5619
  514MOL    H7642142   5.514   0.028   1.607 -2.1817 -0.6695  1.7273
  514MOL    H7742143   5.349   0.074   1.577 -0.0440 -1.1416 -0.5762
  514MOL    C7842144   5.593   0.255   1.495 -1.1805  0.2286 -0.1785
  514MOL    O7942145   5.593   0.390   1.462  0.1049  0.0301  0.0692
  514MOL    H8042146   5.653   0.207   1.417 -1.7324 -0.9418  0.1100
  514MOL    H8142147   5.634   0.242   1.595 -2.6248  2.0497  0.6882
  514MOL    H8242148   5.547   0.386   1.379 -1.0247  0.1009  0.6789
  515MOL     C142149   4.674   7.507   0.239  0.0638  0.0675  0.4868
  515MOL     O242150   4.595   7.565   0.132  0.3985  0.2756 -0.2819
  515MOL     H342151   4.779   7.523   0.216  0.7191 -0.4389  2.9968
  515MOL     H442152   4.654   7.556   0.334  0.0800  0.9116  0.0617
  515MOL     H542153   4.652   7.400   0.241 -0.6144  0.2186  1.9297
  515MOL     C642154   4.602   7.499   0.013  0.7551 -0.7946  0.3447
  515MOL     O742155   4.547   7.374   0.022 -0.1454  0.5322  0.7724
  515MOL     H842156   4.702   7.502   7.753  0.9186 -2.4737  0.6051
  515MOL     H942157   4.537   7.553   7.727 -0.7145 -1.3042  1.3058
  515MOL    C1042158   4.540   7.318   7.682  0.3123  0.2701  0.1747
  515MOL    O1142159   4.446   7.211   7.690 -0.4114  0.3906 -0.6177
  515MOL    H1242160   4.627   7.267   7.642  0.1082 -1.6346  2.0665
  515MOL    H1342161   4.518   7.393   7.606 -0.2399 -0.2637 -0.2021
  515MOL    C1442162   4.318   7.255   7.709 -0.1721  0.0449 -0.4346
  515MOL    O1542163   4.265   7.312   7.594  0.0316 -0.1546 -1.2067
  515MOL    H1642164   4.313   7.331   0.003  0.1217  0.9240 -1.2738
  515MOL    H1742165   4.250   7.177   7.743  0.1558  0.5873  1.5579
  515MOL    C1842166   4.241   7.224   7.497 -0.3085 -0.0544  0.4817
  515MOL    O1942167   4.124   7.159   7.528  0.6058  0.8920 -0.5657
  515MOL    H2042168   4.327   7.158   7.487  2.2691  2.4683  4.7256
  515MOL    H2142169   4.234   7.281   7.405  0.4189  2.6527  2.0556
  515MOL    C2242170   4.013   7.217   7.461 -0.1788 -0.1152 -0.9439
  515MOL    O2342171   4.024   7.208   7.321  0.1188 -0.0929  0.2460
  515MOL    H2442172   4.001   7.322   7.488 -0.7274 -0.6664  1.1014
  515MOL    H2542173   3.925   7.155   7.478  0.6370 -1.9851 -3.3513
  515MOL    C2642174   4.029   7.069   7.283  0.7850 -0.0204 -0.3128
  515MOL    O2742175   4.079   7.057   7.157  0.3266 -0.3860  0.9905
  515MOL    H2842176   3.933   7.018   7.288  0.4063  0.6798 -0.3213
  515MOL    H2942177   4.089   7.014   7.354  1.0997 -0.1039 -0.6429
  515MOL    C3042178   4.216   7.079   7.146 -0.1081  0.6372 -0.0059
  515MOL    O3142179   4.291   6.974   7.206  0.7070 -0.2538  0.6885
  515MOL    H3242180   4.244   7.169   7.201 -1.2837 -0.0173  1.6872
  515MOL    H3342181   4.240   7.091   7.041  0.3873  1.4336  0.1987
  515MOL    C3442182   4.285   6.851   7.140 -0.6237  0.0249  0.7463
  515MOL    O3542183   4.375   6.862   7.025  0.1603 -0.2853 -0.2338
  515MOL    H3642184   4.181   6.834   7.112 -0.1128 -3.7451  0.8016
  515MOL    H3742185   4.320   6.776   7.211 -0.6739  0.3276  1.0849
  515MOL    C3842186   4.431   6.744   6.987 -0.4463 -0.5807 -0.0390
  515MOL    O3942187   4.522   6.752   6.875 -0.1539 -0.8929 -0.3604
  515MOL    H4042188   4.349   6.675   6.966 -3.3635  2.6347  0.3704
  515MOL    H4142189   4.482   6.708   7.076  2.2928  0.7424 -1.0177
  515MOL    C4242190   4.653   6.792   6.912 -0.5366 -0.2426  0.1970
  515MOL    O4342191   4.649   6.898   7.011 -0.7488 -0.2126  0.9404
  515MOL    H4442192   4.716   6.823   6.829  1.0892  0.3056  1.6022
  515MOL    H4542193   4.700   6.702   6.954  0.9654  0.2370 -0.4253
  515MOL    C4642194   4.628   7.025   6.954 -0.1002  0.1948 -0.0985
  515MOL    O4742195   4.730   7.068   6.870  0.1230 -0.3157  0.2943
  515MOL    H4842196   4.602   7.100   7.029  0.8057  1.2470 -0.8111
  515MOL    H4942197   4.539   7.021   6.891  1.4090 -1.0571 -2.2229
  515MOL    C5042198   4.839   7.123   6.935 -0.4587 -0.2444 -0.2854
  515MOL    O5142199   4.814   7.208   7.040  0.1447 -0.6878 -0.1634
  515MOL    H5242200   4.914   7.145   6.859 -3.2507 -1.0817 -3.3946
  515MOL    H5342201   4.871   7.035   6.990 -3.5382 -1.2346  0.0031
  515MOL    C5442202   4.775   7.332   6.990  0.5172 -0.2228  0.5747
  515MOL    O5542203   4.883   7.400   6.944  0.1697 -0.1621 -0.4519
  515MOL    H5642204   4.710   7.384   7.060 -0.9457 -2.6892  1.1084
  515MOL    H5742205   4.705   7.318   6.909  3.0748 -0.8942 -1.5904
  515MOL    C5842206   4.968   7.443   7.042  0.3104 -0.5952  0.9306
  515MOL    O5942207   4.915   7.561   7.093 -0.4527 -0.4027  0.1148
  515MOL    H6042208   5.068   7.461   7.005  0.4463  0.5143  1.8098
  515MOL    H6142209   4.966   7.373   7.125 -0.6337 -1.3183  0.3121
  515MOL    C6242210   4.918   7.670   6.997 -0.2814 -0.2514  0.4024
  515MOL    O6342211   4.797   7.686   6.928  0.0743  0.6425  0.5851
  515MOL    H6442212   5.000   7.646   6.928  0.1684  1.3259  0.3610
  515MOL    H6542213   4.931   7.760   7.058 -2.2403 -0.2597  0.8688
  515MOL    C6642214   4.704   7.743   7.012 -0.0526 -1.2677  0.0513
  515MOL    O6742215   4.720   0.098   7.018  0.6761 -0.5881  0.2869
  515MOL    H6842216   4.704   7.702   7.113 -4.2760 -1.6960 -0.0339
  515MOL    H6942217   4.611   7.705   6.970  0.3719 -1.7722 -0.4379
  515MOL    C7042218   4.663   0.173   6.912 -0.2955 -0.5592  0.3738
  515MOL    O7142219   4.530   0.141   6.894 -0.0709 -0.8631  0.0644
  515MOL    H7242220   4.724   0.137   6.829 -2.0679 -0.4836 -0.9770
  515MOL    H7342221   4.675   0.277   6.944 -1.5757 -0.6553  1.2136
  515MOL    C7442222   4.445   0.211   6.981  0.4950 -0.0964  0.4813
  515MOL    O7542223   4.431   0.338   6.938 -0.1592 -0.3418  0.4094
  515MOL    H7642224   4.486   0.217   7.081  0.5486 -1.9397  0.5870
  515MOL    H7742225   4.350   0.159   6.986  0.3170  0.2956  1.2633
  515MOL    C7842226   4.357   0.349   6.823  0.3973  0.4805  0.3257
  515MOL    O7942227   4.267   0.454   6.821 -0.4540 -0.0295  0.1221
  515MOL    H8042228   4.296   0.262   6.800  0.9586  0.6282 -1.8710
  515MOL    H8142229   4.427   0.382   6.745 -0.7777  1.7326 -0.2065
  515MOL    H8242230   4.273   0.503   6.901 -0.3783  0.2356 -0.0441
  516MOL     C142231   3.267   5.617   7.395  0.2195 -0.0870  0.3962
  516MOL     O242232   3.297   5.517   7.497  0.1390  0.0515  0.4159
  516MOL     H342233   3.293   5.714   7.439  2.3719 -0.9427  1.0721
  516MOL     H442234   3.339   5.618   7.314 -0.0232  2.3678  0.1587
  516MOL     H542235   3.165   5.630   7.357 -0.5738 -0.6410  2.2760
  516MOL     C642236   3.320   5.399   7.438  0.0661 -0.5159  0.5640
  516MOL     O742237   3.199   5.344   7.389  0.2425  0.2413  0.3188
  516MOL     H842238   3.366   5.330   7.509  0.8806  0.8310  1.3786
  516MOL     H942239   3.393   5.414   7.358 -0.5896  2.2177  0.4465
  516MOL    C1042240   3.207   5.201   7.391  0.3897 -0.0052 -0.1821
  516MOL    O1142241   3.243   5.140   7.515  0.2994  0.0753 -0.1331
  516MOL    H1242242   3.274   5.160   7.314 -1.3703 -0.1292 -1.6729
  516MOL    H1342243   3.109   5.163   7.364  0.3087 -0.0365  0.1618
  516MOL    C1442244   3.144   5.159   7.610 -0.1175  0.2915  0.1167
  516MOL    O1542245   3.022   5.090   7.584  0.3056  0.2392 -0.0458
  516MOL    H1642246   3.122   5.263   7.635  0.2713  0.5840 -0.7522
  516MOL    H1742247   3.192   5.115   7.697  0.4695 -0.0760 -0.3928
  516MOL    C1842248   3.034   4.952   7.599  0.3214 -0.1167 -0.2002
  516MOL    O1942249   3.065   4.925   7.728  1.0652  0.7723 -0.6217
  516MOL    H2042250   3.121   4.918   7.543  2.0902  0.7096  1.9425
  516MOL    H2142251   2.948   4.895   7.567  1.3307 -2.2602  0.8052
  516MOL    C2242252   2.958   4.951   0.027  0.3847  0.5756  0.6216
  516MOL    O2342253   2.895   4.831   0.055  0.2946 -0.2929  0.1491
  516MOL    H2442254   2.883   5.015   7.765 -0.9990 -1.0321  0.5905
  516MOL    H2542255   2.992   4.989   0.123  0.0572 -2.0722  1.8274
  516MOL    C2642256   2.815   4.838   0.178 -0.2984 -0.5477  0.9396
  516MOL    O2742257   2.744   4.714   0.189 -0.0038 -0.0944 -0.5148
  516MOL    H2842258   2.743   4.920   0.166 -0.8392 -1.2810 -1.0127
  516MOL    H2942259   2.867   4.865   0.270  0.1054  1.2592  0.2123
  516MOL    C3042260   2.830   4.607   0.211  1.1646  0.2313  0.6973
  516MOL    O3142261   2.861   4.584   0.346 -0.0977 -0.2856 -0.2598
  516MOL    H3242262   2.927   4.615   0.164  0.5698 -0.3054 -0.6534
  516MOL    H3342263   2.788   4.519   0.163 -0.0090  0.6431  0.9521
  516MOL    C3442264   2.755   4.545   0.427  0.6670 -0.1747 -0.7894
  516MOL    O3542265   2.792   4.541   0.559  0.1614  0.5141 -0.6372
  516MOL    H3642266   2.708   4.450   0.400  0.7872 -0.8036  1.1883
  516MOL    H3742267   2.676   4.619   0.414  1.3067  0.4615 -1.1054
  516MOL    C3842268   2.879   4.439   0.584  0.1131  0.0170 -0.3039
  516MOL    O3942269   2.829   4.316   0.576  0.0140  0.2199 -0.3529
  516MOL    H4042270   2.916   4.475   0.680 -1.3417  1.1482 -0.1498
  516MOL    H4142271   2.969   4.437   0.522 -0.2814 -1.0704 -0.8445
  516MOL    C4242272   2.761   4.287   0.692 -0.1680 -0.3279  0.2968
  516MOL    O4342273   2.845   4.249   0.799  0.0914 -0.0758 -0.1384
  516MOL    H4442274   2.693   4.204   0.676  0.5637 -1.3080  2.1678
  516MOL    H4542275   2.695   4.368   0.723  2.5142  2.8873 -1.9994
  516MOL    C4642276   2.929   4.143   0.766 -0.3248 -0.1660 -0.9865
  516MOL    O4742277   3.001   4.094   0.877 -0.3643  0.6122  0.3811
  516MOL    H4842278   2.986   4.154   0.674 -0.6469 -0.9081 -1.2756
  516MOL    H4942279   2.863   4.061   0.738 -0.0534 -1.1330  1.0989
  516MOL    C5042280   3.112   4.177   0.906  0.6530 -0.4248  0.3874
  516MOL    O5142281   3.212   4.165   0.812  0.3591 -0.3066  0.1149
  516MOL    H5242282   3.155   4.148   1.002  2.0768 -1.1612 -0.4503
  516MOL    H5342283   3.093   4.284   0.900  3.1157  0.0864  0.8124
  516MOL    C5442284   3.267   4.040   0.795 -0.0536 -0.3554  0.4146
  516MOL    O5542285   3.311   3.986   0.908 -0.0587  0.2208  0.0384
  516MOL    H5642286   3.348   4.031   0.723  0.9983 -0.9419  1.6505
  516MOL    H5742287   3.187   3.974   0.761  0.0080  0.4752 -1.4062
  516MOL    C5842288   3.413   4.058   0.966  0.0389 -0.4597  0.1308
  516MOL    O5942289   3.463   3.998   1.084  0.1173 -0.4821  0.3020
  516MOL    H6042290   3.403   4.167   0.967  1.7945 -0.2786 -0.5607
  516MOL    H6142291   3.498   4.053   0.898 -0.0079 -2.0770  0.1754
  516MOL    C6242292   3.366   3.995   1.183 -0.2920 -0.2280 -0.8693
  516MOL    O6342293   3.349   4.122   1.231  0.0614  0.4339 -0.7696
  516MOL    H6442294   3.411   3.938   1.265 -1.7821  0.9696  0.8185
  516MOL    H6542295   3.273   3.946   1.155  0.9709 -1.4408 -2.9958
  516MOL    C6642296   3.253   4.136   1.326 -1.2568  0.1273 -0.3684
  516MOL    O6742297   3.126   4.113   1.272 -0.1032 -0.9359  0.2540
  516MOL    H6842298   3.251   4.232   1.378  1.3691  0.5365 -0.9741
  516MOL    H6942299   3.257   4.057   1.401 -1.5616 -0.0841 -0.5721
  516MOL    C7042300   3.025   4.149   1.364 -0.3663 -0.1756  0.2760
  516MOL    O7142301   3.022   4.288   1.381 -0.6017 -0.4521  0.0377
  516MOL    H7242302   3.048   4.108   1.462 -0.5194 -0.0604  0.3619
  516MOL    H7342303   2.929   4.117   1.322 -0.2487  0.6208 -0.6223
  516MOL    C7442304   2.978   4.355   1.265  0.0699 -0.3612  0.0916
  516MOL    O7542305   2.844   4.365   1.264  0.8222  0.1520  0.1000
  516MOL    H7642306   3.015   4.303   1.176  1.9305 -1.1542  1.2967
  516MOL    H7742307   3.027   4.451   1.248 -1.0444  0.0680 -0.7809
  516MOL    C7842308   2.790   4.462   1.176 -0.2231 -0.1834 -0.2110
  516MOL    O7942309   2.652   4.458   1.170 -0.5887 -0.0839  0.2891
  516MOL    H8042310   2.827   4.442   1.076 -0.7571  1.6853 -0.7911
  516MOL    H8142311   2.817   4.561   1.210  0.4178 -0.7537  0.9678
  516MOL    H8242312   2.629   4.409   1.093  1.4454  1.8485 -1.6437
  517MOL     C142313   6.369   5.349   3.385  0.4647 -0.5206  0.0569
  517MOL     O242314   6.421   5.222   3.417 -0.1006 -0.0136 -0.2182
  517MOL     H342315   6.435   5.436   3.382 -1.0962  0.7890  2.1689
  517MOL     H442316   6.320   5.353   3.288  0.9079  0.5062 -0.1318
  517MOL     H542317   6.294   5.381   3.457 -0.8014  1.1576 -1.9507
  517MOL     C642318   6.510   5.225   3.524  0.0564  0.3628 -0.0624
  517MOL     O742319   6.452   5.275   3.638  0.3673  0.6611 -0.2909
  517MOL     H842320   6.588   5.298   3.506  0.3995  0.1193  0.4227
  517MOL     H942321   6.555   5.126   3.530 -0.2150  0.0662 -2.4269
  517MOL    C1042322   6.518   5.246   3.754  0.3005 -0.3872 -0.3788
  517MOL    O1142323   6.612   5.344   3.775 -0.0397  0.2961  0.2407
  517MOL    H1242324   6.566   5.148   3.757  0.5148 -0.3265 -1.4621
  517MOL    H1342325   6.440   5.256   3.829  2.0413  2.7861  1.0862
  517MOL    C1442326   6.549   5.466   3.793  0.5013 -0.4579 -0.0660
  517MOL    O1542327   6.463   5.483   3.903  0.2550 -0.2075  0.9897
  517MOL    H1642328   6.511   5.504   3.698 -0.0518  1.1462  0.7652
  517MOL    H1742329   6.630   5.536   3.812  1.1929 -0.9292 -1.2733
  517MOL    C1842330   6.530   5.463   4.021  0.1867 -0.5036 -0.3615
  517MOL    O1942331   6.582   5.584   4.062 -0.2945  0.6428  0.6781
  517MOL    H2042332   6.614   5.395   4.009  1.0067  0.6567 -1.3528
  517MOL    H2142333   6.468   5.421   4.101  0.5012 -0.9919 -0.3736
  517MOL    C2242334   6.669   5.572   4.177 -0.2830  0.1458 -0.0421
  517MOL    O2342335   6.600   5.528   4.291  0.1437  0.4599 -0.3808
  517MOL    H2442336   6.714   5.670   4.192  2.3172 -1.1624  0.9116
  517MOL    H2542337   6.750   5.502   4.161 -1.1044 -1.7106  3.6148
  517MOL    C2642338   6.485   5.597   4.317 -0.8094  0.6000 -0.2738
  517MOL    O2742339   6.521   5.727   4.360 -0.1440  0.6254 -0.7645
  517MOL    H2842340   6.431   5.544   4.396 -1.7000  2.0783  0.1243
  517MOL    H2942341   6.417   5.588   4.233 -2.5494  1.3877  1.0202
  517MOL    C3042342   6.544   5.737   4.495  0.5309  0.4898 -0.4404
  517MOL    O3142343   6.550   5.866   4.539  0.5325 -0.3882 -0.6026
  517MOL    H3242344   6.632   5.681   4.527  0.8335  0.2455 -1.6604
  517MOL    H3342345   6.466   5.685   4.549  0.5966 -0.0231 -0.8314
  517MOL    C3442346   6.427   5.935   4.541  0.7018  0.2929 -0.4418
  517MOL    O3542347   6.329   5.883   4.624 -0.1617 -0.3403 -0.3184
  517MOL    H3642348   6.386   5.935   4.440  0.2052  0.0789 -0.2427
  517MOL    H3742349   6.441   6.041   4.561  0.9079  0.7878 -3.0494
  517MOL    C3842350   6.356   5.900   4.760  0.1314  0.2922 -0.3897
  517MOL    O3942351   6.244   5.853   4.831 -0.5953  0.5274  0.4784
  517MOL    H4042352   6.371   6.005   4.786 -0.5077  0.4593 -0.6688
  517MOL    H4142353   6.451   5.851   4.779 -0.4957  0.7236  4.3320
  517MOL    C4242354   6.274   5.803   4.958 -0.1277 -0.7554  0.0182
  517MOL    O4342355   6.342   5.895   5.040  0.4758 -0.5008 -0.0417
  517MOL    H4442356   6.340   5.716   4.943  3.1421  1.7029 -0.4562
  517MOL    H4542357   6.180   5.776   5.005 -0.9312  3.5415  1.0539
  517MOL    C4642358   6.257   5.987   5.104 -0.2241 -1.0150  0.4114
  517MOL    O4742359   6.179   5.926   5.204 -0.2508  0.0212  0.2406
  517MOL    H4842360   6.194   6.029   5.025 -1.9553 -3.6444  0.3096
  517MOL    H4942361   6.314   6.069   5.146 -2.3120  1.0498 -0.6331
  517MOL    C5042362   6.249   5.878   5.312 -0.3456 -0.0733  0.3750
  517MOL    O5142363   6.291   5.980   5.394 -0.6705  0.1746 -0.6713
  517MOL    H5242364   6.333   5.813   5.286  0.6432  0.9624  0.9434
  517MOL    H5342365   6.183   5.808   5.363 -1.5081  1.3728  0.8713
  517MOL    C5442366   6.187   6.036   5.466  0.4697  0.0438 -0.5973
  517MOL    O5542367   6.145   5.948   5.572 -0.2447  0.0493 -0.2383
  517MOL    H5642368   6.105   6.047   5.394 -1.5253 -1.1387  1.4102
  517MOL    H5742369   6.214   6.135   5.501  0.4824  0.2215 -1.1020
  517MOL    C5842370   6.218   5.967   5.692  0.2667  0.5171 -0.0938
  517MOL    O5942371   6.162   6.056   5.785  0.2384 -0.6584  0.5892
  517MOL    H6042372   6.318   6.011   5.686  0.7026 -0.4203  0.1321
  517MOL    H6142373   6.230   5.866   5.733 -0.1558  0.0304 -1.1557
  517MOL    C6242374   6.046   6.002   5.844 -1.1757  0.7939  0.1113
  517MOL    O6342375   6.075   5.951   5.972 -0.3203 -0.0840  0.6040
  517MOL    H6442376   6.000   5.932   5.774 -0.1661  0.2778 -0.0359
  517MOL    H6542377   5.977   6.087   5.838 -2.2145 -0.0105  0.5142
  517MOL    C6642378   5.966   5.890   6.035  0.0082 -0.4098  0.3132
  517MOL    O6742379   5.925   5.779   5.970 -0.4030 -0.0203  0.6365
  517MOL    H6842380   5.896   5.974   6.045 -0.7937 -1.1350  0.8529
  517MOL    H6942381   6.004   5.867   6.134 -0.3848  1.7135  0.9994
  517MOL    C7042382   5.804   5.728   6.014  0.0663  0.5494  0.0666
  517MOL    O7142383   5.697   5.808   5.980 -0.5792  0.4293 -0.6994
  517MOL    H7242384   5.818   5.725   6.122 -2.3613 -1.9400  0.3858
  517MOL    H7342385   5.781   5.625   5.987 -2.6332  0.2677  3.1721
  517MOL    C7442386   5.660   5.813   5.843 -0.6089  0.7648 -0.6795
  517MOL    O7542387   5.593   5.700   5.801 -0.1802 -0.1196  1.0670
  517MOL    H7642388   5.755   5.824   5.790  1.4329 -1.9067  2.1983
  517MOL    H7742389   5.600   5.901   5.821 -1.0770  1.1673  2.0896
  517MOL    C7842390   5.472   5.675   5.856  0.0015  0.3896 -0.9684
  517MOL    O7942391   5.381   5.764   5.811 -0.0667 -0.3058  0.3474
  517MOL    H8042392   5.481   5.684   5.964 -0.8431  0.3573 -0.8929
  517MOL    H8142393   5.444   5.574   5.823  1.1868 -0.0314 -0.7130
  517MOL    H8242394   5.296   5.745   5.848  0.4268 -1.7105  0.7740
  518MOL     C142395   4.486   4.235   0.326  0.2452  0.4735 -0.6749
  518MOL     O242396   4.395   4.320   0.401 -0.1668 -0.7324  0.2673
  518MOL     H342397   4.445   4.190   0.235  2.0768 -2.2500 -0.2292
  518MOL     H442398   4.581   4.282   0.301  0.1341  1.2250  0.3056
  518MOL     H542399   4.515   4.152   0.390 -0.2126 -0.6461 -1.8926
  518MOL     C642400   4.260   4.283   0.423  0.4279  0.2653 -0.1466
  518MOL     O742401   4.260   4.189   0.528 -0.2893 -0.2411 -0.6489
  518MOL     H842402   4.207   4.251   0.333  2.0825 -0.2713 -0.9378
  518MOL     H942403   4.209   4.372   0.460 -1.7393 -0.9415 -0.1151
  518MOL    C1042404   4.134   4.172   0.576  0.6892 -0.8013  0.4176
  518MOL    O1142405   4.058   4.284   0.613 -0.9218 -0.4998  0.0905
  518MOL    H1242406   4.129   4.095   0.653  1.0527 -0.0444  1.2145
  518MOL    H1342407   4.073   4.130   0.496  0.0653 -1.5196  1.2615
  518MOL    C1442408   4.076   4.319   0.744 -0.2025  0.1951 -0.1867
  518MOL    O1542409   4.055   4.220   0.839  0.1648  0.3896  0.3389
  518MOL    H1642410   4.019   4.406   0.778  0.1848 -0.2247  1.6086
  518MOL    H1742411   4.182   4.338   0.761 -0.1945 -1.6577  2.0885
  518MOL    C1842412   3.921   4.172   0.853 -0.1711 -0.4622  0.7067
  518MOL    O1942413   3.847   4.278   0.906 -0.0702 -0.3692 -0.3814
  518MOL    H2042414   3.923   4.087   0.921  1.2360 -1.8376 -0.9943
  518MOL    H2142415   3.874   4.124   0.767  1.4906  0.4905 -0.7816
  518MOL    C2242416   3.719   4.239   0.932  0.3318  0.5216 -0.2030
  518MOL    O2342417   3.637   4.252   0.817 -0.0771  0.1930  0.0575
  518MOL    H2442418   3.673   4.314   0.997  1.1024 -0.5500  1.6184
  518MOL    H2542419   3.723   4.137   0.971  1.2800 -0.0180 -1.6929
  518MOL    C2642420   3.630   4.380   0.768  0.0174 -0.0477 -0.2370
  518MOL    O2742421   3.543   4.390   0.658  0.6725 -0.0840  0.4059
  518MOL    H2842422   3.729   4.398   0.725  0.0613 -1.7562 -0.8959
  518MOL    H2942423   3.610   4.461   0.836 -2.1737 -0.5801 -0.2185
  518MOL    C3042424   3.409   4.390   0.702 -0.3320 -0.7568  0.0608
  518MOL    O3142425   3.367   4.518   0.735 -0.2819  0.1301  0.5073
  518MOL    H3242426   3.389   4.327   0.789  0.6542 -0.6017  0.4064
  518MOL    H3342427   3.337   4.357   0.627 -2.6596 -0.0851  1.9380
  518MOL    C3442428   3.349   4.605   0.626  0.6438 -0.3008 -0.2924
  518MOL    O3542429   3.209   4.612   0.606  0.5711 -0.0353  0.1527
  518MOL    H3642430   3.403   4.566   0.539  4.5431  0.8428  1.4693
  518MOL    H3742431   3.393   4.701   0.653  1.2459 -0.6372 -0.0504
  518MOL    C3842432   3.175   4.725   0.522  0.2256  0.2195 -0.1434
  518MOL    O3942433   3.248   4.722   0.404  0.1536  0.2357 -0.0497
  518MOL    H4042434   3.190   4.821   0.571  0.9106 -0.6784  1.4489
  518MOL    H4142435   3.067   4.728   0.510  0.0988 -1.2863  0.5089
  518MOL    C4242436   3.179   4.790   0.297 -0.5296 -0.5532 -0.9488
  518MOL    O4342437   3.136   4.923   0.339  0.6961  0.1140 -0.5050
  518MOL    H4442438   3.087   4.736   0.276 -0.1970 -1.4096 -0.2484
  518MOL    H4542439   3.236   4.797   0.204  0.7821  0.3596 -0.1018
  518MOL    C4642440   3.243   5.014   0.342 -0.1011  0.1773 -0.5904
  518MOL    O4742441   3.279   5.049   0.211  0.1349 -0.7321  0.3352
  518MOL    H4842442   3.322   4.966   0.398 -0.1231 -1.0278 -1.5717
  518MOL    H4942443   3.212   5.106   0.391  0.1577  1.2233 -2.3292
  518MOL    C5042444   3.391   5.135   0.200  0.0792  0.1041  0.2723
  518MOL    O5142445   3.499   5.098   0.276  0.9160  0.6052 -0.7678
  518MOL    H5242446   3.356   5.227   0.248 -1.5608 -0.3358 -0.0392
  518MOL    H5342447   3.425   5.144   0.097 -1.6875 -3.2411 -0.6890
  518MOL    C5442448   3.551   4.976   0.232  0.1656  0.8780  0.0631
  518MOL    O5542449   3.592   4.982   0.102 -0.0436  0.1011 -0.3815
  518MOL    H5642450   3.477   4.896   0.240 -0.9095  1.6007 -2.3880
  518MOL    H5742451   3.640   4.957   0.292  0.6034 -0.6380 -1.0305
  518MOL    C5842452   3.625   4.857   0.040 -0.1974 -0.2891  0.1040
  518MOL    O5942453   3.509   4.794   0.002 -0.1165  0.3170 -0.8444
  518MOL    H6042454   3.685   4.795   0.108  3.3712  0.6453 -2.0780
  518MOL    H6142455   3.690   4.879   7.739 -1.4167  0.6903 -0.5885
  518MOL    C6242456   3.435   4.872   7.692  0.2682  0.3270  0.3407
  518MOL    O6342457   3.506   4.873   7.574 -0.1613 -0.0026 -0.5911
  518MOL    H6442458   3.422   4.978   7.716 -1.4218  0.7626 -2.3841
  518MOL    H6542459   3.332   4.840   7.687  0.5535 -0.5109 -0.2719
  518MOL    C6642460   3.470   4.777   7.488 -0.6490 -0.1932 -0.1592
  518MOL    O6742461   3.541   4.781   7.368 -0.3422 -0.2672  0.3035
  518MOL    H6842462   3.364   4.791   7.468 -1.4627 -1.1986  3.1493
  518MOL    H6942463   3.480   4.680   7.535 -1.6550 -0.4611 -0.4863
  518MOL    C7042464   3.534   4.665   7.290 -0.2809 -0.5532  0.0573
  518MOL    O7142465   3.573   4.690   7.157  0.3499 -0.1127  0.0578
  518MOL    H7242466   3.429   4.638   7.283 -0.7240  0.8506  1.0979
  518MOL    H7342467   3.584   4.578   7.332  1.9104  1.3151  1.4277
  518MOL    C7442468   3.712   4.685   7.152  0.4948  0.3964 -0.3691
  518MOL    O7542469   3.742   4.739   7.022 -0.3013 -0.4622  0.2631
  518MOL    H7642470   3.750   4.583   7.161 -0.7737 -0.0304  0.3206
  518MOL    H7742471   3.752   4.750   7.229  0.9508 -0.7597  0.3884
  518MOL    C7842472   3.739   4.653   6.914  0.5794 -0.1373  0.4762
  518MOL    O7942473   3.846   4.564   6.925  0.3478  0.1587 -0.2218
  518MOL    H8042474   3.736   4.719   6.827 -1.4003 -1.0245 -0.1619
  518MOL    H8142475   3.645   4.599   6.916  0.4112  0.1736  1.3424
  518MOL    H8242476   3.819   4.487   6.878  1.6494 -1.9017  2.2903
  519MOL     C142477   5.405   5.942   5.222 -0.0507 -0.9560 -0.1103
  519MOL     O242478   5.359   5.814   5.262 -0.8667  0.2299  0.3412
  519MOL     H342479   5.359   5.985   5.133  0.4716  0.1634  0.1469
  519MOL     H442480   5.409   6.009   5.308  1.4062 -1.8715  0.5491
  519MOL     H542481   5.509   5.949   5.189 -0.7987  0.7169 -2.2547
  519MOL     C642482   5.226   5.804   5.293  0.2575 -0.3059  0.9247
  519MOL     O742483   5.199   5.874   5.404  0.0882 -0.1326 -0.0133
  519MOL     H842484   5.201   5.699   5.306  0.7780 -0.4082  1.1061
  519MOL     H942485   5.171   5.851   5.211 -0.2125 -0.6372  1.0438
  519MOL    C1042486   5.236   5.802   5.516 -0.3576 -0.1489 -0.2986
  519MOL    O1142487   5.143   5.702   5.560  0.5569  0.7565 -0.0363
  519MOL    H1242488   5.261   5.881   5.587  1.6577  0.0064 -1.1599
  519MOL    H1342489   5.330   5.753   5.493 -0.1896  1.0440 -2.1996
  519MOL    C1442490   5.021   5.757   5.604  0.0122  0.8672 -0.0055
  519MOL    O1542491   5.036   5.886   5.662 -0.4438  0.8660  0.0640
  519MOL    H1642492   4.984   5.690   5.682 -2.9405  0.5723 -1.5795
  519MOL    H1742493   4.948   5.755   5.523 -0.3996 -1.6616  0.4021
  519MOL    C1842494   4.913   5.933   5.709 -0.1606  0.4889 -0.0222
  519MOL    O1942495   4.821   5.950   5.603 -0.2617  0.1797 -0.5572
  519MOL    H2042496   4.945   6.030   5.747 -0.6479  0.0278  1.5960
  519MOL    H2142497   4.869   5.871   5.786 -3.2150  0.9522 -1.3330
  519MOL    C2242498   4.871   6.028   5.498 -0.6654  0.5027  0.3741
  519MOL    O2342499   4.770   6.053   5.404 -0.5910  0.3527 -0.3484
  519MOL    H2442500   4.959   5.989   5.447 -0.5715  0.0592  0.8764
  519MOL    H2542501   4.912   6.117   5.545  0.3421  0.8867 -1.1773
  519MOL    C2642502   4.739   5.938   5.324  0.2186  0.2546  0.2129
  519MOL    O2742503   4.666   5.972   5.214 -0.2213 -0.0417  0.3923
  519MOL    H2842504   4.703   5.853   5.383  0.1272  1.2733  1.6465
  519MOL    H2942505   4.833   5.903   5.282  0.6179  0.3335  1.0477
  519MOL    C3042506   4.530   5.971   5.235 -0.1617  0.0270  0.0087
  519MOL    O3142507   4.481   5.846   5.251  0.1768 -0.2888 -0.1614
  519MOL    H3242508   4.475   6.022   5.156 -3.2429  2.0399  3.3238
  519MOL    H3342509   4.516   6.029   5.325  1.2904 -1.0993  0.9741
  519MOL    C3442510   4.489   5.766   5.138  0.3509 -0.4162  0.7439
  519MOL    O3542511   4.398   5.817   5.050  0.1875 -0.0398  0.2782
  519MOL    H3642512   4.466   5.666   5.175  1.5450 -0.8933  0.2096
  519MOL    H3742513   4.580   5.758   5.080 -0.8106 -2.1117 -0.9210
  519MOL    C3842514   4.334   5.715   4.977  0.6444 -0.2340  0.5192
  519MOL    O3942515   4.425   5.635   4.908  0.6545  0.0371  0.1441
  519MOL    H4042516   4.266   5.772   4.915  1.4748  1.5352  1.1715
  519MOL    H4142517   4.266   5.660   5.042 -0.8824  2.2637  1.0937
  519MOL    C4242518   4.463   5.692   4.790 -0.1638 -0.0962 -0.0115
  519MOL    O4342519   4.563   5.614   4.736 -0.1705  0.3020  0.1502
  519MOL    H4442520   4.498   5.792   4.817 -0.4080 -0.2260  0.8179
  519MOL    H4542521   4.377   5.719   4.730  1.4653  1.1367 -1.8396
  519MOL    C4642522   4.680   5.628   4.797 -0.2421  0.1884 -0.1319
  519MOL    O4742523   4.734   5.759   4.799  0.2566  0.0631 -0.4647
  519MOL    H4842524   4.751   5.556   4.755 -0.8433 -0.6682  0.3098
  519MOL    H4942525   4.672   5.594   4.900 -1.0385 -0.9723 -0.5743
  519MOL    C5042526   4.778   5.789   4.667 -0.6535 -0.0533 -0.0830
  519MOL    O5142527   4.880   5.708   4.630  0.3416  0.1737  0.2894
  519MOL    H5242528   4.798   5.896   4.676 -2.2926  0.3740 -1.2439
  519MOL    H5342529   4.698   5.779   4.592  0.2173 -2.1811 -0.7720
  519MOL    C5442530   4.998   5.754   4.689 -0.8501  0.0531  0.0228
  519MOL    O5542531   5.037   5.866   4.616 -0.8013  0.3107  0.4402
  519MOL    H5642532   5.076   5.678   4.682 -0.5950  0.3746 -0.7677
  519MOL    H5742533   4.974   5.794   4.787  0.6068 -1.7137  1.1314
  519MOL    C5842534   5.098   5.834   4.492  0.3726  0.2901 -0.1141
  519MOL    O5942535   5.151   5.946   4.443  0.0375 -0.3337  0.3238
  519MOL    H6042536   5.029   5.779   4.428  2.3830  0.1489 -2.2351
  519MOL    H6142537   5.175   5.761   4.518 -0.5528 -1.2362 -1.5620
  519MOL    C6242538   5.053   6.024   4.382  0.3598 -0.1435  0.0337
  519MOL    O6342539   5.019   5.975   4.254  0.1532 -0.4094 -0.0133
  519MOL    H6442540   5.102   6.122   4.378  1.3690 -0.6684 -0.6687
  519MOL    H6542541   4.965   6.038   4.444  0.1992 -0.2738 -0.1640
  519MOL    C6642542   5.090   6.044   4.152  0.2408 -0.6473 -0.0481
  519MOL    O6742543   5.040   6.163   4.107 -0.1379 -0.2602  0.5304
  519MOL    H6842544   5.100   5.975   4.069  1.2279  0.5670 -0.9612
  519MOL    H6942545   5.190   6.071   4.187  0.2348  0.6183 -0.9889
  519MOL    C7042546   4.945   6.154   4.005 -0.6301 -0.0628  1.0499
  519MOL    O7142547   4.991   6.079   3.889  0.8585 -0.0592 -0.1452
  519MOL    H7242548   4.916   6.256   3.983  1.6469 -0.2044 -3.1822
  519MOL    H7342549   4.862   6.105   4.055 -0.2348 -1.4267  0.4043
  519MOL    C7442550   4.883   6.045   3.801  0.0350 -0.3576 -0.9058
  519MOL    O7542551   4.794   6.152   3.776  0.0288 -0.1736 -0.3317
  519MOL    H7642552   4.831   5.957   3.839 -0.3229  0.3178  0.2066
  519MOL    H7742553   4.933   6.026   3.706  0.1857 -2.8348 -0.3493
  519MOL    C7842554   4.849   6.251   3.697 -0.2673  0.8679  0.4548
  519MOL    O7942555   4.756   6.360   3.681  0.0550 -0.2252 -0.4645
  519MOL    H8042556   4.861   6.204   3.600 -2.1259 -0.3731  0.8200
  519MOL    H8142557   4.945   6.284   3.739 -0.4119 -1.0464  2.3924
  519MOL    H8242558   4.744   6.400   3.766  1.5920  0.8120 -0.7052
  520MOL     C142559   7.643   3.375   2.368 -0.0980 -0.2457 -0.1125
  520MOL     O242560   7.530   3.301   2.340  0.1509 -0.1166 -0.2547
  520MOL     H342561   7.640   3.466   2.308 -0.4849 -0.0535  0.1988
  520MOL     H442562   7.647   3.405   2.473  0.0097 -0.1416 -0.1465
  520MOL     H542563   7.730   3.314   2.340 -1.2982 -1.3570 -1.5350
  520MOL     C642564   7.494   3.292   2.204  0.3641 -0.1006  0.3385
  520MOL     O742565   7.440   3.413   2.156 -0.0868  0.2275  0.0576
  520MOL     H842566   7.419   3.214   2.190  0.2106  0.2836 -0.9643
  520MOL     H942567   7.578   3.264   2.140 -0.8342  0.8741 -1.7044
  520MOL    C1042568   7.304   3.444   2.186 -0.1311  1.1529 -0.0694
  520MOL    O1142569   7.213   3.384   2.095 -0.4128  0.2733  0.3221
  520MOL    H1242570   7.292   3.553   2.182 -0.6740  1.0235 -3.6614
  520MOL    H1342571   7.271   3.409   2.284  1.2996  1.9761  0.7241
  520MOL    C1442572   7.211   3.443   1.968 -0.1230 -0.1751 -0.7239
  520MOL    O1542573   7.168   3.576   1.965 -0.4027  0.1368  0.3536
  520MOL    H1642574   7.144   3.394   1.896  0.9364 -0.1455 -1.7483
  520MOL    H1742575   7.315   3.429   1.938  0.0127 -0.9148  0.0864
  520MOL    C1842576   7.030   3.587   1.978  0.0147  0.8497  0.7300
  520MOL    O1942577   6.975   3.589   1.856 -0.0509 -0.3160  0.1055
  520MOL    H2042578   6.987   3.674   2.027 -1.2325  0.4234  0.4321
  520MOL    H2142579   6.983   3.513   2.042 -0.3892 -0.0091 -0.5403
  520MOL    C2242580   7.001   3.703   1.780 -0.9576 -0.2169 -0.4172
  520MOL    O2342581   6.918   3.814   1.803 -0.1915 -0.4856 -0.0880
  520MOL    H2442582   6.996   3.665   1.678 -0.6287  0.8339 -0.8213
  520MOL    H2542583   7.105   3.735   1.792 -0.8803 -0.3943 -0.6093
  520MOL    C2642584   6.977   3.927   1.754 -0.1096 -0.6138  0.2443
  520MOL    O2742585   6.979   3.933   1.613  0.3656 -0.0417  0.1604
  520MOL    H2842586   7.080   3.938   1.790 -0.1519  0.0180  0.1843
  520MOL    H2942587   6.923   4.018   1.780 -0.6217 -0.3324 -1.6902
  520MOL    C3042588   6.856   3.958   1.555  0.2856  0.5502  0.6357
  520MOL    O3142589   6.823   4.093   1.552  0.3278 -0.4605 -0.1181
  520MOL    H3242590   6.780   3.909   1.615 -1.4075  2.6376  0.2313
  520MOL    H3342591   6.853   3.912   1.456 -1.3546  1.1499  0.3948
  520MOL    C3442592   6.905   4.169   1.471 -0.3278 -0.7983  0.1744
  520MOL    O3542593   6.874   4.170   1.342  0.1324  0.3269 -0.2508
  520MOL    H3642594   7.014   4.172   1.480 -0.1590 -0.9801 -1.6379
  520MOL    H3742595   6.898   4.270   1.511  2.5522 -0.9893  1.3239
  520MOL    C3842596   6.762   4.247   1.309  0.3863 -0.5215 -0.1173
  520MOL    O3942597   6.719   4.233   1.178 -0.1299 -0.0580 -0.0423
  520MOL    H4042598   6.791   4.351   1.329 -3.3419  0.7302 -0.8236
  520MOL    H4142599   6.684   4.219   1.379 -0.8459 -1.5723 -1.9037
  520MOL    C4242600   6.644   4.115   1.160  0.1523  0.0477  0.0937
  520MOL    O4342601   6.535   4.106   1.250 -0.4051 -0.2093 -0.6875
  520MOL    H4442602   6.704   4.026   1.175 -0.0099 -0.0114  0.4145
  520MOL    H4542603   6.614   4.108   1.056  1.6773 -2.0599 -0.2391
  520MOL    C4642604   6.464   3.987   1.245 -0.2968  0.3211  0.4097
  520MOL    O4742605   6.529   3.882   1.312  0.6031 -0.2459 -0.1212
  520MOL    H4842606   6.462   3.964   1.138  4.0099  2.4010 -0.2334
  520MOL    H4942607   6.361   4.003   1.276 -0.5462 -0.0254 -0.2219
  520MOL    C5042608   6.485   3.870   1.439 -0.3595 -0.6874 -0.2195
  520MOL    O5142609   6.364   3.804   1.438  0.2419  0.4682 -0.3962
  520MOL    H5242610   6.482   3.973   1.474  1.7494 -0.3010 -1.0770
  520MOL    H5342611   6.569   3.824   1.492  0.0436 -0.6315 -0.8010
  520MOL    C5442612   6.371   3.669   1.410 -0.3648 -0.0675 -0.4163
  520MOL    O5542613   6.260   3.621   1.354  0.2617  0.1569  0.2261
  520MOL    H5642614   6.379   3.618   1.506 -0.4813  2.0906  0.7488
  520MOL    H5742615   6.464   3.649   1.357 -0.6760  0.7483 -1.2745
  520MOL    C5842616   6.257   3.644   1.220 -0.5569 -0.2819  0.6420
  520MOL    O5942617   6.356   3.566   1.154  0.1470  0.0375 -0.1564
  520MOL    H6042618   6.298   3.742   1.194 -0.1041  0.0399  2.5085
  520MOL    H6142619   6.157   3.632   1.180  0.1924 -2.9546 -0.5526
  520MOL    C6242620   6.316   3.431   1.149  0.4183 -0.6600  0.1217
  520MOL    O6342621   6.208   3.406   1.060 -0.0203 -0.1558 -0.4004
  520MOL    H6442622   6.283   3.400   1.248  1.6826 -0.0492  0.7590
  520MOL    H6542623   6.385   3.356   1.109 -0.6441 -1.5484 -0.0606
  520MOL    C6642624   6.241   3.399   0.925  0.2174 -0.3630  0.7340
  520MOL    O6742625   6.284   3.276   0.883 -0.3436 -0.6462 -0.0995
  520MOL    H6842626   6.299   3.480   0.883 -0.9877 -2.0054 -4.3972
  520MOL    H6942627   6.148   3.437   0.883  1.9762  0.0452 -2.9342
  520MOL    C7042628   6.185   3.191   0.841 -0.0774 -1.1246  0.4984
  520MOL    O7142629   6.241   3.063   0.834 -0.2252  0.2594 -0.3313
  520MOL    H7242630   6.160   3.224   0.740  1.1953  2.4689  1.2862
  520MOL    H7342631   6.099   3.203   0.907  0.4484  1.5946  0.7460
  520MOL    C7442632   6.281   3.025   0.963 -0.2254  0.2591  0.1261
  520MOL    O7542633   6.308   2.886   0.979  0.3324 -0.5890 -0.2626
  520MOL    H7642634   6.201   3.054   1.032 -0.8736 -2.0488  0.3665
  520MOL    H7742635   6.364   3.090   0.993  0.9310  0.5215 -3.3997
  520MOL    C7842636   6.419   2.842   0.905 -0.1167  0.5571 -0.2869
  520MOL    O7942637   6.452   2.713   0.944 -0.6215 -0.1900  0.5539
  520MOL    H8042638   6.502   2.910   0.921 -0.6057  1.1735 -0.3580
  520MOL    H8142639   6.400   2.834   0.798 -0.1272  0.0956 -0.2504
  520MOL    H8242640   6.532   2.719   0.995 -0.2870 -0.4548  0.0663
  521MOL     C142641   1.910   0.809   2.824  0.1383 -0.4233  0.7389
  521MOL     O242642   2.002   0.778   2.726 -0.4184 -0.3612 -0.1601
  521MOL     H342643   1.815   0.825   2.772  0.5853  0.8909  0.3018
  521MOL     H442644   1.892   0.726   2.892 -0.3395  0.5055  1.7681
  521MOL     H542645   1.933   0.903   2.875  0.9919 -0.3484  0.2295
  521MOL     C642646   2.118   0.719   2.774 -0.2504 -0.3631  0.4433
  521MOL     O742647   2.095   0.591   2.827 -0.1759  0.2129 -0.0641
  521MOL     H842648   2.154   0.796   2.842 -0.7780  2.5574 -2.4372
  521MOL     H942649   2.179   0.718   2.684  0.9730 -1.5923  1.2692
  521MOL    C1042650   2.204   0.557   2.907 -0.4039  0.1056 -0.0234
  521MOL    O1142651   2.309   0.508   2.839  0.2001 -0.3378  0.0730
  521MOL    H1242652   2.166   0.484   2.978  0.0283 -0.7199 -0.6422
  521MOL    H1342653   2.243   0.642   2.964 -0.8272  0.0178  0.4021
  521MOL    C1442654   2.298   0.373   2.811 -0.0052 -0.5505 -0.4165
  521MOL    O1542655   2.315   0.291   2.922  0.0855  0.6311  0.1577
  521MOL    H1642656   2.395   0.358   2.762  0.6220 -0.1077  0.6908
  521MOL    H1742657   2.220   0.354   2.737 -0.1344 -1.6244 -0.0183
  521MOL    C1842658   2.309   0.153   2.884 -0.1028  0.6649 -0.1439
  521MOL    O1942659   2.180   0.122   2.858  0.0061  0.2792  0.5937
  521MOL    H2042660   2.361   0.092   2.958 -0.3162  1.3694  0.5880
  521MOL    H2142661   2.373   0.144   2.795 -0.1904 -0.4164 -0.1112
  521MOL    C2242662   2.112   0.081   2.973 -0.1626  0.5724  0.4288
  521MOL    O2342663   2.149   7.733   3.004  0.3581 -0.3247 -0.3273
  521MOL    H2442664   2.004   0.082   2.957 -0.1219  0.9590  0.1801
  521MOL    H2542665   2.125   0.160   3.047 -0.9669 -0.3452  1.5801
  521MOL    C2642666   2.121   7.692   3.134  0.8320  0.1043  0.1512
  521MOL    O2742667   2.016   7.605   3.125 -0.4554 -0.1891  0.4154
  521MOL    H2842668   2.119   7.767   3.212 -2.2171  0.6695 -0.4072
  521MOL    H2942669   2.198   7.617   3.155  2.2420  1.3967 -0.2796
  521MOL    C3042670   1.894   7.662   3.172 -0.0625 -0.1988  0.3823
  521MOL    O3142671   1.897   7.695   3.308  0.0774  0.4175 -0.3002
  521MOL    H3242672   1.820   7.583   3.165 -0.0243 -0.2624  0.7200
  521MOL    H3342673   1.858   7.742   3.107 -1.0020 -0.5054  0.5263
  521MOL    C3442674   1.781   7.763   3.350 -0.5073 -0.6499  0.0058
  521MOL    O3542675   1.765   0.110   3.298  0.4480 -0.0040 -0.5894
  521MOL    H3642676   1.787   7.758   3.458 -1.9458  0.5565  0.1604
  521MOL    H3742677   1.694   7.707   3.315 -1.3311  1.4495 -1.4017
  521MOL    C3842678   1.837   0.200   3.376 -1.1638  0.6346 -0.4030
  521MOL    O3942679   1.796   0.209   3.511  0.3428 -0.1408  0.1725
  521MOL    H4042680   1.830   0.301   3.335  0.5392  1.2562  0.7569
  521MOL    H4142681   1.944   0.180   3.370 -1.1933  0.8876 -1.8593
  521MOL    C4242682   1.909   0.207   3.598 -0.5684 -0.0689 -0.1850
  521MOL    O4342683   1.936   0.080   3.622 -0.4621 -0.1426 -0.1896
  521MOL    H4442684   1.882   0.243   3.698  0.1626  2.9398 -1.0150
  521MOL    H4542685   1.996   0.265   3.566 -0.7958 -0.0690 -0.8082
  521MOL    C4642686   1.840   0.023   3.708 -0.4473 -0.1861 -0.4593
  521MOL    O4742687   1.857   0.047   3.850 -0.4050  0.6190  0.3435
  521MOL    H4842688   1.844   7.698   3.697 -0.0020 -0.1294 -0.8218
  521MOL    H4942689   1.741   0.049   3.669  0.7301  0.7224 -2.8946
  521MOL    C5042690   1.752   0.118   3.907 -0.5797  0.2609  0.2358
  521MOL    O5142691   1.647   0.032   3.921  0.4669 -0.2617 -0.2896
  521MOL    H5242692   1.720   0.198   3.839  0.5868 -0.5589 -1.3063
  521MOL    H5342693   1.795   0.161   3.997  0.7064  0.9890 -0.7063
  521MOL    C5442694   1.641   7.752   4.047  0.5320 -0.6434  0.2313
  521MOL    O5542695   1.589   0.048   4.152 -0.0938  0.7878  0.1002
  521MOL    H5642696   1.741   7.723   4.079  0.2697 -0.6724  1.0500
  521MOL    H5742697   1.583   7.660   4.044 -1.5903  0.7405 -3.1028
  521MOL    C5842698   1.466   0.109   4.127  0.0439  0.3543 -0.2448
  521MOL    O5942699   1.439   0.203   4.217 -0.3113  0.1495 -0.0129
  521MOL    H6042700   1.387   0.036   4.111 -0.0376  0.5408 -0.7125
  521MOL    H6142701   1.481   0.158   4.031  0.6055 -1.4172 -1.0755
  521MOL    C6242702   1.384   0.163   4.343 -0.2602 -0.6537  0.0397
  521MOL    O6342703   1.267   0.092   4.333 -0.0535 -0.4766  0.0892
  521MOL    H6442704   1.372   0.248   4.410 -0.2450 -1.7864  1.5286
  521MOL    H6542705   1.466   0.107   4.389 -0.3109 -1.1708 -0.4940
  521MOL    C6642706   1.165   0.165   4.272  0.4206 -0.3047 -0.4437
  521MOL    O6742707   1.039   0.111   4.263  0.3255  0.4108 -0.1356
  521MOL    H6842708   1.196   0.184   4.169  1.9321  1.5051  0.3225
  521MOL    H6942709   1.147   0.263   4.316 -0.5787 -0.8481  0.3904
  521MOL    C7042710   0.994   0.083   4.386 -0.3873 -0.0429 -0.7518
  521MOL    O7142711   0.942   0.192   4.449 -0.0018  0.3334 -0.3115
  521MOL    H7242712   1.054   0.030   4.460  0.6400  0.5036 -1.1723
  521MOL    H7342713   0.922   0.004   4.368  1.7416 -1.9952 -0.9898
  521MOL    C7442714   0.832   0.243   4.380  0.3147  0.3618 -0.1100
  521MOL    O7542715   0.717   0.155   4.386 -0.5198 -0.2051 -0.2456
  521MOL    H7642716   0.849   0.283   4.279  0.5152  3.0835  0.9675
  521MOL    H7742717   0.805   0.332   4.435  0.9889  1.3497 -1.3530
  521MOL    C7842718   0.613   0.210   4.324  0.3136 -0.7207 -0.3433
  521MOL    O7942719   0.503   0.136   4.360  0.4275  0.4311  0.0724
  521MOL    H8042720   0.632   0.206   4.217 -0.2021  0.4375 -0.4799
  521MOL    H8142721   0.585   0.312   4.352  0.6183 -0.8981  0.6391
  521MOL    H8242722   0.482   0.157   4.449 -2.1583 -1.6878  0.0278
  522MOL     C142723   5.096   2.138   2.019 -0.4627 -0.1183 -0.4349
  522MOL     O242724   5.050   2.048   1.921  0.5876 -0.0583 -0.4355
  522MOL     H342725   5.197   2.162   1.985  0.2285 -0.8730  1.0157
  522MOL     H442726   5.027   2.222   2.010  1.6853  1.6229 -1.0514
  522MOL     H542727   5.086   2.099   2.120  0.0521 -0.8848 -0.6745
  522MOL     C642728   5.118   1.930   1.912 -0.1175  0.4484  0.4161
  522MOL     O742729   5.065   1.846   2.001 -0.1907 -0.0618 -0.1038
  522MOL     H842730   5.219   1.949   1.950  0.0563 -1.2810  0.8451
  522MOL     H942731   5.131   1.904   1.807 -0.2349  2.2474 -0.0703
  522MOL    C1042732   4.938   1.794   1.968 -0.2145 -0.5415 -0.4259
  522MOL    O1142733   4.881   1.726   2.076 -0.0441  0.7509  0.5315
  522MOL    H1242734   4.941   1.734   1.877 -1.5324 -0.1343 -0.7517
  522MOL    H1342735   4.874   1.881   1.951 -1.1935 -1.2246 -0.2169
  522MOL    C1442736   4.938   1.593   2.095  0.4456 -0.8391  0.5282
  522MOL    O1542737   4.909   1.512   1.984 -0.5934  0.4239  0.1308
  522MOL    H1642738   4.880   1.554   2.178 -0.5474 -0.4256  0.0425
  522MOL    H1742739   5.046   1.603   2.105  0.3314  1.5228 -0.2365
  522MOL    C1842740   4.777   1.468   1.984 -0.0400  0.1116 -0.1139
  522MOL    O1942741   4.754   1.366   2.084 -0.3522  0.1133  0.0729
  522MOL    H2042742   4.755   1.417   1.890  3.2276 -3.1378  0.7690
  522MOL    H2142743   4.708   1.552   1.991 -1.3015 -0.6785 -2.5686
  522MOL    C2242744   4.613   1.350   2.090 -0.9534 -0.2016  0.2536
  522MOL    O2342745   4.558   1.475   2.131  0.3959  0.4300  0.5245
  522MOL    H2442746   4.588   1.266   2.155  1.1901 -0.0886  1.2379
  522MOL    H2542747   4.569   1.323   1.994 -0.2121 -1.6255  0.3163
  522MOL    C2642748   4.559   1.489   2.271  0.4716  0.0584  0.1563
  522MOL    O2742749   4.549   1.620   2.310  0.1163 -0.6856  0.3308
  522MOL    H2842750   4.653   1.449   2.308 -0.0855  1.0233  2.7084
  522MOL    H2942751   4.481   1.430   2.320  0.8052 -1.0596 -0.6600
  522MOL    C3042752   4.417   1.673   2.298  0.0728  0.1446  0.4482
  522MOL    O3142753   4.372   1.730   2.415 -0.3435  0.1465 -0.1516
  522MOL    H3242754   4.341   1.604   2.261  0.6671  1.2669 -2.9937
  522MOL    H3342755   4.423   1.752   2.223  0.7870 -1.4445 -1.2051
  522MOL    C3442756   4.332   1.634   2.511 -0.1348  0.7499  0.2737
  522MOL    O3542757   4.219   1.567   2.471 -0.2346  0.0908  0.5164
  522MOL    H3642758   4.323   1.692   2.603 -1.4522 -0.6582  1.0620
  522MOL    H3742759   4.415   1.566   2.530 -0.9097 -0.2015  0.2940
  522MOL    C3842760   4.115   1.663   2.465  0.3170  0.4720 -0.4741
  522MOL    O3942761   4.067   1.670   2.593  0.3828 -0.3488 -0.4247
  522MOL    H4042762   4.036   1.639   2.394 -1.9204  2.6670  1.2260
  522MOL    H4142763   4.152   1.760   2.431 -1.1285  0.8558 -1.0062
  522MOL    C4242764   3.997   1.556   2.639  0.0419 -0.0509  0.2412
  522MOL    O4342765   4.038   1.521   2.769  0.2100  0.4949 -0.1809
  522MOL    H4442766   4.026   1.468   2.581 -3.2912 -0.9169 -0.2425
  522MOL    H4542767   3.891   1.579   2.624  0.2264 -0.8934 -2.5733
  522MOL    C4642768   4.163   1.462   2.786 -0.7509  0.3984 -0.2924
  522MOL    O4742769   4.177   1.337   2.731 -0.0167  0.5764  0.4818
  522MOL    H4842770   4.187   1.445   2.891  0.3267 -1.0737 -0.7538
  522MOL    H4942771   4.236   1.529   2.741  0.3196  1.7218  3.1975
  522MOL    C5042772   4.087   1.241   2.794  0.8484 -0.2556  0.3281
  522MOL    O5142773   3.980   1.207   2.713  0.0401  0.2214 -0.2465
  522MOL    H5242774   4.040   1.275   2.886  2.2987  1.1561  0.5591
  522MOL    H5342775   4.148   1.154   2.819  1.3006  0.5174  1.9877
  522MOL    C5442776   4.009   1.138   2.590 -0.7038  0.0691 -0.2838
  522MOL    O5542777   3.999   0.999   2.609 -0.2405 -0.0429  0.2199
  522MOL    H5642778   4.102   1.169   2.542  0.6301 -3.6281 -0.2127
  522MOL    H5742779   3.927   1.177   2.530 -1.1199  0.4305  0.5203
  522MOL    C5842780   4.006   0.941   2.483  0.6906  0.3813 -0.2222
  522MOL    O5942781   3.898   0.974   2.407 -0.4966  0.5303  0.3475
  522MOL    H6042782   4.020   0.833   2.488 -0.1621  0.2653 -0.1892
  522MOL    H6142783   4.101   0.974   2.443  1.0700 -0.0028  0.3541
  522MOL    C6242784   3.895   0.921   2.283  0.2860  0.1927  0.4460
  522MOL    O6342785   3.816   0.805   2.280 -0.3346  0.4165 -0.0920
  522MOL    H6442786   3.995   0.900   2.247 -0.1860  0.3156 -0.9765
  522MOL    H6542787   3.860   0.988   2.204  0.3627  0.8826  0.9939
  522MOL    C6642788   3.679   0.831   2.258 -0.0792 -0.3124 -0.1572
  522MOL    O6742789   3.588   0.726   2.259  0.0082 -0.8863  0.1468
  522MOL    H6842790   3.665   0.886   2.164 -0.0986 -0.0249  0.0129
  522MOL    H6942791   3.627   0.887   2.336 -1.5896 -2.1799  0.1933
  522MOL    C7042792   3.615   0.640   2.366 -0.1311 -0.0489  0.7673
  522MOL    O7142793   3.583   0.705   2.484 -0.3866 -0.1678 -0.7008
  522MOL    H7242794   3.719   0.607   2.362 -0.6428 -1.6071  0.0654
  522MOL    H7342795   3.551   0.553   2.352 -0.0046 -0.2797  1.5513
  522MOL    C7442796   3.693   0.704   2.575  0.5255  0.2360 -0.4171
  522MOL    O7542797   3.718   0.583   2.632  0.1580  0.2023  0.4741
  522MOL    H7642798   3.679   0.782   2.650  1.5918 -0.9235  1.0229
  522MOL    H7742799   3.778   0.756   2.530  1.0245 -0.6443 -0.5104
  522MOL    C7842800   3.610   0.537   2.711  0.1428  0.0169  0.0578
  522MOL    O7942801   3.660   0.437   2.798  0.4956  0.4490 -0.2612
  522MOL    H8042802   3.538   0.489   2.645  1.0490 -2.2488  0.6899
  522MOL    H8142803   3.553   0.611   2.767  1.4663  1.6242 -0.6838
  522MOL    H8242804   3.628   0.353   2.768 -0.6456  0.2824  1.3607
  523MOL     C142805   3.188   7.505   6.230  0.1657  0.0229 -0.8001
  523MOL     O242806   3.107   7.393   6.238 -0.2586 -0.4502  0.2386
  523MOL     H342807   3.129   7.596   6.230  0.0716 -0.0395  0.0592
  523MOL     H442808   3.255   7.500   6.316  0.9930 -1.5438 -1.5103
  523MOL     H542809   3.234   7.519   6.132 -0.3918  1.8553 -0.8241
  523MOL     C642810   3.010   7.396   6.339  0.0414 -0.3616 -0.3564
  523MOL     O742811   3.080   7.381   6.462  0.4460 -0.2085 -0.1812
  523MOL     H842812   2.944   7.310   6.339 -0.6401  0.1509  0.7607
  523MOL     H942813   2.946   7.484   6.339  0.6267  0.0731  0.6076
  523MOL    C1042814   3.002   7.444   6.565  0.7954  0.1297 -0.4959
  523MOL    O1142815   2.867   7.402   6.571 -0.0371 -0.3693 -0.1138
  523MOL    H1242816   3.018   7.551   6.554 -0.4972  0.2994 -0.7236
  523MOL    H1342817   3.055   7.411   6.654  0.8513  1.7924  0.0933
  523MOL    C1442818   2.791   7.468   6.666 -0.1287  0.7251 -0.5864
  523MOL    O1542819   2.823   7.433   6.797  0.3359  0.9573  0.5980
  523MOL    H1642820   2.684   7.455   6.648 -0.1745  2.1682 -1.4335
  523MOL    H1742821   2.818   7.573   6.654  0.6931  0.5113 -0.6332
  523MOL    C1842822   2.797   7.295   6.827 -0.7016  0.4926  0.5518
  523MOL    O1942823   2.831   7.254   6.954 -0.5714  0.2796  0.3893
  523MOL    H2042824   2.871   7.237   6.771  0.8982  1.2258  1.8624
  523MOL    H2142825   2.703   7.251   6.793 -0.3941 -3.1475  4.0345
  523MOL    C2242826   2.768   7.324   7.048 -0.0988 -0.4146 -0.4620
  523MOL    O2342827   2.643   7.260   7.063  0.4315 -0.1584 -0.0861
  523MOL    H2442828   2.755   7.432   7.036 -1.7680 -0.7393 -1.7531
  523MOL    H2542829   2.825   7.309   7.140 -1.9863 -1.1735  0.6232
  523MOL    C2642830   2.584   7.261   7.189 -0.1490  0.2476 -0.1060
  523MOL    O2742831   2.558   7.387   7.239 -0.4601  0.0754 -0.3445
  523MOL    H2842832   2.650   7.214   7.261 -1.6692 -0.2989  0.9683
  523MOL    H2942833   2.496   7.199   7.170 -0.9017  0.9643  0.9950
  523MOL    C3042834   2.443   7.381   7.319 -0.1328 -0.3958  0.1662
  523MOL    O3142835   2.458   7.302   7.434  0.4611 -0.1864  0.1099
  523MOL    H3242836   2.356   7.334   7.271  1.3833 -1.6178 -1.4794
  523MOL    H3342837   2.417   7.482   7.348  1.2943 -0.3231  1.2567
  523MOL    C3442838   2.541   7.347   7.535  0.1007  0.0330  0.4293
  523MOL    O3542839   2.533   7.257   7.645  0.0299 -0.0019  0.4940
  523MOL    H3642840   2.511   7.449   7.560 -1.9787 -0.1800 -1.0787
  523MOL    H3742841   2.643   7.363   7.501  0.1918 -0.4700  0.4612
  523MOL    C3842842   2.589   7.139   7.601 -0.3235 -0.4334  0.3865
  523MOL    O3942843   2.730   7.132   7.589  0.8085  0.4421 -0.0313
  523MOL    H4042844   2.563   7.105   7.501  1.5084 -0.7488  0.0064
  523MOL    H4142845   2.557   7.063   7.672 -2.7500  1.0535  0.9646
  523MOL    C4242846   2.800   7.116   7.707  0.5361  0.3584  0.7384
  523MOL    O4342847   2.801   6.974   7.735 -0.4226  0.1418 -0.1320
  523MOL    H4442848   2.760   7.173   0.007 -1.4879  0.7168 -0.4609
  523MOL    H4542849   2.897   7.157   7.679  0.2100  1.7274  1.5732
  523MOL    C4642850   2.869   6.941   0.063  0.0005  0.2622  0.5747
  523MOL    O4742851   2.997   6.988   0.062  0.2486  0.1903  0.3030
  523MOL    H4842852   2.862   6.834   0.086  0.5316  0.3351  1.0957
  523MOL    H4942853   2.810   6.980   0.146  0.3296 -0.1074  0.9867
  523MOL    C5042854   3.092   6.894   0.020 -0.2795  0.0078  0.0588
  523MOL    O5142855   3.216   6.945   0.005  0.3279 -0.8535  0.4846
  523MOL    H5242856   3.052   6.858   7.709  1.9958 -1.2913 -0.4656
  523MOL    H5342857   3.081   6.810   0.088  1.2258 -1.1286 -1.0709
  523MOL    C5442858   3.295   6.932   0.120  0.3853  0.5070  0.0078
  523MOL    O5542859   3.322   6.799   0.146  0.0634  0.2945 -0.0920
  523MOL    H5642860   3.242   6.971   0.207 -0.2080  1.4610 -0.7741
  523MOL    H5742861   3.389   6.985   0.105 -0.8755  2.0831 -2.6973
  523MOL    C5842862   3.418   6.742   0.061 -0.5971 -0.2154 -0.5819
  523MOL    O5942863   3.459   6.622   0.115  0.0114  0.7281  0.2430
  523MOL    H6042864   3.511   6.798   0.050  0.2616 -1.3945  0.4852
  523MOL    H6142865   3.377   6.728   7.745  0.2133 -1.1368 -0.7927
  523MOL    C6242866   3.549   6.635   0.226  0.3380 -0.4032 -0.2029
  523MOL    O6342867   3.676   6.669   0.187 -0.1546 -0.5104  0.5824
  523MOL    H6442868   3.549   6.536   0.273 -0.9639  0.1421  0.9938
  523MOL    H6542869   3.495   6.689   0.303  2.2029 -1.7055  2.0978
  523MOL    C6642870   3.739   6.580   0.107  0.1768  0.1698  0.3051
  523MOL    O6742871   3.800   6.477   0.183 -0.1968  0.1311 -0.1314
  523MOL    H6842872   3.814   6.637   0.051 -0.6314  0.5125 -0.4485
  523MOL    H6942873   3.666   6.527   0.046  1.9193 -0.4670 -1.2765
  523MOL    C7042874   3.896   6.515   0.273 -0.2070  0.0926  0.2316
  523MOL    O7142875   3.841   6.567   0.388 -0.5701  0.3543 -0.5070
  523MOL    H7242876   3.966   6.591   0.237 -0.4892  1.0373  1.6600
  523MOL    H7342877   3.964   6.431   0.289 -0.2374 -0.2921 -1.5481
  523MOL    C7442878   3.848   6.473   0.494  0.1543  0.3425 -0.2148
  523MOL    O7542879   3.797   6.531   0.612  0.3345 -0.1017  0.0190
  523MOL    H7642880   3.953   6.449   0.508  0.0713  0.9773  1.5741
  523MOL    H7742881   3.788   6.386   0.466  0.2878  0.4589 -0.8687
  523MOL    C7842882   3.668   6.583   0.591  0.2167  0.1663 -0.5236
  523MOL    O7942883   3.605   6.613   0.710 -0.6696  0.1899 -0.6917
  523MOL    H8042884   3.604   6.514   0.537 -2.3257  0.7284  1.6981
  523MOL    H8142885   3.666   6.672   0.529 -3.6358  0.9236  0.5627
  523MOL    H8242886   3.645   6.694   0.737  1.4282 -0.9123 -0.2984
  524MOL     C142887   4.241   3.102   2.894  0.0581 -0.3819 -0.5644
  524MOL     O242888   4.110   3.059   2.866  0.0232 -0.5821 -0.0723
  524MOL     H342889   4.285   3.170   2.821 -1.1239  1.7404  0.6551
  524MOL     H442890   4.244   3.164   2.984  1.0647 -2.3857  0.8283
  524MOL     H542891   4.311   3.023   2.924 -1.2067 -0.8274  1.3604
  524MOL     C642892   4.099   2.937   2.813  0.8491 -0.6964 -0.3177
  524MOL     O742893   4.109   2.839   2.913  0.1603 -0.0266  0.0254
  524MOL     H842894   4.181   2.919   2.744  2.7632 -3.1683  2.4312
  524MOL     H942895   4.003   2.921   2.763  0.1070  0.4990  0.6764
  524MOL    C1042896   3.989   2.815   2.981 -0.3735  0.4719  0.7644
  524MOL    O1142897   3.896   2.743   2.902  0.6283 -0.3996  0.5295
  524MOL    H1242898   3.944   2.909   3.011 -0.2174  0.4127  1.1867
  524MOL    H1342899   4.013   2.761   3.073 -1.3134 -0.1367  0.6612
  524MOL    C1442900   3.937   2.613   2.864 -0.0862 -0.2659 -0.1968
  524MOL    O1542901   3.844   2.547   2.787 -0.0546  0.4339  0.4344
  524MOL    H1642902   3.952   2.552   2.953  0.6794 -0.2884 -0.3418
  524MOL    H1742903   4.034   2.618   2.816 -0.3948  0.2775 -0.7770
  524MOL    C1842904   3.716   2.536   2.851  0.3145  0.2957  0.8437
  524MOL    O1942905   3.726   2.428   2.937  0.4510 -0.4838  0.2353
  524MOL    H2042906   3.642   2.520   2.773  0.8662  0.8339  0.2126
  524MOL    H2142907   3.689   2.631   2.897  0.9083  1.1436 -0.5404
  524MOL    C2242908   3.729   2.308   2.869 -0.6005 -0.8942  0.5884
  524MOL    O2342909   3.608   2.249   2.840  0.2532  0.1340  0.0166
  524MOL    H2442910   3.774   2.225   2.922 -0.7456 -3.2676 -2.8183
  524MOL    H2542911   3.786   2.325   2.777 -2.3478 -0.4219 -0.4363
  524MOL    C2642912   3.536   2.206   2.957 -0.2000  0.2936  0.3116
  524MOL    O2742913   3.572   2.073   2.990 -0.0683 -0.4857  0.2169
  524MOL    H2842914   3.431   2.206   2.928 -0.3976 -1.9763  0.9188
  524MOL    H2942915   3.540   2.274   3.041  1.1461  2.2020 -1.2517
  524MOL    C3042916   3.472   1.986   3.032 -0.3936  0.3494  0.1374
  524MOL    O3142917   3.382   1.951   2.930 -0.2747  0.7311  0.1856
  524MOL    H3242918   3.406   2.040   3.100 -0.8334 -0.2309  0.1683
  524MOL    H3342919   3.524   1.897   3.067  1.0634  1.0921 -0.0789
  524MOL    C3442920   3.289   1.853   2.966  0.1711 -0.9530  0.3179
  524MOL    O3542921   3.193   1.903   3.055  0.4484  0.7398  1.2451
  524MOL    H3642922   3.342   1.779   3.027 -1.6661 -2.9777 -0.5063
  524MOL    H3742923   3.244   1.804   2.880  4.3825 -1.7718 -1.5596
  524MOL    C3842924   3.109   1.992   2.993  0.8035  0.0674  0.4706
  524MOL    O3942925   3.024   2.059   3.079  0.3862 -0.0179 -0.6073
  524MOL    H4042926   3.056   1.959   2.904  0.9967 -0.2200  0.4582
  524MOL    H4142927   3.165   2.073   2.947 -0.4716  2.0257  2.2850
  524MOL    C4242928   3.092   2.161   3.158 -0.1508 -0.0484  0.3629
  524MOL    O4342929   3.140   2.275   3.083  0.0762 -0.0983 -0.1927
  524MOL    H4442930   3.176   2.120   3.215  0.3774  1.8762  1.0137
  524MOL    H4542931   3.025   2.201   3.235 -1.7566 -4.0242  1.1381
  524MOL    C4642932   3.033   2.356   3.030  0.4635 -0.1642 -0.6640
  524MOL    O4742933   2.960   2.412   3.132 -0.0570 -0.2802 -0.0303
  524MOL    H4842934   2.975   2.298   2.958 -0.0528  2.3363 -2.3667
  524MOL    H4942935   3.074   2.426   2.956  3.1264 -1.0752 -0.1201
  524MOL    C5042936   3.012   2.534   3.177 -0.1987 -0.4639  0.0246
  524MOL    O5142937   3.001   2.640   3.083  0.2259  0.0354  0.3447
  524MOL    H5242938   3.116   2.525   3.207  0.1103  1.3164 -0.4730
  524MOL    H5342939   2.949   2.556   3.263  0.2313 -2.2834  0.8279
  524MOL    C5442940   2.872   2.658   3.033 -0.1464  0.1371 -0.5362
  524MOL    O5542941   2.773   2.690   3.123 -0.2365 -0.5108 -0.1024
  524MOL    H5642942   2.834   2.561   2.998  0.5018 -1.6307  3.4221
  524MOL    H5742943   2.882   2.721   2.945 -0.8712 -0.0496 -0.7574
  524MOL    C5842944   2.777   2.826   3.159 -0.6867 -0.7520  0.6054
  524MOL    O5942945   2.717   2.904   3.051 -0.8386 -0.5955  0.6606
  524MOL    H6042946   2.881   2.858   3.160 -1.8128  3.2997 -0.8832
  524MOL    H6142947   2.731   2.832   3.258  1.3937 -2.6905  1.7386
  524MOL    C6242948   2.578   2.890   3.045  0.2466  0.2833 -0.0970
  524MOL    O6342949   2.511   2.923   3.164  0.4027  0.3976  0.7323
  524MOL    H6442950   2.556   2.785   3.024  0.8768 -0.1747  1.4046
  524MOL    H6542951   2.545   2.955   2.964 -0.4332  0.1534  0.0666
  524MOL    C6642952   2.377   2.932   3.140  0.6003 -0.3335  0.0528
  524MOL    O6742953   2.346   3.055   3.083 -0.0853  0.2765 -0.1662
  524MOL    H6842954   2.327   2.912   3.235 -0.8016 -0.4478 -0.7019
  524MOL    H6942955   2.342   2.855   3.072 -0.5892  1.0417 -0.9147
  524MOL    C7042956   2.224   3.046   3.002 -0.5159 -0.2819  0.0795
  524MOL    O7142957   2.159   3.173   2.997  0.0107 -0.4926  0.4477
  524MOL    H7242958   2.145   2.980   3.038 -0.5480 -0.0874  0.3763
  524MOL    H7342959   2.261   3.025   2.902  0.9040  0.3795  0.4556
  524MOL    C7442960   2.236   3.258   2.909  0.5331  0.6109  0.4020
  524MOL    O7542961   2.213   3.228   2.778 -0.2616  0.5216  1.0950
  524MOL    H7642962   2.343   3.252   2.930  1.0376 -1.1263 -2.4225
  524MOL    H7742963   2.202   3.360   2.928 -0.5836  0.5412 -1.1791
  524MOL    C7842964   2.073   3.226   2.745 -0.3248  0.0544 -0.1061
  524MOL    O7942965   2.054   3.203   2.607 -0.0588  0.0527 -0.0418
  524MOL    H8042966   2.018   3.314   2.779  1.1346  0.6681  0.7658
  524MOL    H8142967   2.038   3.137   2.797  0.2829 -0.4117 -0.4767
  524MOL    H8242968   2.072   3.111   2.599  1.1409  0.5139 -3.2099
  525MOL     C142969   7.052   1.784   1.665 -0.4776 -0.9421  0.0533
  525MOL     O242970   7.128   1.889   1.727 -0.3884  0.1600 -0.0040
  525MOL     H342971   7.098   1.771   1.567  0.9348 -1.5355  0.7732
  525MOL     H442972   7.081   1.695   1.722 -0.7920 -1.3606 -0.4281
  525MOL     H542973   6.944   1.801   1.670 -0.6711 -0.9387 -2.9199
  525MOL     C642974   7.116   2.020   1.666 -0.3541  0.2564  0.8440
  525MOL     O742975   6.986   2.066   1.691  0.3396 -0.4899 -0.0273
  525MOL     H842976   7.135   2.015   1.559 -0.5504 -1.8828  0.8713
  525MOL     H942977   7.192   2.092   1.697  0.1304  0.0649  0.1137
  525MOL    C1042978   6.959   2.174   1.610  0.9150  0.1145 -0.0338
  525MOL    O1142979   6.967   2.135   1.476 -0.2018 -0.7034 -0.0815
  525MOL    H1242980   7.035   2.251   1.615  0.2126  1.0042 -2.5707
  525MOL    H1342981   6.858   2.200   1.644  0.3613  0.0999 -1.6131
  525MOL    C1442982   6.862   2.069   1.419  0.2452  0.6764 -1.3223
  525MOL    O1542983   6.889   2.022   1.293 -0.1323 -0.2748 -0.0303
  525MOL    H1642984   6.769   2.124   1.407  0.0245  1.5926  3.5498
  525MOL    H1742985   6.841   1.982   1.482 -1.8892  1.2294 -1.2141
  525MOL    C1842986   6.968   1.910   1.285  0.3505 -0.8914  0.1374
  525MOL    O1942987   6.888   1.794   1.296 -0.4690  0.8072 -0.2114
  525MOL    H2042988   7.059   1.904   1.346  0.0604  1.6000  0.8475
  525MOL    H2142989   7.008   1.911   1.184  1.2059 -3.2637  0.4155
  525MOL    C2242990   6.814   1.765   1.184 -0.5318  0.3218  0.2414
  525MOL    O2342991   6.895   1.706   1.082 -0.7635 -0.3567  0.0614
  525MOL    H2442992   6.770   1.857   1.147  1.3731  0.6482 -1.2614
  525MOL    H2542993   6.738   1.694   1.217 -1.7009  1.5874  0.3415
  525MOL    C2642994   6.826   1.677   0.965 -0.6323 -0.4792 -0.8306
  525MOL    O2742995   6.787   1.796   0.907  0.1446  0.3454 -0.2034
  525MOL    H2842996   6.741   1.612   0.984 -1.2987  0.7020  0.2932
  525MOL    H2942997   6.901   1.619   0.911  1.5883 -0.5536  2.2623
  525MOL    C3042998   6.891   1.879   0.860  0.0399 -0.0780  0.7285
  525MOL    O3142999   6.844   2.004   0.824 -0.3457 -0.0778 -0.1750
  525MOL    H3243000   6.935   1.839   0.768 -0.2031  1.8123 -0.2320
  525MOL    H3343001   6.962   1.892   0.941 -1.4526 -0.1953  2.0960
  525MOL    C3443002   6.748   1.998   0.725 -0.2642 -0.4661  0.4942
  525MOL    O3543003   6.728   2.124   0.666  0.1175  0.3074  0.4246
  525MOL    H3643004   6.647   1.983   0.763 -0.0468 -1.5664  0.6489
  525MOL    H3743005   6.763   1.914   0.657  2.0031 -0.0884  0.5102
  525MOL    C3843006   6.846   2.161   0.605 -0.0171 -0.2135 -0.1237
  525MOL    O3943007   6.868   2.094   0.480 -0.6789 -0.3894 -0.2994
  525MOL    H4043008   6.935   2.148   0.666  0.8327  1.0426 -1.0614
  525MOL    H4143009   6.837   2.267   0.583  0.1405 -0.3228 -0.7254
  525MOL    C4243010   6.793   2.157   0.377 -0.7777  0.0031 -0.2832
  525MOL    O4343011   6.853   2.276   0.345  0.3834 -0.2050 -0.2435
  525MOL    H4443012   6.692   2.171   0.417 -0.7708  2.2528 -0.9777
  525MOL    H4543013   6.783   2.111   0.279 -1.4522  1.3410 -0.8576
  525MOL    C4643014   6.940   2.270   0.234 -0.2857  0.6428 -0.4968
  525MOL    O4743015   6.878   2.217   0.119 -0.0446  0.6101  0.6287
  525MOL    H4843016   7.024   2.209   0.267 -1.0530 -1.0509 -1.6289
  525MOL    H4943017   6.970   2.372   0.211  0.7878  0.4893  0.2053
  525MOL    C5043018   6.862   2.303   0.015  0.7724  0.3385 -0.4953
  525MOL    O5143019   6.766   2.402   0.045  0.6931  0.6201 -0.1948
  525MOL    H5243020   6.822   2.232   7.727 -1.6636 -2.3256  3.3253
  525MOL    H5343021   6.952   2.344   7.752  1.3039  0.0569  0.2637
  525MOL    C5443022   6.632   2.357   0.048  0.5506 -0.1345  0.3101
  525MOL    O5543023   6.582   2.343   7.700 -0.4610  0.3137 -0.3427
  525MOL    H5643024   6.572   2.429   0.103  0.5337  2.6205 -3.2068
  525MOL    H5743025   6.630   2.265   0.108  1.0862  0.6590  1.5756
  525MOL    C5843026   6.449   2.332   7.680 -0.2084  0.2126 -0.3049
  525MOL    O5943027   6.396   2.465   7.683 -0.0314  0.0122 -0.6441
  525MOL    H6043028   6.405   2.267   7.756  3.5047 -2.2310 -0.0728
  525MOL    H6143029   6.423   2.278   7.590 -2.4797 -0.7808  0.9021
  525MOL    C6243030   6.267   2.474   7.641 -1.1453  0.7596 -0.7439
  525MOL    O6343031   6.185   2.403   7.731 -0.2004 -0.2216 -0.3210
  525MOL    H6443032   6.262   2.439   7.538  1.9918 -0.6176 -0.4995
  525MOL    H6543033   6.250   2.582   7.640 -1.1635  0.7914  0.7922
  525MOL    C6643034   6.168   2.454   0.074 -0.4398  0.0961  0.5235
  525MOL    O6743035   6.247   2.393   0.169 -0.3126  0.5115 -0.5891
  525MOL    H6843036   6.066   2.446   0.111 -1.0091 -1.7517 -1.3373
  525MOL    H6943037   6.199   2.558   0.084 -0.0637 -0.1115  1.6009
  525MOL    C7043038   6.191   2.265   0.216  0.0111  0.4163  0.1713
  525MOL    O7143039   6.076   2.277   0.292  0.4394 -0.2191  0.6169
  525MOL    H7243040   6.261   2.214   0.283 -1.2623  1.0584  2.0354
  525MOL    H7343041   6.197   2.219   0.118 -0.2319  2.4044 -0.7986
  525MOL    C7443042   6.097   2.316   0.421  0.8552  0.1210  0.2237
  525MOL    O7543043   6.131   2.215   0.507  0.0876 -0.5297  0.0142
  525MOL    H7643044   6.002   2.353   0.458  0.3515  0.9263 -1.7836
  525MOL    H7743045   6.170   2.397   0.425  0.3966  0.5094  0.8429
  525MOL    C7843046   6.026   2.129   0.540  0.4932  0.5512 -0.3319
  525MOL    O7943047   6.070   2.023   0.617 -0.3471 -0.3135  0.1608
  525MOL    H8043048   5.964   2.089   0.460 -2.7249  1.9346  1.3614
  525MOL    H8143049   5.954   2.192   0.593  0.3654  1.3840 -1.4812
  525MOL    H8243050   6.087   2.061   0.702  0.9123  0.0669 -0.2470
  526MOL     C143051   6.448   4.240   1.522 -0.3082 -0.0089 -0.5826
  526MOL     O243052   6.440   4.382   1.544  0.4502 -0.1577  0.1775
  526MOL     H343053   6.430   4.198   1.423 -3.3550 -0.1588 -0.0026
  526MOL     H443054   6.551   4.204   1.534 -1.0481 -2.1072 -0.3575
  526MOL     H543055   6.387   4.186   1.594  1.2106 -1.7356 -0.5566
  526MOL     C643056   6.540   4.455   1.487  0.6830 -0.0097 -0.5773
  526MOL     O743057   6.660   4.437   1.563 -0.2640  0.4185 -0.1862
  526MOL     H843058   6.500   4.556   1.493 -0.2707 -0.3137 -1.6444
  526MOL     H943059   6.556   4.439   1.381  1.0146  0.4676 -0.5972
  526MOL    C1043060   6.650   4.472   1.705  0.8576  0.5758 -0.2404
  526MOL    O1143061   6.628   4.608   1.725  0.2261  0.5171 -0.3938
  526MOL    H1243062   6.739   4.446   1.762 -0.9347 -2.2110  1.4294
  526MOL    H1343063   6.569   4.411   1.745 -0.1984  2.2882  0.2886
  526MOL    C1443064   6.720   4.691   1.663  0.2165  0.0999  0.1501
  526MOL    O1543065   6.698   4.823   1.705 -0.9063  0.3769 -0.0418
  526MOL    H1643066   6.735   4.669   1.557  2.1268 -0.1156  0.4558
  526MOL    H1743067   6.812   4.661   1.713 -0.1391  2.5727  2.3705
  526MOL    C1843068   6.801   4.877   1.776 -0.3430 -0.7906 -0.0746
  526MOL    O1943069   6.831   4.830   1.901  0.3308  0.2385 -0.4619
  526MOL    H2043070   6.771   4.980   1.794 -0.8760 -0.7954 -0.9543
  526MOL    H2143071   6.885   4.872   1.707  0.8491  3.9986  0.8577
  526MOL    C2243072   6.715   4.818   1.974  0.3704 -0.2461  0.3661
  526MOL    O2343073   6.640   4.934   1.985  0.3399  0.4542 -0.1168
  526MOL    H2443074   6.756   4.787   2.071  1.6046  0.2588  0.0183
  526MOL    H2543075   6.651   4.741   1.933 -0.3409  1.1575 -1.2190
  526MOL    C2643076   6.701   5.029   2.053 -0.3574 -0.1141  0.3467
  526MOL    O2743077   6.687   5.000   2.188 -0.0318 -0.3867  0.0971
  526MOL    H2843078   6.678   5.130   2.019  0.3638 -0.0310  0.0790
  526MOL    H2943079   6.808   5.032   2.031 -0.5549  2.1120 -0.4695
  526MOL    C3043080   6.561   5.051   2.235 -0.6837 -0.1626  0.1468
  526MOL    O3143081   6.524   5.016   2.363  0.2172  0.4194  0.1523
  526MOL    H3243082   6.488   5.002   2.170 -0.5776 -1.0937  0.7208
  526MOL    H3343083   6.555   5.159   2.228 -0.3688 -0.1962 -0.6719
  526MOL    C3443084   6.610   5.086   2.454 -0.3335  0.2519 -0.0208
  526MOL    O3543085   6.567   5.216   2.474 -0.5011  0.0677  0.2222
  526MOL    H3643086   6.714   5.091   2.423 -0.4505 -0.0402 -0.4667
  526MOL    H3743087   6.616   5.034   2.550 -1.3979  0.7524  0.3278
  526MOL    C3843088   6.484   5.229   2.581  0.5440  0.0200 -0.1559
  526MOL    O3943089   6.549   5.215   2.702 -0.1306  0.3939  0.1930
  526MOL    H4043090   6.392   5.173   2.565  0.4296  0.4299 -0.9272
  526MOL    H4143091   6.444   5.331   2.579  0.6586  0.1121  1.2579
  526MOL    C4243092   6.456   5.196   2.808  0.0262 -0.0067  1.0534
  526MOL    O4343093   6.518   5.214   2.923 -0.1132 -0.1915  0.0602
  526MOL    H4443094   6.418   5.095   2.792  0.8667 -0.3848  1.4051
  526MOL    H4543095   6.381   5.270   2.782 -1.0168 -1.4845 -0.2109
  526MOL    C4643096   6.563   5.092   2.979 -0.2439 -0.1965  0.0080
  526MOL    O4743097   6.463   5.013   3.037 -0.1870  0.9321  0.5402
  526MOL    H4843098   6.637   5.123   3.052 -0.4351  1.5743 -0.5285
  526MOL    H4943099   6.612   5.020   2.913  0.3484  2.3892 -2.4612
  526MOL    C5043100   6.420   5.069   3.157  0.7357  0.0045  0.2082
  526MOL    O5143101   6.294   5.014   3.186 -0.3063  0.2425  0.3796
  526MOL    H5243102   6.439   5.176   3.165  1.1495 -0.1370  1.0939
  526MOL    H5343103   6.475   5.030   3.242 -3.8035 -0.9314  2.9242
  526MOL    C5443104   6.198   5.072   3.104  0.7924 -0.3594 -0.5817
  526MOL    O5543105   6.080   5.014   3.123 -0.1259  0.0598  0.2731
  526MOL    H5643106   6.214   5.069   2.996  2.0943 -3.4281 -0.3495
  526MOL    H5743107   6.193   5.179   3.125  1.6948  0.5247 -4.4052
  526MOL    C5843108   6.017   5.044   3.242 -0.5217  0.4046  0.1573
  526MOL    O5943109   5.986   5.182   3.262 -0.0307  0.7905 -0.0722
  526MOL    H6043110   6.091   5.010   3.315  1.4560  0.9857 -1.5176
  526MOL    H6143111   5.932   4.976   3.244 -0.6598  0.5371 -0.8551
  526MOL    C6243112   5.921   5.205   3.385  0.4184  0.0462  0.2681
  526MOL    O6343113   5.869   5.341   3.389 -0.4771 -0.1943  0.6824
  526MOL    H6443114   5.994   5.188   3.464  0.3284 -0.2827  0.2784
  526MOL    H6543115   5.839   5.135   3.394 -0.4011  1.0101  0.4536
  526MOL    C6643116   5.965   5.441   3.382 -0.2342  0.5141  0.1824
  526MOL    O6743117   6.060   5.433   3.482  0.0273 -0.1661  0.0858
  526MOL    H6843118   5.907   5.533   3.384 -3.5075 -1.3879 -2.7447
  526MOL    H6943119   6.012   5.433   3.284 -0.0886 -0.2804  0.3140
  526MOL    C7043120   6.009   5.465   3.610 -0.8547  0.1000 -0.2170
  526MOL    O7143121   6.102   5.468   3.706 -0.2271 -0.0746 -0.2606
  526MOL    H7243122   5.943   5.381   3.625 -1.4212  0.5172 -0.3479
  526MOL    H7343123   5.952   5.558   3.606 -1.7498 -0.4788 -1.2949
  526MOL    C7443124   6.155   5.342   3.736 -0.3623 -0.3546 -0.2198
  526MOL    O7543125   6.064   5.262   3.806  0.1671 -0.2062  0.3617
  526MOL    H7643126   6.250   5.354   3.787 -0.7929  0.5479  0.4066
  526MOL    H7743127   6.187   5.294   3.644 -0.5612 -1.2243  0.1591
  526MOL    C7843128   6.011   5.321   3.927  0.5382 -0.4580 -0.1664
  526MOL    O7943129   5.887   5.263   3.958 -0.4086  0.0226  0.2743
  526MOL    H8043130   5.988   5.426   3.909 -0.9864 -0.6401  0.6247
  526MOL    H8143131   6.075   5.304   4.013  0.3968 -0.8027 -0.1289
  526MOL    H8243132   5.826   5.332   3.937 -0.1884  0.3278  0.6361
  527MOL     C143133   3.744   7.173   1.768 -0.5255 -0.1925 -0.3506
  527MOL     O243134   3.787   7.056   1.705 -0.3441  0.0495 -0.2861
  527MOL     H343135   3.645   7.159   1.811 -0.9238  1.1971 -0.7722
  527MOL     H443136   3.819   7.209   1.839 -0.0871 -2.8871  0.6069
  527MOL     H543137   3.751   7.243   1.685  0.6199 -0.1045 -0.1917
  527MOL     C643138   3.920   7.053   1.673  0.5845  0.2829 -0.1560
  527MOL     O743139   3.940   7.138   1.569 -0.1068  0.2515  0.4566
  527MOL     H843140   3.951   6.951   1.652 -2.1762 -0.5836 -0.2160
  527MOL     H943141   3.978   7.089   1.758 -2.6506  1.6151  1.5833
  527MOL    C1043142   3.882   7.090   1.449 -0.4426 -0.0257  0.4900
  527MOL    O1143143   3.971   6.997   1.382 -0.0359  0.5147 -0.2192
  527MOL    H1243144   3.852   7.168   1.378  0.2172 -2.0873 -2.1510
  527MOL    H1343145   3.794   7.031   1.475 -0.8783  1.0363  1.4593
  527MOL    C1443146   3.923   6.964   1.257 -0.2189  0.1457  0.1720
  527MOL    O1543147   3.864   6.836   1.252  0.4737 -0.3073  0.8817
  527MOL    H1643148   4.008   6.967   1.189 -0.4776 -0.1682 -0.1659
  527MOL    H1743149   3.860   7.038   1.209  0.0096  1.0247  1.2043
  527MOL    C1843150   3.745   6.838   1.308 -0.2223  0.4679  0.4974
  527MOL    O1943151   3.661   6.931   1.249 -0.0298  0.4951  0.0074
  527MOL    H2043152   3.724   6.844   1.415 -2.1156 -0.1539  0.1763
  527MOL    H2143153   3.720   6.734   1.285 -0.8389  0.9560 -1.0829
  527MOL    C2243154   3.567   6.882   1.160  0.9039  0.0998  0.1543
  527MOL    O2343155   3.609   6.819   1.046  0.2719  0.2888 -0.2699
  527MOL    H2443156   3.498   6.964   1.143  0.7683 -0.6238 -3.2133
  527MOL    H2543157   3.502   6.814   1.214  0.4127  0.9910  0.6826
  527MOL    C2643158   3.676   6.907   0.971 -0.0773  0.4933 -0.2377
  527MOL    O2743159   3.597   7.000   0.911  0.4310 -0.4758 -0.3350
  527MOL    H2843160   3.740   6.853   0.901 -0.3202  1.5550 -1.3025
  527MOL    H2943161   3.749   6.960   1.032 -0.6422 -1.4384  2.2181
  527MOL    C3043162   3.526   6.947   0.798  0.3798 -0.1709 -0.5687
  527MOL    O3143163   3.615   6.921   0.694 -0.0743  0.2957  0.3414
  527MOL    H3243164   3.444   7.004   0.754  0.9280  0.9426 -0.1698
  527MOL    H3343165   3.479   6.855   0.831 -0.2792  0.9675  1.8240
  527MOL    C3443166   3.640   7.033   0.616  0.8292 -0.4125  0.0200
  527MOL    O3543167   3.678   6.995   0.490  0.3491 -0.0090 -0.2103
  527MOL    H3643168   3.723   7.098   0.646 -0.9565  1.8189  0.2559
  527MOL    H3743169   3.547   7.089   0.610 -0.0078 -1.8372 -0.3021
  527MOL    C3843170   3.571   6.955   0.402  0.7605 -0.2810  0.5820
  527MOL    O3943171   3.492   7.060   0.350  0.0976  0.3984  0.4401
  527MOL    H4043172   3.509   6.886   0.460  0.2476 -1.3471 -1.1876
  527MOL    H4143173   3.602   6.891   0.319 -3.1366  1.6956 -2.5915
  527MOL    C4243174   3.565   7.138   0.264  0.4206 -0.4536  0.1529
  527MOL    O4343175   3.605   7.069   0.148  0.2543 -0.6539  0.0717
  527MOL    H4443176   3.660   7.165   0.309 -0.1863  0.1794  1.0939
  527MOL    H4543177   3.515   7.232   0.240 -0.2530 -0.4573  1.4876
  527MOL    C4643178   3.685   7.137   0.056 -0.1914 -0.4049  0.4896
  527MOL    O4743179   3.749   7.056   7.746 -0.4528 -0.1516 -0.1034
  527MOL    H4843180   3.757   7.198   0.111 -0.7149  1.2107 -0.6121
  527MOL    H4943181   3.635   7.213   7.780  3.2067  2.1422  0.7143
  527MOL    C5043182   3.829   6.956   0.026 -0.1558 -0.5389  0.4273
  527MOL    O5143183   3.851   6.842   7.732 -0.3048  0.0337  0.0402
  527MOL    H5243184   3.785   6.928   0.122 -0.9006  1.5006  0.7196
  527MOL    H5343185   3.931   6.988   0.047 -0.7522  0.2140  2.3126
  527MOL    C5443186   3.913   6.866   7.608 -0.3854 -0.2871 -0.4755
  527MOL    O5543187   4.052   6.863   7.618  0.2976  0.0778  0.0515
  527MOL    H5643188   3.888   6.964   7.567  0.3969 -1.2483 -3.3822
  527MOL    H5743189   3.875   6.790   7.540 -2.1445 -0.2751  0.4415
  527MOL    C5843190   4.097   6.736   7.635  0.0597 -0.0886  0.3688
  527MOL    O5943191   4.178   6.685   7.529 -0.0721  0.3987 -0.5847
  527MOL    H6043192   4.029   6.664   7.682 -1.3196  0.2873 -1.0094
  527MOL    H6143193   4.172   6.736   7.714 -0.1628  0.1765  0.5770
  527MOL    C6243194   4.109   6.649   7.407 -1.2911 -0.4350  0.1093
  527MOL    O6343195   4.010   6.551   7.436  0.2055 -0.4382  0.4286
  527MOL    H6443196   4.181   6.601   7.341  0.7977  0.6106  1.5767
  527MOL    H6543197   4.062   6.736   7.360  1.2067  1.4559  1.0259
  527MOL    C6643198   4.060   6.435   7.486 -0.4700 -0.3213 -0.4265
  527MOL    O6743199   3.966   6.338   7.492  0.5564  0.0003  0.1963
  527MOL    H6843200   4.092   6.460   7.587 -1.8114 -2.6937  0.6346
  527MOL    H6943201   4.150   6.403   7.432  2.2990  4.8603  0.8044
  527MOL    C7043202   3.863   6.358   7.580 -0.5594 -0.4089 -0.0967
  527MOL    O7143203   3.770   6.257   7.582 -0.4422  0.4761 -0.1528
  527MOL    H7243204   3.809   6.450   7.557 -0.9580 -0.8269 -0.8451
  527MOL    H7343205   3.908   6.382   7.677 -0.1800 -3.6857  0.6015
  527MOL    C7443206   3.805   6.148   7.664 -0.6521  0.2131  0.4185
  527MOL    O7543207   3.804   6.193   0.014  0.2935 -0.1858  0.0987
  527MOL    H7643208   3.908   6.123   7.643 -1.1228  0.2249 -2.0246
  527MOL    H7743209   3.742   6.064   7.635 -1.0832 -0.1700  2.3481
  527MOL    C7843210   3.679   6.192   0.076  0.4333  0.4286  0.7364
  527MOL    O7943211   3.687   6.238   0.211 -0.0665  0.1376  0.1217
  527MOL    H8043212   3.637   6.091   0.079 -3.5211  1.9148 -0.9314
  527MOL    H8143213   3.614   6.259   0.020 -1.7200 -0.5474  1.9908
  527MOL    H8243214   3.717   6.328   0.208 -0.1538  0.2405  1.8082
  528MOL     C143215   7.343   1.686   3.360 -0.2257 -0.2627 -0.1262
  528MOL     O243216   7.473   1.674   3.298  0.1608  0.2745  0.0071
  528MOL     H343217   7.275   1.631   3.295  2.2578 -0.5042 -2.5883
  528MOL     H443218   7.351   1.659   3.465 -1.6970  0.8980  0.3110
  528MOL     H543219   7.312   1.791   3.357 -1.6098 -0.6866 -1.2550
  528MOL     C643220   7.498   1.540   3.262 -0.3114  0.1809 -0.5838
  528MOL     O743221   7.607   1.525   3.172 -0.2662 -0.2429  0.2672
  528MOL     H843222   7.415   1.495   3.208 -0.3472 -1.9530  1.1834
  528MOL     H943223   7.508   1.484   3.355 -3.4402  0.4760 -0.0156
  528MOL    C1043224   7.575   1.579   3.039 -0.7572  0.1248  0.0852
  528MOL    O1143225   7.495   1.492   2.969 -0.0422  1.2476  0.1655
  528MOL    H1243226   7.660   1.596   2.974 -0.1503 -3.5784 -0.2371
  528MOL    H1343227   7.534   1.679   3.046 -2.1163 -0.3298 -1.1787
  528MOL    C1443228   7.430   1.552   2.856  0.6177  0.0831 -0.5732
  528MOL    O1543229   7.511   1.581   2.748  0.0485  0.0564  0.4587
  528MOL    H1643230   7.377   1.645   2.878  1.5856  2.2198 -6.3625
  528MOL    H1743231   7.343   1.492   2.830  0.6896 -0.7369  0.9791
  528MOL    C1843232   7.498   1.483   2.649  0.3942 -0.6151  0.5675
  528MOL    O1943233   7.601   1.477   2.563 -0.2307  0.1617  0.0364
  528MOL    H2043234   7.405   1.513   2.601  1.0574 -1.5752 -1.3207
  528MOL    H2143235   7.490   1.384   2.694  0.1727 -1.1369 -0.6202
  528MOL    C2243236   7.721   1.454   2.631  0.0393 -0.0681  0.3294
  528MOL    O2343237   7.735   1.321   2.667 -0.0604  0.1626 -0.0777
  528MOL    H2443238   7.719   1.510   2.724 -0.4878  0.8536 -0.2332
  528MOL    H2543239   0.020   1.500   2.576  0.4392  0.1734  1.1212
  528MOL    C2643240   0.018   1.239   2.574  0.4726  0.2557 -0.6087
  528MOL    O2743241   7.719   1.155   2.499  0.1334 -0.7768  0.1757
  528MOL    H2843242   0.093   1.193   2.638  1.5619 -0.1971 -2.1727
  528MOL    H2943243   0.080   1.304   2.513  1.0121  1.7616  1.4929
  528MOL    C3043244   7.633   1.088   2.591  0.2502 -0.0942 -0.5243
  528MOL    O3143245   7.572   0.985   2.507 -0.0969 -0.1283  0.2422
  528MOL    H3243246   7.568   1.163   2.635  1.2416 -0.4764  1.6226
  528MOL    H3343247   7.679   1.024   2.666 -0.9608 -2.0113 -1.3752
  528MOL    C3443248   7.479   1.037   2.422 -0.1428 -0.1758  0.6384
  528MOL    O3543249   7.380   1.122   2.481 -0.3467 -0.0593 -0.4281
  528MOL    H3643250   7.435   0.970   2.349  1.2179 -3.1539  2.4336
  528MOL    H3743251   7.545   1.105   2.369  1.6478 -2.3711 -0.0096
  528MOL    C3843252   7.281   1.052   2.544  0.2207 -0.4547  0.2028
  528MOL    O3943253   7.180   1.142   2.592  0.6502 -0.4997 -0.5659
  528MOL    H4043254   7.315   0.987   2.625 -0.0960 -0.8474  0.0267
  528MOL    H4143255   7.230   0.981   2.478  1.5676 -1.5733  0.3375
  528MOL    C4243256   7.224   1.244   2.681 -0.1343  0.4335  0.1549
  528MOL    O4343257   7.272   1.196   2.805 -0.2189 -0.2004  0.3068
  528MOL    H4443258   7.135   1.307   2.688 -0.0172  0.7232 -0.8169
  528MOL    H4543259   7.307   1.302   2.640 -1.5402  1.8388 -0.7617
  528MOL    C4643260   7.168   1.162   2.891 -0.2365  0.1299  0.1190
  528MOL    O4743261   7.101   1.267   2.952 -0.1427  0.8913  0.4222
  528MOL    H4843262   7.198   1.087   2.964  0.6780  0.5116  0.1365
  528MOL    H4943263   7.095   1.100   2.839  1.4226 -1.0260 -0.8565
  528MOL    C5043264   7.193   1.318   3.053  0.5413  0.4190 -0.0570
  528MOL    O5143265   7.138   1.417   3.133  0.0306  0.2009 -0.1354
  528MOL    H5243266   7.284   1.346   3.001 -0.2508 -0.8791 -2.2388
  528MOL    H5343267   7.225   1.235   3.116  3.3620  0.4761 -1.3411
  528MOL    C5443268   7.032   1.371   3.211 -0.6446  0.4209  0.7828
  528MOL    O5543269   7.071   1.278   3.310 -0.0963  0.1850  0.1062
  528MOL    H5643270   6.961   1.327   3.140  0.9212  4.0316 -3.2231
  528MOL    H5743271   6.993   1.465   3.251  2.3377  2.2334 -0.4430
  528MOL    C5843272   7.162   1.326   3.403 -0.6205  0.6543 -0.0878
  528MOL    O5943273   7.298   1.326   3.360 -0.0637  0.6217  0.4099
  528MOL    H6043274   7.157   1.263   3.492 -1.4202  2.1845  0.9834
  528MOL    H6143275   7.141   1.428   3.436 -2.1543  0.7885 -1.4425
  528MOL    C6243276   7.354   1.203   3.356 -0.0249 -0.2409 -0.1090
  528MOL    O6343277   7.374   1.157   3.490 -0.7832 -0.2883 -0.0437
  528MOL    H6443278   7.455   1.196   3.315  0.2226 -0.7813  0.5833
  528MOL    H6543279   7.299   1.128   3.299 -0.1881  0.8998 -1.4907
  528MOL    C6643280   7.467   1.239   3.566  0.1986  0.2517  0.2472
  528MOL    O6743281   7.596   1.207   3.539  0.6016 -0.3031 -0.1171
  528MOL    H6843282   7.449   1.219   3.671  2.4901 -1.8801  0.2516
  528MOL    H6943283   7.450   1.346   3.552 -0.9727 -0.3432 -3.4020
  528MOL    C7043284   7.686   1.292   3.590 -0.4295 -0.2524 -0.3976
  528MOL    O7143285   7.709   1.403   3.519 -0.0417 -0.5089 -0.0981
  528MOL    H7243286   7.779   1.235   3.592 -0.1058  0.2890 -0.1060
  528MOL    H7343287   7.681   1.319   3.696 -2.2658  0.1952 -0.5807
  528MOL    C7443288   0.024   1.392   3.420 -0.3781  0.3299  0.4855
  528MOL    O7543289   0.156   1.377   3.481  0.5268 -0.3337  0.5940
  528MOL    H7643290   0.017   1.483   3.360 -1.4445 -0.0877 -0.0483
  528MOL    H7743291   7.781   1.316   3.347  1.4891  0.6632 -0.5789
  528MOL    C7843292   0.203   1.493   3.544 -0.1891 -0.4013  0.7131
  528MOL    O7943293   0.341   1.490   3.581  0.3668  0.2760 -0.1509
  528MOL    H8043294   0.142   1.519   3.631 -0.6898 -1.2065  0.5991
  528MOL    H8143295   0.203   1.588   3.490  1.6114 -1.1576 -0.6869
  528MOL    H8243296   0.391   1.468   3.504 -0.8740 -0.6605 -0.7036
  529MOL     C143297   4.894   6.936   4.404  0.1105  0.3226  0.0165
  529MOL     O243298   4.947   6.844   4.308  0.0657 -0.1202 -0.1471
  529MOL     H343299   4.857   7.020   4.345 -0.3293 -1.0505 -1.7351
  529MOL     H443300   4.799   6.902   4.446  0.9589 -1.3061  0.6635
  529MOL     H543301   4.966   6.963   4.481  0.2487  0.8904 -0.3109
  529MOL     C643302   4.960   6.725   4.372  0.3988  0.3863  0.0735
  529MOL     O743303   4.840   6.665   4.401  0.4928  0.2642  0.6387
  529MOL     H843304   5.011   6.743   4.467  1.5262  0.1165 -0.4667
  529MOL     H943305   5.020   6.656   4.313  0.1724  1.0246 -0.9013
  529MOL    C1043306   4.785   6.607   4.296 -0.1428 -0.0421  0.1726
  529MOL    O1143307   4.848   6.489   4.250 -0.1970  0.2536 -0.1626
  529MOL    H1243308   4.783   6.686   4.221  1.8839 -1.6705 -1.6514
  529MOL    H1343309   4.677   6.600   4.311 -0.6464  0.1942 -2.8825
  529MOL    C1443310   4.806   6.388   4.345  0.1982  0.6756  0.8136
  529MOL    O1543311   4.669   6.359   4.317  0.1407 -0.5224 -0.5240
  529MOL    H1643312   4.820   6.417   4.450  0.1513  0.3838  0.8997
  529MOL    H1743313   4.864   6.296   4.344  0.7223  0.9721  2.0768
  529MOL    C1843314   4.643   6.287   4.199  0.0542 -0.5951  0.7825
  529MOL    O1943315   4.706   6.167   4.202 -0.2378 -0.3373  0.0921
  529MOL    H2043316   4.699   6.339   4.121  0.7876 -2.7489 -0.1441
  529MOL    H2143317   4.536   6.282   4.179  0.1433 -0.6710  0.3101
  529MOL    C2243318   4.658   6.074   4.288 -0.5576 -0.0502  0.2981
  529MOL    O2343319   4.530   6.030   4.241 -0.5597 -0.5447  0.3949
  529MOL    H2443320   4.647   6.116   4.388  2.0055 -1.4696  1.2343
  529MOL    H2543321   4.730   5.992   4.294 -1.6983 -0.9686  2.3355
  529MOL    C2643322   4.531   5.990   4.104 -0.1742 -0.0984  0.1782
  529MOL    O2743323   4.404   5.944   4.069  0.0672 -0.1771 -0.1094
  529MOL    H2843324   4.598   5.904   4.094  0.1934  0.4292 -2.1383
  529MOL    H2943325   4.565   6.071   4.040 -1.1977  1.2062  1.2644
  529MOL    C3043326   4.301   6.040   4.058 -0.1177  0.4787 -0.8404
  529MOL    O3143327   4.287   6.104   3.936  0.2283 -0.8559  0.6583
  529MOL    H3243328   4.296   6.116   4.136 -0.4524 -2.3397  1.9825
  529MOL    H3343329   4.212   5.980   4.071  0.9837 -0.7363  1.4247
  529MOL    C3443330   4.267   6.016   3.827 -0.1266 -0.4189 -0.7490
  529MOL    O3543331   4.390   5.969   3.778  0.2699  0.1323 -0.0594
  529MOL    H3643332   4.217   6.073   3.749 -0.3779  1.9136  1.0552
  529MOL    H3743333   4.224   5.918   3.844  0.7404 -0.2008  3.2581
  529MOL    C3843334   4.460   6.065   3.698  0.4110  0.2889 -0.3866
  529MOL    O3943335   4.422   6.060   3.563 -0.4930 -0.1992 -0.1811
  529MOL    H4043336   4.565   6.044   3.718  0.5161  1.3304  0.2199
  529MOL    H4143337   4.436   6.162   3.742 -1.8402  0.0723 -1.0487
  529MOL    C4243338   4.477   5.948   3.495 -0.7443  0.5323 -0.6681
  529MOL    O4343339   4.615   5.966   3.471  0.4722 -0.3663 -0.4502
  529MOL    H4443340   4.417   5.940   3.404  0.1251  3.2690 -1.5572
  529MOL    H4543341   4.469   5.858   3.556 -1.4185  0.4924 -0.8185
  529MOL    C4643342   4.630   6.056   3.363  0.4204  0.4610  0.2715
  529MOL    O4743343   4.583   6.000   3.249  0.4537 -0.5664  0.1362
  529MOL    H4843344   4.734   6.086   3.353  0.7488 -1.2626 -1.7977
  529MOL    H4943345   4.568   6.144   3.381 -1.0281 -0.5827  0.5074
  529MOL    C5043346   4.671   5.906   3.194 -0.2578 -0.9887  0.8548
  529MOL    O5143347   4.780   5.972   3.122  0.6516 -0.0665  0.3683
  529MOL    H5243348   4.613   5.844   3.125  0.6110  1.1449 -1.8587
  529MOL    H5343349   4.710   5.847   3.276  2.2710  2.5964  2.3081
  529MOL    C5443350   4.733   6.056   3.023  0.0775 -0.2202  0.4743
  529MOL    O5543351   4.660   5.992   2.920 -0.0063  0.6897 -0.3039
  529MOL    H5643352   4.813   6.110   2.972 -1.5840  0.2609 -1.7592
  529MOL    H5743353   4.684   6.140   3.072 -0.3404 -0.7578  0.9773
  529MOL    C5843354   4.545   6.055   2.873 -0.5815 -0.2666  0.4575
  529MOL    O5943355   4.578   6.185   2.823  0.6640 -0.0588 -0.3935
  529MOL    H6043356   4.465   6.065   2.946 -1.3783  1.2032 -0.5984
  529MOL    H6143357   4.503   5.990   2.796 -0.8942 -1.1865  1.3836
  529MOL    C6243358   4.649   6.170   2.705 -0.3941  0.2500  0.3183
  529MOL    O6343359   4.661   6.292   2.641 -0.1368  0.2400  0.1722
  529MOL    H6443360   4.600   6.097   2.640 -2.9937  1.5510  0.7729
  529MOL    H6543361   4.754   6.139   2.710 -0.5251 -0.4302 -0.9020
  529MOL    C6643362   4.727   6.387   2.718 -0.1785  0.6077 -0.2805
  529MOL    O6743363   4.858   6.352   2.732 -0.0472 -0.5316  0.5872
  529MOL    H6843364   4.679   6.386   2.816 -2.9437 -1.0998 -1.6024
  529MOL    H6943365   4.718   6.485   2.671  0.0374  0.9264  0.3320
  529MOL    C7043366   4.951   6.460   2.717 -0.2787 -0.3608 -0.2059
  529MOL    O7143367   4.928   6.540   2.832  0.0664  0.3921 -0.0860
  529MOL    H7243368   4.930   6.514   2.625 -1.0667 -0.3898 -0.0470
  529MOL    H7343369   5.053   6.420   2.721 -0.5338 -0.9894  0.0824
  529MOL    C7443370   5.040   6.560   2.912  0.0578  0.1930  0.0961
  529MOL    O7543371   5.121   6.646   2.840 -0.1570  0.4006  1.1669
  529MOL    H7643372   5.099   6.476   2.949  2.3593  0.4945 -2.6998
  529MOL    H7743373   5.005   6.608   3.003 -2.0257  1.5175 -1.3754
  529MOL    C7843374   5.087   6.782   2.848  0.2840 -0.9211  0.4967
  529MOL    O7943375   5.099   6.840   2.975  0.4457  0.1426 -0.2768
  529MOL    H8043376   4.995   6.808   2.796  1.5000 -1.8421 -2.2257
  529MOL    H8143377   5.166   6.828   2.789 -2.7472 -1.8688 -4.5349
  529MOL    H8243378   5.185   6.879   2.972 -1.2008  4.0989  1.4768
  530MOL     C143379   0.116   2.945   5.866 -0.0161 -0.6722 -0.7498
  530MOL     O243380   0.096   2.853   5.760 -0.0171 -0.8638 -0.3459
  530MOL     H343381   0.131   2.888   5.957  1.6849 -0.0467 -0.6188
  530MOL     H443382   0.210   2.997   5.850 -0.5791  0.1464 -1.4773
  530MOL     H543383   0.039   3.022   5.865 -1.2465 -1.8729 -2.6367
  530MOL     C643384   7.754   2.793   5.766  0.6797 -0.4021 -0.3681
  530MOL     O743385   7.727   2.716   5.881  0.3335 -0.4890  0.3734
  530MOL     H843386   7.736   2.735   5.676 -0.8791  1.9141 -1.6001
  530MOL     H943387   7.683   2.876   5.765  0.5782 -0.4297  1.9323
  530MOL    C1043388   0.018   2.597   5.879 -0.8207 -0.3789  0.1213
  530MOL    O1143389   0.017   2.539   6.006  0.1756  0.2642 -0.0438
  530MOL    H1243390   0.122   2.616   5.853 -0.9909 -0.0896 -0.3649
  530MOL    H1343391   7.752   2.531   5.808 -1.9352  1.4471 -0.8591
  530MOL    C1443392   7.674   2.493   6.041 -0.2502  0.4741  0.9288
  530MOL    O1543393   7.630   2.379   5.969 -0.2334  0.2679  0.0486
  530MOL    H1643394   7.609   2.579   6.023  0.6139  0.5372 -2.1789
  530MOL    H1743395   7.673   2.460   6.145 -0.2272  1.3320  1.2025
  530MOL    C1843396   7.685   2.258   6.023  0.3445 -0.1160  0.3713
  530MOL    O1943397   7.616   2.221   6.143  0.2045  0.2133  0.4510
  530MOL    H2043398   0.010   2.257   6.031  0.6003  0.9064 -2.5198
  530MOL    H2143399   7.673   2.177   5.951  4.4394 -1.5159  1.1742
  530MOL    C2243400   7.483   2.187   6.114  0.0359 -0.8827  0.2140
  530MOL    O2343401   7.413   2.221   6.230 -0.4551 -0.8639 -0.0081
  530MOL    H2443402   7.476   2.080   6.091 -0.9961 -0.5517 -1.0673
  530MOL    H2543403   7.442   2.244   6.032  0.0846 -0.4399  0.4974
  530MOL    C2643404   7.367   2.352   6.242 -0.3957 -0.1233  0.5321
  530MOL    O2743405   7.251   2.372   6.167 -0.2815 -0.1051 -0.3485
  530MOL    H2843406   7.447   2.414   6.204 -0.4939 -0.9406 -1.0411
  530MOL    H2943407   7.347   2.368   6.348  1.9675  0.7480  0.8614
  530MOL    C3043408   7.137   2.325   6.222  0.0889  0.3528  0.0032
  530MOL    O3143409   7.077   2.413   6.319  0.1596 -0.4496 -0.0946
  530MOL    H3243410   7.156   2.231   6.274 -1.5324  0.3981  0.7224
  530MOL    H3343411   7.065   2.297   6.145  0.9831  3.0274 -1.8422
  530MOL    C3443412   7.032   2.526   6.267  0.4401  0.3063  0.1352
  530MOL    O3543413   6.962   2.499   6.149  0.5851  0.5216 -0.4220
  530MOL    H3643414   7.116   2.590   6.241 -1.3717  2.0550 -1.4839
  530MOL    H3743415   6.969   2.582   6.336  1.2424  0.5961  0.6370
  530MOL    C3843416   6.926   2.622   6.094  0.8500  0.3764  0.2971
  530MOL    O3943417   6.836   2.598   5.982 -0.8866 -0.7495 -0.1523
  530MOL    H4043418   7.004   2.693   6.066  0.7626  0.2588 -0.2501
  530MOL    H4143419   6.857   2.673   6.161  0.0258 -1.3335  0.7894
  530MOL    C4243420   6.907   2.552   5.873 -0.2782  0.6351  0.1217
  530MOL    O4343421   6.978   2.652   5.816 -0.2908  0.0836  0.5224
  530MOL    H4443422   6.836   2.505   5.804 -0.6965 -2.2430  2.3952
  530MOL    H4543423   6.973   2.469   5.895  0.5901  0.9659 -1.1595
  530MOL    C4643424   6.997   2.626   5.677 -0.1142 -0.9306  0.5151
  530MOL    O4743425   6.882   2.629   5.604 -0.2309 -0.4106 -0.1499
  530MOL    H4843426   7.040   2.526   5.666  0.0167 -0.9627  1.2798
  530MOL    H4943427   7.055   2.709   5.637 -1.6867 -0.1508 -0.2238
  530MOL    C5043428   6.912   2.619   5.467  0.1774 -0.2439 -0.3491
  530MOL    O5143429   6.969   2.493   5.436 -0.7658  0.5549 -0.2881
  530MOL    H5243430   6.977   2.694   5.422  1.1697  0.4660  2.1828
  530MOL    H5343431   6.818   2.621   5.411 -0.9348  0.0271  1.4645
  530MOL    C5443432   6.874   2.395   5.420 -0.4542  0.5783 -0.0116
  530MOL    O5543433   6.796   2.401   5.301 -0.0289  0.0692 -0.2892
  530MOL    H5643434   6.804   2.391   5.504 -0.6107  0.9092 -0.1249
  530MOL    H5743435   6.927   2.300   5.419  1.7866  1.8209 -0.8871
  530MOL    C5843436   6.877   2.369   5.196 -0.6582 -0.0631 -0.2979
  530MOL    O5943437   6.883   2.224   5.170  0.0432  0.1148 -0.5545
  530MOL    H6043438   6.979   2.405   5.209  0.0705 -2.2904  0.3949
  530MOL    H6143439   6.839   2.423   5.109 -1.4658 -2.6001 -1.5911
  530MOL    C6243440   6.972   2.195   5.061 -0.3196  0.0976  0.3545
  530MOL    O6343441   6.896   2.182   4.944 -0.4880 -0.5313  0.0419
  530MOL    H6443442   7.023   2.101   5.082  0.3285  0.5349  0.7673
  530MOL    H6543443   7.050   2.269   5.041 -0.0054 -0.0488  1.0190
  530MOL    C6643444   6.837   2.059   4.935 -0.3258  0.6263  0.4674
  530MOL    O6743445   6.921   1.957   4.895 -0.2772  0.4231  0.3992
  530MOL    H6843446   6.744   2.082   4.881  1.4159  0.0630 -2.8933
  530MOL    H6943447   6.789   2.037   5.030 -2.3231  0.5821 -0.5103
  530MOL    C7043448   6.988   1.978   4.774 -0.2385  0.7363  0.5015
  530MOL    O7143449   7.077   1.872   4.748 -0.1374 -0.0797 -0.3670
  530MOL    H7243450   7.035   2.076   4.765 -1.1132  1.3033  2.0340
  530MOL    H7343451   6.921   1.965   4.689  0.8190  1.3869 -0.4504
  530MOL    C7443452   7.197   1.889   4.824 -0.4962 -0.1332  0.1330
  530MOL    O7543453   7.258   2.004   4.777 -0.5513 -0.5616  0.5826
  530MOL    H7643454   7.260   1.800   4.819 -2.5145 -1.5897 -0.3273
  530MOL    H7743455   7.160   1.891   4.926  0.2662 -0.7349  0.4254
  530MOL    C7843456   7.314   1.962   4.659  0.3503 -0.0843  0.2963
  530MOL    O7943457   7.392   2.061   4.596 -0.3058  0.0896 -0.2186
  530MOL    H8043458   7.241   1.944   4.580  0.9979 -3.5882  0.4533
  530MOL    H8143459   7.375   1.872   4.666 -0.3716 -0.3990  3.2707
  530MOL    H8243460   7.335   2.134   4.577 -3.0534 -1.7946  0.4744
  531MOL     C143461   0.952   6.639   0.059 -0.6350 -0.3143 -0.0558
  531MOL     O243462   0.980   6.612   7.709  0.0125 -0.2534  0.5564
  531MOL     H343463   0.856   6.595   0.087 -0.7140  0.7591  1.4331
  531MOL     H443464   1.027   6.592   0.123 -0.7145  0.2871  0.4809
  531MOL     H543465   0.944   6.743   0.089  2.2217 -0.3211  0.7927
  531MOL     C643466   0.947   6.473   7.675  0.2963 -0.7521  0.0346
  531MOL     O743467   1.038   6.380   7.736  0.6290 -0.8556  0.0757
  531MOL     H843468   0.954   6.467   7.567  3.0036  1.5181  0.0150
  531MOL     H943469   0.852   6.427   7.701  1.1534 -3.3493 -1.3453
  531MOL    C1043470   1.169   6.394   7.685 -0.3856  0.1199 -0.8397
  531MOL    O1143471   1.195   6.317   7.567  0.1686 -0.1383 -0.5271
  531MOL    H1243472   1.235   6.367   7.769  0.0604 -1.3050 -1.6199
  531MOL    H1343473   1.200   6.494   7.657 -1.3395  0.4958 -0.5608
  531MOL    C1443474   1.188   6.176   7.592 -0.4726 -0.7131 -0.3997
  531MOL    O1543475   1.136   6.097   7.488  0.3275  0.9374  0.0615
  531MOL    H1643476   1.143   6.150   7.688 -2.7201  0.1901 -1.1832
  531MOL    H1743477   1.286   6.134   7.616  0.1540  0.9246 -0.0258
  531MOL    C1843478   1.004   6.138   7.454 -0.2630  0.1420  0.6033
  531MOL    O1943479   0.942   6.060   7.364 -0.0318 -0.4105  0.2883
  531MOL    H2043480   1.008   6.239   7.412  0.4537  0.5110  1.5277
  531MOL    H2143481   0.938   6.147   7.540 -2.0159 -1.1948 -0.5794
  531MOL    C2243482   1.015   6.035   7.249  0.0538  0.4392  0.0593
  531MOL    O2343483   0.935   5.947   7.170 -0.1713 -0.0163  0.3541
  531MOL    H2443484   1.107   5.982   7.274  0.2329  1.1207  0.8449
  531MOL    H2543485   1.038   6.122   7.188  0.0022  1.9054  2.0641
  531MOL    C2643486   0.819   6.016   7.118  0.0878 -0.2723 -0.2472
  531MOL    O2743487   0.846   6.117   7.022  0.3618  0.1813 -0.6347
  531MOL    H2843488   0.756   6.062   7.194 -0.1294  0.7733 -1.0527
  531MOL    H2943489   0.763   5.936   7.069  3.0704 -1.6335 -1.5949
  531MOL    C3043490   0.911   6.071   6.910  0.1580  0.4812  0.1613
  531MOL    O3143491   0.991   6.171   6.855  0.2519  0.2919 -0.1049
  531MOL    H3243492   0.835   6.032   6.842  0.2155  0.4119  0.1382
  531MOL    H3343493   0.973   5.987   6.941 -2.2086 -2.1355 -1.8973
  531MOL    C3443494   0.917   6.273   6.803  0.1770  0.1242 -0.1240
  531MOL    O3543495   0.825   6.238   6.708 -0.5936  0.4663  0.3975
  531MOL    H3643496   0.987   6.348   6.765  0.5353 -0.3478 -0.4094
  531MOL    H3743497   0.863   6.334   6.875  2.3520  0.0442  1.6093
  531MOL    C3843498   0.883   6.185   6.593  0.1396 -0.1764 -0.9949
  531MOL    O3943499   0.787   6.182   6.488  0.0403 -0.1950 -0.8017
  531MOL    H4043500   0.918   6.086   6.623  0.3261  0.9107  2.5816
  531MOL    H4143501   0.965   6.243   6.551  0.0744  0.2144 -0.5824
  531MOL    C4243502   0.666   6.117   6.532 -0.6069  0.2080 -0.1063
  531MOL    O4343503   0.582   6.093   6.420  0.1200  0.5931  0.3337
  531MOL    H4443504   0.610   6.165   6.612 -2.2993 -1.3763 -0.3161
  531MOL    H4543505   0.699   6.017   6.557  2.2355  1.0650 -0.1467
  531MOL    C4643506   0.548   6.207   6.347  0.7711 -0.3866 -0.5866
  531MOL    O4743507   0.415   6.199   6.339  0.1520 -0.3919 -0.0024
  531MOL    H4843508   0.594   6.190   6.250  1.0799 -0.7190 -0.3851
  531MOL    H4943509   0.575   6.303   6.391  2.6099  0.1243 -2.7158
  531MOL    C5043510   0.352   6.227   6.461 -0.3419 -0.1990 -0.1201
  531MOL    O5143511   0.349   6.363   6.497  0.0671 -0.6095  0.1723
  531MOL    H5243512   0.390   6.173   6.548  1.1447 -0.7687 -1.1010
  531MOL    H5343513   0.250   6.191   6.451 -0.2861 -0.7858  1.2193
  531MOL    C5443514   0.236   6.432   6.439  0.3089  0.1891  0.3534
  531MOL    O5543515   0.121   6.401   6.517  0.2062 -0.6437 -0.1613
  531MOL    H5643516   0.213   6.400   6.338  0.3812  0.1775  0.3411
  531MOL    H5743517   0.259   6.539   6.442 -2.0405  0.6974  0.8429
  531MOL    C5843518   0.001   6.443   6.456 -0.1032  0.1152  1.0313
  531MOL    O5943519   7.747   6.380   6.339 -0.4024 -0.2233 -0.3493
  531MOL    H6043520   7.780   6.551   6.440  0.2856 -0.1092 -0.7043
  531MOL    H6143521   7.710   6.430   6.535  0.0749 -2.0212  0.8793
  531MOL    C6243522   7.694   6.254   6.368 -0.6981 -0.3610 -0.0024
  531MOL    O6343523   7.688   6.177   6.250 -0.5936 -0.0933  0.2283
  531MOL    H6443524   7.595   6.254   6.414 -1.0662  1.4035 -0.7322
  531MOL    H6543525   7.762   6.206   6.439  2.4813  2.8082 -0.7692
  531MOL    C6643526   0.027   6.120   6.211 -0.3591  0.0173 -0.4850
  531MOL    O6743527   0.118   6.218   6.180 -0.3720 -0.5678  0.4029
  531MOL    H6843528   7.782   6.063   6.123 -0.4968  0.1477 -0.5232
  531MOL    H6943529   0.055   6.049   6.289  1.7421  0.7323 -0.5380
  531MOL    C7043530   0.096   6.290   6.072  0.3294 -0.6559 -0.5250
  531MOL    O7143531   0.116   6.212   5.959  0.0101 -0.0531  0.3052
  531MOL    H7243532   0.150   6.384   6.061 -0.5685 -0.1242 -0.4263
  531MOL    H7343533   7.776   6.325   6.077  0.4271 -0.3410 -0.7400
  531MOL    C7443534   0.258   6.188   5.936 -0.2816 -0.2505  0.4484
  531MOL    O7543535   0.324   6.290   5.867  0.1287 -0.2519 -0.2693
  531MOL    H7643536   0.262   6.101   5.870  0.1079  0.4248 -0.4413
  531MOL    H7743537   0.314   6.156   6.023 -1.5992 -1.6455  0.8088
  531MOL    C7843538   0.465   6.276   5.869 -0.0422 -1.1051 -0.0398
  531MOL    O7943539   0.534   6.384   5.808 -0.3887  0.5946 -0.3166
  531MOL    H8043540   0.471   6.189   5.804 -1.5790 -0.0177 -1.6780
  531MOL    H8143541   0.503   6.259   5.970 -1.4478 -2.1273  0.3411
  531MOL    H8243542   0.553   6.446   5.877  0.6064 -1.5667  1.3900
  532MOL     C143543   5.694   5.749   3.611 -0.5173 -0.0642 -0.5665
  532MOL     O243544   5.595   5.649   3.583 -0.5132  0.5561  0.0426
  532MOL     H343545   5.658   5.852   3.622  0.1274  0.1322 -0.2960
  532MOL     H443546   5.748   5.726   3.702  1.2230  0.0085 -1.5695
  532MOL     H543547   5.771   5.760   3.535  1.6766 -0.6079  1.5409
  532MOL     C643548   5.526   5.675   3.466  0.3520 -0.4402  0.0412
  532MOL     O743549   5.606   5.662   3.347  0.3510 -0.1791 -0.0958
  532MOL     H843550   5.497   5.780   3.465 -0.7958 -0.7539 -0.3017
  532MOL     H943551   5.433   5.619   3.478  0.3737 -0.5153 -0.1401
  532MOL    C1043552   5.595   5.537   3.290 -0.1332  0.2951  0.6486
  532MOL    O1143553   5.468   5.519   3.248  0.2853  0.1175  0.1251
  532MOL    H1243554   5.620   5.470   3.372 -1.8915 -0.3111  0.6931
  532MOL    H1343555   5.679   5.510   3.225 -0.0468 -0.8203  1.2153
  532MOL    C1443556   5.452   5.561   3.118 -0.4598 -0.1597  0.2024
  532MOL    O1543557   5.510   5.468   3.026  0.5523  0.1767 -0.9102
  532MOL    H1643558   5.494   5.660   3.108  0.1161 -0.4732 -0.5141
  532MOL    H1743559   5.345   5.577   3.103 -0.7466  0.0989  2.3572
  532MOL    C1843560   5.462   5.496   2.897  0.5436 -0.3451 -0.1648
  532MOL    O1943561   5.556   5.569   2.822 -0.3105 -0.0031  0.1570
  532MOL    H2043562   5.369   5.551   2.908  1.1218  0.6199 -0.1068
  532MOL    H2143563   5.434   5.405   2.844 -0.8241 -0.3428  0.5466
  532MOL    C2243564   5.665   5.499   2.779 -0.3924  0.0406  0.1416
  532MOL    O2343565   5.622   5.428   2.664 -0.0102  0.2200  0.3023
  532MOL    H2443566   5.720   5.437   2.850 -0.0367 -0.3805 -0.4902
  532MOL    H2543567   5.732   5.578   2.745  0.1903  0.1058  1.4140
  532MOL    C2643568   5.716   5.356   2.595 -0.4360  0.4441  0.5777
  532MOL    O2743569   5.667   5.281   2.485  0.1208 -0.0645  0.0476
  532MOL    H2843570   5.771   5.291   2.664 -0.4560 -0.0498  0.1350
  532MOL    H2943571   5.781   5.428   2.546  0.5374  0.0478  1.2574
  532MOL    C3043572   5.586   5.171   2.514  0.0375 -0.1134 -0.0787
  532MOL    O3143573   5.659   5.047   2.521 -0.5908  0.6248  0.0208
  532MOL    H3243574   5.510   5.171   2.436  1.4224 -1.1098 -1.4653
  532MOL    H3343575   5.525   5.187   2.603  2.0691  2.0958  0.9878
  532MOL    C3443576   5.722   5.013   2.398 -0.4564 -0.4462 -0.1094
  532MOL    O3543577   5.637   5.008   2.282  0.0641 -0.0482 -0.1887
  532MOL    H3643578   5.783   4.926   2.422  1.0144  1.5221  3.8251
  532MOL    H3743579   5.792   5.096   2.399  2.0530 -2.5234  0.7156
  532MOL    C3843580   5.541   4.911   2.277 -0.2522  0.0160 -0.7088
  532MOL    O3943581   5.460   4.921   2.165  0.4793  0.0711 -0.3623
  532MOL    H4043582   5.493   4.904   2.375  0.8341 -1.9041 -0.2868
  532MOL    H4143583   5.596   4.818   2.263  2.4672  1.4157  0.2458
  532MOL    C4243584   5.530   4.898   2.045  0.1621 -0.4645  0.0967
  532MOL    O4343585   5.537   4.756   2.020  0.4783 -0.5309  0.3027
  532MOL    H4443586   5.634   4.928   2.047 -0.3400  1.2627  0.7716
  532MOL    H4543587   5.485   4.952   1.961  2.8623 -0.6990 -1.5658
  532MOL    C4643588   5.410   4.709   2.018  0.2580 -0.0478 -0.0148
  532MOL    O4743589   5.394   4.586   1.955 -0.6447 -0.0426 -0.1384
  532MOL    H4843590   5.336   4.773   1.969  1.1906 -0.3887 -1.9359
  532MOL    H4943591   5.378   4.689   2.120  2.1726  0.2667  0.6629
  532MOL    C5043592   5.406   4.595   1.812 -0.2785 -0.6787 -0.1377
  532MOL    O5143593   5.298   4.668   1.754 -0.2960 -0.0761  0.1872
  532MOL    H5243594   5.403   4.491   1.779  1.0222 -0.4118 -1.1519
  532MOL    H5343595   5.501   4.641   1.782 -1.8844  3.5518  0.9204
  532MOL    C5443596   5.308   4.670   1.609 -0.1043 -0.1250 -0.7893
  532MOL    O5543597   5.284   4.550   1.549 -0.4727 -0.0670 -0.6216
  532MOL    H5643598   5.408   4.699   1.578  0.4418 -0.4824  0.5917
  532MOL    H5743599   5.238   4.746   1.573 -0.3240 -0.4739 -1.0885
  532MOL    C5843600   5.151   4.505   1.560  0.1889 -0.3206 -0.5093
  532MOL    O5943601   5.059   4.577   1.495  0.6519  0.1613 -0.0794
  532MOL    H6043602   5.111   4.493   1.661 -0.5992  0.4705 -0.7283
  532MOL    H6143603   5.139   4.405   1.518 -3.6251  0.4249 -1.3676
  532MOL    C6243604   5.068   4.582   1.352  0.1456  0.0607  0.5458
  532MOL    O6343605   4.997   4.476   1.293  0.4942 -0.5360  0.3651
  532MOL    H6443606   5.170   4.570   1.316  0.4589  1.2432  1.0191
  532MOL    H6543607   5.024   4.675   1.316 -1.2683 -0.7871  0.0582
  532MOL    C6643608   4.993   4.484   1.152 -0.5841  0.5819 -0.1463
  532MOL    O6743609   4.867   4.463   1.102  0.0812  0.0844 -0.2137
  532MOL    H6843610   5.056   4.402   1.118 -3.2796 -1.0583 -1.3068
  532MOL    H6943611   5.027   4.579   1.112 -1.2267  0.5891 -0.6770
  532MOL    C7043612   4.767   4.548   1.153  0.7405 -0.6842 -0.0432
  532MOL    O7143613   4.795   4.678   1.120 -0.5750  0.3497  0.2659
  532MOL    H7243614   4.763   4.540   1.261  0.4663 -0.4928 -0.0398
  532MOL    H7343615   4.667   4.515   1.124 -0.3729  1.9169  0.6693
  532MOL    C7443616   4.702   4.769   1.182 -0.5110  0.3172  0.0420
  532MOL    O7543617   4.579   4.754   1.124  0.3747  0.0207  0.2513
  532MOL    H7643618   4.742   4.866   1.152 -2.3419  0.7168 -1.1604
  532MOL    H7743619   4.692   4.762   1.290 -1.7011 -0.9221 -0.1401
  532MOL    C7843620   4.520   4.868   1.076  0.1131  0.2719 -0.5707
  532MOL    O7943621   4.392   4.844   1.011  0.3734  0.5574 -0.1913
  532MOL    H8043622   4.579   4.926   1.005  0.1366 -1.4429 -1.9998
  532MOL    H8143623   4.488   4.933   1.158  1.0451 -0.6267  0.5082
  532MOL    H8243624   4.363   4.758   1.038  2.6500 -0.6198 -1.3317
  533MOL     C143625   1.830   3.433   5.230  0.0417 -0.3592 -0.3841
  533MOL     O243626   1.968   3.467   5.268  0.1646  0.1903 -0.7393
  533MOL     H343627   1.815   3.326   5.236 -3.2621  0.1043  0.2456
  533MOL     H443628   1.759   3.499   5.280 -0.0368 -0.8194  0.1139
  533MOL     H543629   1.810   3.458   5.126 -3.0376 -0.4822  0.1465
  533MOL     C643630   1.999   3.598   5.231 -0.2868  0.2225 -0.2848
  533MOL     O743631   2.028   3.611   5.100  0.1733  0.3376 -0.0411
  533MOL     H843632   2.087   3.624   5.290 -0.4049  1.5007 -0.6486
  533MOL     H943633   1.920   3.668   5.258  0.6958  1.0587  0.4450
  533MOL    C1043634   2.128   3.526   5.063  0.3941  0.4085  0.4594
  533MOL    O1143635   2.254   3.580   5.102  0.2138  0.4005 -0.2436
  533MOL    H1243636   2.124   3.514   4.955  0.6493  1.0594  0.3745
  533MOL    H1343637   2.112   3.422   5.091 -0.9525  0.6302  0.5090
  533MOL    C1443638   2.357   3.510   5.041 -0.4812 -0.0904  0.0370
  533MOL    O1543639   2.366   3.379   5.089  0.3909  0.1018 -0.7635
  533MOL    H1643640   2.450   3.560   5.067  0.7767 -1.6519 -1.3187
  533MOL    H1743641   2.340   3.520   4.933  0.5978 -0.5131 -0.1755
  533MOL    C1843642   2.416   3.367   5.223 -0.2317 -0.2939  0.6144
  533MOL    O1943643   2.556   3.370   5.222  0.0892 -0.4084 -0.6709
  533MOL    H2043644   2.385   3.269   5.259 -1.7829  0.1515  0.5089
  533MOL    H2143645   2.376   3.438   5.294  1.2082 -0.4406  1.6071
  533MOL    C2243646   2.613   3.245   5.182 -0.0318  0.2824  0.7506
  533MOL    O2343647   2.604   3.151   5.288  0.6274  0.0334  0.0634
  533MOL    H2443648   2.720   3.258   5.163 -0.0415 -0.1073  0.4321
  533MOL    H2543649   2.568   3.200   5.094 -1.8028  1.8969  0.8042
  533MOL    C2643650   2.680   3.189   5.400 -0.6680 -0.0400 -0.3520
  533MOL    O2743651   2.656   3.103   5.508 -0.2900  0.1852  0.3920
  533MOL    H2843652   2.650   3.288   5.434  1.7633  0.1084  1.4991
  533MOL    H2943653   2.785   3.209   5.383 -0.5399  0.4263  0.9343
  533MOL    C3043654   2.742   2.995   5.512  0.2498  0.4244 -0.0693
  533MOL    O3143655   2.872   3.028   5.559  0.5405 -0.5554  0.1344
  533MOL    H3243656   2.752   2.949   5.414  1.2503 -0.9461  0.6527
  533MOL    H3343657   2.698   2.915   5.572  0.9771 -1.9016 -2.5021
  533MOL    C3443658   2.868   3.059   5.696  0.3255  0.2490  0.3041
  533MOL    O3543659   2.846   2.947   5.770  0.0681 -0.1483  0.1961
  533MOL    H3643660   2.786   3.127   5.723  0.6909  0.8918 -0.1817
  533MOL    H3743661   2.962   3.110   5.714  0.0992  1.0376 -0.6999
  533MOL    C3843662   2.954   2.863   5.756  0.0993 -0.2747 -0.2337
  533MOL    O3943663   2.923   2.733   5.805 -0.2055 -0.3959  0.2278
  533MOL    H4043664   3.034   2.905   5.818 -0.5896 -1.1128  1.2480
  533MOL    H4143665   2.984   2.860   5.651  0.2386 -0.3916 -0.1911
  533MOL    C4243666   2.802   2.682   5.764 -0.4940  0.1562  0.3615
  533MOL    O4343667   2.807   2.626   5.631 -0.5992 -0.0695 -0.2819
  533MOL    H4443668   2.731   2.764   5.766 -0.7107 -0.0194 -0.1084
  533MOL    H4543669   2.777   2.610   5.842  1.3542 -0.4005  0.4597
  533MOL    C4643670   2.703   2.540   5.599 -0.3482  0.1682  0.4548
  533MOL    O4743671   2.578   2.602   5.610  0.1007 -0.3026 -0.5985
  533MOL    H4843672   2.724   2.463   5.674 -2.0261  0.9251  1.7562
  533MOL    H4943673   2.713   2.505   5.496  0.3138 -2.5215  1.3829
  533MOL    C5043674   2.470   2.515   5.634 -0.8340 -1.1898 -0.4476
  533MOL    O5143675   2.478   2.477   5.768  0.1107  0.3957  0.0261
  533MOL    H5243676   2.482   2.432   5.565 -2.2033 -0.7368 -1.2311
  533MOL    H5343677   2.376   2.556   5.598 -0.3647  2.2909  1.9851
  533MOL    C5443678   2.417   2.565   5.857  0.0720 -0.1645 -0.5582
  533MOL    O5543679   2.280   2.558   5.844 -0.0648  1.0648 -0.2475
  533MOL    H5643680   2.465   2.663   5.849  1.5590 -0.9565 -1.5287
  533MOL    H5743681   2.440   2.534   5.959  0.3462  1.7561 -0.0098
  533MOL    C5843682   2.223   2.687   5.832 -0.3317  0.7047 -0.1407
  533MOL    O5943683   2.225   2.752   5.960  0.4084 -0.5564  0.3061
  533MOL    H6043684   2.118   2.676   5.801 -0.6803 -2.4046  1.9546
  533MOL    H6143685   2.259   2.749   5.749  0.7939  0.1526 -0.0726
  533MOL    C6243686   2.184   2.885   5.948  0.4909  0.6226  0.2758
  533MOL    O6343687   2.063   2.892   5.890 -0.2347 -0.0087  0.3761
  533MOL    H6443688   2.254   2.935   5.881  0.6744  0.6975  0.5241
  533MOL    H6543689   2.182   2.934   6.045 -0.3707  1.0184  0.0594
  533MOL    C6643690   1.957   2.832   5.973 -0.1699  0.3278 -0.1356
  533MOL    O6743691   1.848   2.798   5.894 -0.2892  0.4308  0.2885
  533MOL    H6843692   1.930   2.895   6.058  0.4040  0.7096 -0.2302
  533MOL    H6943693   1.986   2.734   6.012  1.9747 -0.0847 -2.5733
  533MOL    C7043694   1.748   2.892   5.889 -0.6222 -0.6761 -0.3085
  533MOL    O7143695   1.651   2.869   5.986  0.1782  0.3763 -0.0730
  533MOL    H7243696   1.687   2.887   5.798 -4.1291 -1.9392  1.9831
  533MOL    H7343697   1.785   2.994   5.897 -0.0816 -0.9802  1.1825
  533MOL    C7443698   1.566   2.986   6.001  0.3089  0.8308 -0.3673
  533MOL    O7543699   1.483   3.010   5.892 -0.1213 -0.0582 -0.7704
  533MOL    H7643700   1.620   3.078   6.021 -0.3193  1.0695  0.2302
  533MOL    H7743701   1.501   2.967   6.086  1.5279  0.9084  0.5982
  533MOL    C7843702   1.393   2.906   5.860 -0.5547 -0.1423  0.7072
  533MOL    O7943703   1.319   2.931   5.738 -0.0623  0.7579 -0.5813
  533MOL    H8043704   1.324   2.887   5.942  0.7817 -1.9152  1.4660
  533MOL    H8143705   1.454   2.815   5.854 -2.1943 -1.1305 -2.6213
  533MOL    H8243706   1.279   3.016   5.732 -1.1506  0.3058  0.1766
  534MOL     C143707   2.795   1.653   3.027  0.2016  0.8706 -0.0596
  534MOL     O243708   2.720   1.692   2.911  0.0924 -0.0138 -0.7702
  534MOL     H343709   2.805   1.545   3.025  1.3314  0.9717 -0.5919
  534MOL     H443710   2.887   1.710   3.013  1.3841 -0.3185  2.5356
  534MOL     H543711   2.738   1.690   3.112  0.2060 -1.4130  0.9837
  534MOL     C643712   2.684   1.826   2.905  0.4476  0.2949  0.7892
  534MOL     O743713   2.589   1.855   3.003  0.0384 -0.5528  0.3224
  534MOL     H843714   2.645   1.845   2.804  0.2783 -0.0185  0.7912
  534MOL     H943715   2.776   1.882   2.920  0.7812  0.1517 -0.5940
  534MOL    C1043716   2.477   1.776   2.995  0.2973 -0.0325  0.7452
  534MOL    O1143717   2.480   1.680   3.090  0.2869  0.6406  0.2878
  534MOL    H1243718   2.476   1.726   2.898  3.1984  2.6479 -0.7987
  534MOL    H1343719   2.389   1.840   3.005  1.3108  2.0251 -2.5024
  534MOL    C1443720   2.487   1.737   3.219  0.1632  0.4426 -0.1130
  534MOL    O1543721   2.377   1.822   3.236  0.3365  1.0199  0.2258
  534MOL    H1643722   2.580   1.794   3.224 -0.3229  1.1175  2.0871
  534MOL    H1743723   2.497   1.664   3.299 -1.8381  2.0962  1.7134
  534MOL    C1843724   2.388   1.917   3.345  0.8549  0.4597  0.1293
  534MOL    O1943725   2.411   1.849   3.462 -0.0179  0.0612 -0.1592
  534MOL    H2043726   2.295   1.973   3.336  1.4059  1.2307 -0.8707
  534MOL    H2143727   2.476   1.981   3.335 -0.9043  2.9315 -0.0338
  534MOL    C2243728   2.303   1.826   3.538  0.4166 -0.3099  0.2241
  534MOL    O2343729   2.248   1.944   3.588 -0.4358  0.1638 -0.4273
  534MOL    H2443730   2.346   1.761   3.615  0.8158  0.9631  1.1019
  534MOL    H2543731   2.225   1.762   3.498 -1.0281 -0.3679  3.0332
  534MOL    C2643732   2.308   1.986   3.707  0.0628  1.1072  0.4234
  534MOL    O2743733   2.293   1.892   3.808  0.3521  0.4435  0.0385
  534MOL    H2843734   2.257   2.077   3.737  1.3954  1.7983  0.6548
  534MOL    H2943735   2.413   2.013   3.697  0.6758 -0.6075  1.9025
  534MOL    C3043736   2.161   1.875   3.842 -0.6067  0.6795 -0.4190
  534MOL    O3143737   2.127   1.986   3.928  0.2428  0.7231  0.0852
  534MOL    H3243738   2.158   1.782   3.899  0.4449  1.1516  0.4220
  534MOL    H3343739   2.096   1.859   3.756 -1.0373 -0.3462  0.0852
  534MOL    C3443740   2.181   1.975   4.059 -0.0674 -0.5923 -0.0313
  534MOL    O3543741   2.134   1.870   4.129 -0.2700  0.6150 -0.5609
  534MOL    H3643742   2.169   2.076   4.099  2.4969 -1.1807  2.4339
  534MOL    H3743743   2.288   1.963   4.039 -0.3228 -2.0366 -0.5455
  534MOL    C3843744   2.003   1.885   4.185  0.1710  0.5620 -0.3214
  534MOL    O3943745   1.996   1.956   4.300  1.3482  0.1300  0.1572
  534MOL    H4043746   1.967   1.786   4.214  1.3180 -0.1527 -1.3179
  534MOL    H4143747   1.925   1.922   4.119 -0.1864 -0.0725 -0.2558
  534MOL    C4243748   2.070   1.894   4.403 -0.5785  0.9216 -0.7051
  534MOL    O4343749   2.068   1.979   4.521  0.7616 -0.4650  0.0723
  534MOL    H4443750   2.172   1.887   4.366 -0.4598 -3.1400  0.1555
  534MOL    H4543751   2.030   1.796   4.427  0.2350  0.9413  0.7461
  534MOL    C4643752   1.930   2.005   4.559 -0.5426 -0.1436  0.6340
  534MOL    O4743753   1.914   2.073   4.682 -0.2937  0.2095 -0.0493
  534MOL    H4843754   1.877   1.909   4.560 -2.7144  1.0326  1.3224
  534MOL    H4943755   1.878   2.062   4.482  1.3136 -0.9025 -1.2213
  534MOL    C5043756   1.986   2.194   4.698 -0.2157 -0.5148  1.0529
  534MOL    O5143757   1.945   2.277   4.588  0.6326  0.2937 -0.2950
  534MOL    H5243758   2.092   2.172   4.685 -0.5414 -0.4331 -2.0693
  534MOL    H5343759   1.968   2.232   4.798 -1.3966 -1.1843  1.0986
  534MOL    C5443760   2.042   2.363   4.533 -0.4207 -0.0894 -0.1333
  534MOL    O5543761   2.098   2.303   4.416  0.0213  0.5880 -0.0208
  534MOL    H5643762   2.119   2.387   4.606  1.1127 -0.9210 -1.4389
  534MOL    H5743763   1.992   2.456   4.505 -1.5834 -1.1663 -1.7252
  534MOL    C5843764   2.001   2.287   4.317  0.4029 -0.4515 -0.5985
  534MOL    O5943765   1.998   2.409   4.246  0.2699  0.3979 -0.0438
  534MOL    H6043766   1.904   2.251   4.350  1.2239 -1.7211  0.5070
  534MOL    H6143767   2.051   2.214   4.254  2.2825  0.4739 -0.2157
  534MOL    C6243768   1.872   2.472   4.233  0.6669  0.2533 -0.2671
  534MOL    O6343769   1.837   2.545   4.347  0.3001 -0.3243 -0.3504
  534MOL    H6443770   1.795   2.399   4.205 -0.1845  1.3703 -0.8653
  534MOL    H6543771   1.878   2.539   4.148  1.4914 -0.3755 -0.7138
  534MOL    C6643772   1.912   2.668   4.355  0.0064 -0.3255  0.0187
  534MOL    O6743773   1.817   2.766   4.322 -0.2524 -0.2501 -0.4708
  534MOL    H6843774   1.997   2.672   4.287  0.6578  1.0864  0.9194
  534MOL    H6943775   1.949   2.705   4.450 -0.7169  2.0377 -0.5951
  534MOL    C7043776   1.726   2.794   4.422 -0.4958 -0.7115  0.1702
  534MOL    O7143777   1.776   2.880   4.524 -0.4152 -0.0244  0.2511
  534MOL    H7243778   1.683   2.702   4.464 -0.4293 -1.0376 -0.4693
  534MOL    H7343779   1.637   2.839   4.377 -0.2875 -0.7039 -0.2291
  534MOL    C7443780   1.817   3.010   4.480 -0.2873 -0.3018 -0.2401
  534MOL    O7543781   1.715   3.085   4.430 -0.1187 -0.0179 -0.2533
  534MOL    H7643782   1.905   3.006   4.416 -0.8898  1.5150 -1.2102
  534MOL    H7743783   1.845   3.056   4.575 -3.4256  2.7366 -0.7082
  534MOL    C7843784   1.618   3.116   4.531  0.2203 -1.2190 -0.2883
  534MOL    O7943785   1.515   3.187   4.473 -0.5000 -0.2623 -0.4664
  534MOL    H8043786   1.656   3.189   4.602  0.7329  2.5622 -4.2076
  534MOL    H8143787   1.589   3.029   4.589  0.2507 -1.5420 -0.7611
  534MOL    H8243788   1.540   3.278   4.464 -1.1227 -0.0624 -0.2125
  535MOL     C143789   1.520   3.453   1.405  0.2814  0.3734  0.1378
  535MOL     O243790   1.531   3.442   1.549 -0.1857 -0.1822 -0.1960
  535MOL     H343791   1.617   3.482   1.365  0.3191  2.8231  1.9062
  535MOL     H443792   1.504   3.357   1.356  1.4585  1.0518 -1.5960
  535MOL     H543793   1.455   3.534   1.371  0.0452 -1.3024 -3.7364
  535MOL     C643794   1.406   3.416   1.602 -0.4790 -0.4161 -0.2561
  535MOL     O743795   1.317   3.522   1.576  0.9598  0.0852  0.0712
  535MOL     H843796   1.425   3.416   1.709  0.2452 -1.7487 -0.3748
  535MOL     H943797   1.381   3.315   1.568  0.8547 -0.6610 -0.5485
  535MOL    C1043798   1.196   3.502   1.635  0.8971  0.4291 -0.3368
  535MOL    O1143799   1.127   3.397   1.574 -0.5737 -0.1964 -0.0411
  535MOL    H1243800   1.141   3.595   1.629  2.0085  1.1654  0.6506
  535MOL    H1343801   1.208   3.478   1.741  2.3915 -2.6274 -1.1170
  535MOL    C1443802   1.008   3.362   1.635  0.4971 -0.4118 -0.3628
  535MOL    O1543803   0.915   3.464   1.634 -0.2087 -0.3513  0.0932
  535MOL    H1643804   1.021   3.321   1.735 -0.4214  0.0580 -0.0401
  535MOL    H1743805   0.978   3.275   1.576  1.8486  0.0932 -1.7947
  535MOL    C1843806   0.861   3.469   1.504  0.4222  0.1306  0.2665
  535MOL    O1943807   0.759   3.373   1.478  0.0835 -0.4194  0.2150
  535MOL    H2043808   0.940   3.462   1.429  2.6535  1.8196  2.3867
  535MOL    H2143809   0.807   3.563   1.494 -1.7980 -1.0083  1.1846
  535MOL    C2243810   0.736   3.358   1.342  0.0114 -0.0959 -0.3099
  535MOL    O2343811   0.850   3.294   1.280 -0.7891 -0.2060 -0.4205
  535MOL    H2443812   0.718   3.452   1.290 -0.5782 -0.6805 -1.1870
  535MOL    H2543813   0.648   3.294   1.333 -0.1687  0.2968 -1.4519
  535MOL    C2643814   0.849   3.150   1.297 -0.4842 -0.6825 -0.3207
  535MOL    O2743815   0.758   3.085   1.214  0.0908  0.1951 -0.1291
  535MOL    H2843816   0.819   3.124   1.398  1.9907 -0.1734  0.5748
  535MOL    H2943817   0.952   3.115   1.282 -0.5521 -0.8963 -0.2945
  535MOL    C3043818   0.803   3.078   1.081 -0.2683 -0.1123  0.2155
  535MOL    O3143819   0.885   2.968   1.058 -0.1123 -0.5960  0.4154
  535MOL    H3243820   0.858   3.169   1.059  0.4784 -1.0362 -1.7589
  535MOL    H3343821   0.721   3.077   1.009  0.7037 -0.1482 -0.9056
  535MOL    C3443822   0.803   2.854   1.037  0.9133 -0.3450 -0.5361
  535MOL    O3543823   0.757   2.857   0.909  0.0474  0.1484  0.4923
  535MOL    H3643824   0.718   2.830   1.100  0.2722 -0.3288 -1.3853
  535MOL    H3743825   0.868   2.772   1.065 -1.1349 -1.9309 -0.3081
  535MOL    C3843826   0.845   2.812   0.813 -0.8602 -0.5115 -0.7018
  535MOL    O3943827   0.872   2.680   0.825  0.3869  0.2999  0.2902
  535MOL    H4043828   0.931   2.879   0.823 -2.3243  1.0544  1.7011
  535MOL    H4143829   0.802   2.824   0.713  1.3511 -2.0906 -1.8834
  535MOL    C4243830   0.763   2.599   0.790  0.2365  0.3665  0.2305
  535MOL    O4343831   0.746   2.590   0.648  0.7833 -0.0412 -0.0739
  535MOL    H4443832   0.673   2.634   0.841 -1.0785 -1.4544 -0.7842
  535MOL    H4543833   0.791   2.506   0.840  1.9615  0.9609  0.3893
  535MOL    C4643834   0.678   2.482   0.606  0.4219  0.3876  0.3982
  535MOL    O4743835   0.555   2.466   0.675  0.1792  0.1214  0.2905
  535MOL    H4843836   0.736   2.390   0.613  0.6719  0.7488  3.7854
  535MOL    H4943837   0.661   2.489   0.498 -0.2899 -1.6583  0.3612
  535MOL    C5043838   0.468   2.572   0.645 -1.2069  0.4767  0.0346
  535MOL    O5143839   0.340   2.521   0.674 -0.9939 -0.6106  0.1285
  535MOL    H5243840   0.469   2.594   0.539  0.2020  0.3644  0.0174
  535MOL    H5343841   0.494   2.661   0.702  0.7324  0.0914 -0.2303
  535MOL    C5443842   0.280   2.450   0.565 -0.2502  0.0089  0.1007
  535MOL    O5543843   0.345   2.332   0.523  0.1161 -0.2620 -0.5891
  535MOL    H5643844   0.259   2.521   0.485  2.2108 -1.3780 -1.8384
  535MOL    H5743845   0.180   2.424   0.601 -0.5631  1.3820  0.2496
  535MOL    C5843846   0.322   2.226   0.611  0.2388  0.5427 -1.0275
  535MOL    O5943847   0.414   2.124   0.584 -0.1298  0.5920 -0.0163
  535MOL    H6043848   0.228   2.176   0.590  0.9939 -0.9201 -0.9902
  535MOL    H6143849   0.331   2.254   0.716 -0.6596 -0.2862 -0.7305
  535MOL    C6243850   0.519   2.119   0.682  0.1609  0.3324  0.1993
  535MOL    O6343851   0.618   2.020   0.648  0.1787 -0.6143 -0.6735
  535MOL    H6443852   0.480   2.095   0.781 -1.5380  1.4231 -0.1986
  535MOL    H6543853   0.567   2.216   0.695 -2.3079  1.5418  0.3711
  535MOL    C6643854   0.667   2.045   0.517  0.7637  0.0689  0.2852
  535MOL    O6743855   0.769   2.136   0.524  0.3399  0.1120  0.0856
  535MOL    H6843856   0.597   2.083   0.443  1.2053  1.4405  0.5526
  535MOL    H6943857   0.709   1.951   0.483 -0.4273 -0.2596 -0.3084
  535MOL    C7043858   0.888   2.090   0.574 -0.8855  0.3770  0.0527
  535MOL    O7143859   0.965   2.021   0.483 -0.1519  0.2683 -0.1902
  535MOL    H7243860   0.864   2.022   0.656  3.8604 -0.6379  0.7191
  535MOL    H7343861   0.937   2.177   0.618 -1.9389  1.3419 -0.6330
  535MOL    C7443862   1.064   2.102   0.424 -0.2894  0.3139 -0.5385
  535MOL    O7543863   1.169   2.130   0.512  0.3889  0.0523 -0.6120
  535MOL    H7643864   1.016   2.198   0.409  1.1993  1.3798  1.2544
  535MOL    H7743865   1.091   2.041   0.337  4.0217  1.3986 -0.0803
  535MOL    C7843866   1.210   2.019   0.582  0.0302 -0.1656  0.3023
  535MOL    O7943867   1.319   2.041   0.673 -0.1487  0.4876  0.8173
  535MOL    H8043868   1.227   1.931   0.520 -1.5862  0.0532 -0.4923
  535MOL    H8143869   1.128   1.988   0.647  0.5496 -2.0006  0.0963
  535MOL    H8243870   1.277   2.080   0.747 -1.6628  1.6795 -0.6250
  536MOL     C143871   1.883   7.318   6.377 -0.8311  0.0046 -0.2514
  536MOL     O243872   1.929   7.448   6.360 -0.2563 -0.6297 -0.3800
  536MOL     H343873   1.953   7.253   6.430  1.3166  1.6472 -0.9995
  536MOL     H443874   1.799   7.320   6.446 -1.6029  2.3316 -1.1876
  536MOL     H543875   1.839   7.279   6.286 -2.2328  0.9331  0.0204
  536MOL     C643876   2.016   7.456   6.253 -1.0204 -0.9721  0.0676
  536MOL     O743877   2.130   7.386   6.269  0.1409  0.0897 -0.1942
  536MOL     H843878   2.034   7.563   6.241 -0.7176 -0.9819  0.4597
  536MOL     H943879   1.963   7.417   6.166 -0.5786  2.0894 -1.6722
  536MOL    C1043880   2.213   7.459   6.353  0.2971  0.0162 -0.6169
  536MOL    O1143881   2.307   7.367   6.407  0.3647 -0.4941 -0.6667
  536MOL    H1243882   2.159   7.508   6.435  0.8174  0.5530 -0.5920
  536MOL    H1343883   2.272   7.531   6.296  1.1969  0.7221  1.1550
  536MOL    C1443884   2.251   7.261   6.472  0.3564  0.5889  0.1405
  536MOL    O1543885   2.355   7.178   6.524  0.1630 -0.1618  0.2972
  536MOL    H1643886   2.184   7.193   6.421  0.8458 -0.3830  0.7834
  536MOL    H1743887   2.191   7.306   6.552  1.1643  1.1898  0.4155
  536MOL    C1843888   2.414   7.245   6.625  0.6318 -0.0455 -0.0314
  536MOL    O1943889   2.331   7.273   6.736 -0.5305 -0.6466  0.0778
  536MOL    H2043890   2.458   7.336   6.585 -0.1267  0.9349  1.3145
  536MOL    H2143891   2.501   7.187   6.653  0.0903 -1.2230 -0.7520
  536MOL    C2243892   2.315   7.408   6.753  0.2957  0.6712  0.7807
  536MOL    O2343893   2.429   7.472   6.811 -0.6474 -0.2895 -0.1091
  536MOL    H2443894   2.226   7.425   6.814 -0.1497  1.2358 -0.0206
  536MOL    H2543895   2.306   7.460   6.657  1.7526 -2.8217 -1.3137
  536MOL    C2643896   2.434   7.449   6.950  0.0307  0.3357  0.1982
  536MOL    O2743897   2.331   7.517   7.012  0.2887  0.9542 -0.1911
  536MOL    H2843898   2.535   7.471   6.985  0.0728 -0.6375  0.7125
  536MOL    H2943899   2.423   7.344   6.976 -0.8687  1.0330  2.7833
  536MOL    C3043900   2.343   7.656   6.999  0.1596  0.0254  0.4729
  536MOL    O3143901   2.244   7.720   7.074 -0.0890 -0.3464  0.7051
  536MOL    H3243902   2.352   7.691   6.897  1.3742  0.8280  0.8340
  536MOL    H3343903   2.431   7.687   7.056 -0.0925 -0.3780  1.0991
  536MOL    C3443904   2.148   0.012   7.010 -0.1807 -0.2900 -0.2238
  536MOL    O3543905   2.197   0.127   6.949  0.7680 -0.7662  0.1129
  536MOL    H3643906   2.066   0.029   7.080 -0.5392 -3.1117  0.1261
  536MOL    H3743907   2.126   7.728   6.927  1.2472 -1.9376  0.7114
  536MOL    C3843908   2.230   0.219   7.040 -0.0109  0.1638  0.2916
  536MOL    O3943909   2.277   0.334   6.984 -0.4584 -0.0179  0.9041
  536MOL    H4043910   2.305   0.195   7.116  0.0876 -0.2070  0.0804
  536MOL    H4143911   2.136   0.244   7.090 -1.3910 -1.1126 -1.5825
  536MOL    C4243912   2.416   0.320   6.950  0.2610 -0.1009  0.3903
  536MOL    O4343913   2.498   0.318   7.065  0.1127  0.3106 -0.9076
  536MOL    H4443914   2.455   0.398   6.884  0.7363  1.4166  2.3895
  536MOL    H4543915   2.427   0.229   6.891 -1.3792 -0.4142  0.5470
  536MOL    C4643916   2.534   0.441   7.108  0.2758 -0.1350  0.7400
  536MOL    O4743917   2.618   0.419   7.218 -0.4222 -0.4794  0.1966
  536MOL    H4843918   2.449   0.506   7.130  1.0743  0.7577  1.2450
  536MOL    H4943919   2.592   0.501   7.038  0.7318 -2.5609 -0.9824
  536MOL    C5043920   2.549   0.376   7.330 -0.0824  0.0063 -0.5112
  536MOL    O5143921   2.475   0.486   7.396 -0.3035 -0.0471  0.0232
  536MOL    H5243922   2.613   0.331   7.405 -1.5567 -0.2514  0.6268
  536MOL    H5343923   2.480   0.294   7.311  0.0127 -0.0498 -0.6180
  536MOL    C5443924   2.563   0.580   7.449  0.2295  0.1933  0.4278
  536MOL    O5543925   2.621   0.538   7.572 -0.1152 -0.3918  0.1572
  536MOL    H5643926   2.513   0.675   7.470 -1.9871 -1.2670  2.0560
  536MOL    H5743927   2.635   0.595   7.369 -0.7959  1.1344 -0.3419
  536MOL    C5843928   2.549   0.568   7.688  0.8461  0.1848 -0.7061
  536MOL    O5943929   2.553   0.709   7.725  0.4272 -0.0327 -0.1613
  536MOL    H6043930   2.596   0.515   7.771  2.4021  2.6317  0.0331
  536MOL    H6143931   2.441   0.558   7.684  0.8406 -0.1265  0.0847
  536MOL    C6243932   2.681   0.754   7.765  0.1159  0.3234  0.1913
  536MOL    O6343933   2.730   0.698   0.097 -0.0089  0.0542  0.1485
  536MOL    H6443934   2.671   0.860   0.005  0.5259  0.0610  1.5477
  536MOL    H6543935   2.757   0.747   7.687 -0.3627  2.1493 -0.4704
  536MOL    C6643936   2.645   0.709   0.215  0.0652  0.4586 -0.1440
  536MOL    O6743937   2.663   0.831   0.282 -0.2127  0.2349  0.3895
  536MOL    H6843938   2.670   0.623   0.277  0.0397  0.7612  0.2899
  536MOL    H6943939   2.541   0.698   0.185 -0.6460  2.0170  1.6191
  536MOL    C7043940   2.786   0.831   0.344  0.5861  0.6811 -0.0161
  536MOL    O7143941   2.795   0.762   0.466 -0.2690 -0.1139  0.4258
  536MOL    H7243942   2.817   0.934   0.365 -0.7393  0.8119  1.3819
  536MOL    H7343943   2.860   0.792   0.273 -1.2149 -0.3344 -1.3655
  536MOL    C7443944   2.927   0.723   0.492 -0.1580  0.2356  0.0215
  536MOL    O7543945   3.015   0.830   0.507 -0.0142  0.2582 -0.2051
  536MOL    H7643946   2.959   0.661   0.409 -0.9312 -0.7157  0.4165
  536MOL    H7743947   2.932   0.661   0.582  1.2557  0.0929 -0.1426
  536MOL    C7843948   2.993   0.893   0.625 -0.2513  0.0890 -0.2388
  536MOL    O7943949   3.100   0.981   0.650 -0.0779  0.4701  0.5011
  536MOL    H8043950   2.986   0.824   0.709  1.2240  0.6395  0.3556
  536MOL    H8143951   2.900   0.950   0.619  0.0291  0.4793 -0.9656
  536MOL    H8243952   3.177   0.932   0.675 -0.4692 -2.4867 -3.5882
  537MOL     C143953   3.955   7.184   0.883  0.4072  0.2625  0.6352
  537MOL     O243954   3.870   7.255   0.969  0.7232  0.6072 -0.1293
  537MOL     H343955   3.960   7.227   0.783 -0.2962 -0.8053  0.1377
  537MOL     H443956   4.058   7.180   0.920  0.9136 -0.0066 -0.7752
  537MOL     H543957   3.905   7.088   0.884  0.5788  0.1528 -0.5312
  537MOL     C643958   3.742   7.279   0.921 -0.1447  0.9103 -0.5275
  537MOL     O743959   3.737   7.404   0.855  0.4698  0.1252  0.0838
  537MOL     H843960   3.677   7.288   1.008  0.7549 -2.7756  0.6067
  537MOL     H943961   3.699   7.205   0.854 -0.1770  0.5174 -0.0676
  537MOL    C1043962   3.614   7.430   0.798 -0.2756  0.1913  0.2840
  537MOL    O1143963   3.587   7.340   0.693  0.0223  0.1948  0.3824
  537MOL    H1243964   3.609   7.536   0.774 -1.9086  0.3819  1.3617
  537MOL    H1343965   3.532   7.422   0.870 -0.0299 -0.6697  0.4762
  537MOL    C1443966   3.503   7.394   0.592  0.3440  0.4245 -0.0451
  537MOL    O1543967   3.571   7.493   0.514 -0.0946  0.3399 -0.1841
  537MOL    H1643968   3.429   7.458   0.640 -1.2410 -0.0611 -1.7892
  537MOL    H1743969   3.465   7.320   0.522 -1.0980  0.6572  0.4762
  537MOL    C1843970   3.483   7.560   0.424  0.0003 -1.0356  0.3378
  537MOL    O1943971   3.471   7.486   0.305  0.2468 -0.1352  0.1028
  537MOL    H2043972   3.512   7.664   0.412 -2.4879 -0.2544  0.9625
  537MOL    H2143973   3.382   7.567   0.464 -0.0375  1.6559 -0.1343
  537MOL    C2243974   3.580   7.512   0.222  0.9838 -0.7080 -0.3168
  537MOL    O2343975   3.567   7.444   0.102 -0.4472  0.2649 -0.0951
  537MOL    H2443976   3.669   7.490   0.281  1.7087 -2.2705 -1.9677
  537MOL    H2543977   3.591   7.619   0.203  0.8280 -0.9970 -2.0776
  537MOL    C2643978   3.489   7.513   0.008  0.5390 -0.5092  0.1446
  537MOL    O2743979   3.457   7.429   7.691  0.1132  0.1461 -1.0837
  537MOL    H2843980   3.555   7.593   7.759  0.9509 -1.1336 -0.5850
  537MOL    H2943981   3.396   7.550   0.051  0.7535 -0.1532  0.3082
  537MOL    C3043982   3.368   7.332   7.730 -0.1534 -0.0674 -0.3398
  537MOL    O3143983   3.248   7.370   7.782 -0.3236 -0.0481 -0.2576
  537MOL    H3243984   3.417   7.260   0.012  3.0973  2.3855  0.0418
  537MOL    H3343985   3.344   7.285   7.635 -0.8560  3.0866 -1.7860
  537MOL    C3443986   3.153   7.270   0.016 -0.1364 -0.2800 -0.0127
  537MOL    O3543987   3.029   7.321   0.053 -0.1767  0.3444  0.0546
  537MOL    H3643988   3.175   7.189   0.085  1.3682 -1.1819 -1.4838
  537MOL    H3743989   3.137   7.217   7.705  0.4569  0.0039 -0.2733
  537MOL    C3843990   2.970   7.417   7.751 -0.0341  0.1398 -0.3022
  537MOL    O3943991   2.829   7.407   7.748 -0.0028 -0.0280 -0.5497
  537MOL    H4043992   3.006   7.401   7.649 -0.8678  0.0349 -0.5849
  537MOL    H4143993   2.998   7.518   7.783 -1.0386  0.8613 -1.6554
  537MOL    C4243994   2.761   7.460   0.071  0.3777  0.4386 -0.0412
  537MOL    O4343995   2.778   7.602   0.083  0.9193 -0.2064  0.0043
  537MOL    H4443996   2.791   7.407   0.161  0.1304 -1.1779 -0.8894
  537MOL    H4543997   2.655   7.432   0.067  0.0890  1.7730 -2.7279
  537MOL    C4643998   2.701   7.671   7.780 -0.1239  0.0861  0.1911
  537MOL    O4743999   2.578   7.696   0.046 -1.0317  0.3749 -0.1908
  537MOL    H4844000   2.694   7.624   7.682 -0.5854  0.0268  0.2534
  537MOL    H4944001   2.760   7.762   7.769  0.7361 -0.4589  0.2057
  537MOL    C5044002   2.533   0.029   7.775 -0.1331 -0.4095 -0.2282
  537MOL    O5144003   2.513   0.008   7.635  0.3060 -0.0334  0.7715
  537MOL    H5244004   2.601   0.112   0.007 -1.1695  0.2193  1.0435
  537MOL    H5344005   2.445   0.056   0.049 -0.3647  0.6102 -1.0354
  537MOL    C5444006   2.446   0.114   7.579  0.2746  1.1022  0.1755
  537MOL    O5544007   2.312   0.114   7.604 -0.4475 -0.2675 -1.1064
  537MOL    H5644008   2.460   0.115   7.471 -0.2156  0.9493  0.1094
  537MOL    H5744009   2.485   0.211   7.609  4.4096 -0.4618  0.1029
  537MOL    C5844010   2.236   0.086   7.495  0.7160  0.2404 -0.0911
  537MOL    O5944011   2.232   0.186   7.394 -0.0090  0.5990  0.3157
  537MOL    H6044012   2.138   0.063   7.538  0.9918 -1.0566 -0.1257
  537MOL    H6144013   2.269   7.774   7.455 -1.3232  0.9857 -3.8368
  537MOL    C6244014   2.172   0.302   7.438  0.1168 -0.0905 -0.1043
  537MOL    O6344015   2.073   0.347   7.347 -0.9370 -0.3666 -0.4822
  537MOL    H6444016   2.256   0.370   7.441  0.2035 -0.2251  0.8422
  537MOL    H6544017   2.129   0.294   7.539  2.2659 -0.5467  0.7938
  537MOL    C6644018   1.961   0.259   7.342 -0.1311 -0.5893 -0.7513
  537MOL    O6744019   1.850   0.321   7.288  0.3161 -0.0319  0.2140
  537MOL    H6844020   1.935   0.246   7.447  1.1039  1.9929 -0.0832
  537MOL    H6944021   1.987   0.180   7.270 -0.5352 -1.0239 -0.4194
  537MOL    C7044022   1.866   0.341   7.152  0.3812  0.1552 -1.1981
  537MOL    O7144023   1.875   0.223   7.073 -0.1305 -0.2585  0.1778
  537MOL    H7244024   1.944   0.405   7.111  0.1096  2.2842  1.4697
  537MOL    H7344025   1.778   0.402   7.131 -0.1455 -0.6415 -1.3359
  537MOL    C7444026   1.751   0.168   7.045 -0.2073  0.2140  0.0226
  537MOL    O7544027   1.686   0.241   6.949  0.0795  0.4010 -0.2968
  537MOL    H7644028   1.677   0.163   7.125 -2.1758  0.3066 -1.7245
  537MOL    H7744029   1.761   0.062   7.020  0.6417  0.1976  0.4108
  537MOL    C7844030   1.740   0.225   6.819  0.6197 -0.0184 -0.1723
  537MOL    O7944031   1.669   0.304   6.725 -0.1645  0.3270  0.0533
  537MOL    H8044032   1.742   0.119   6.798  1.1577  0.1069 -0.7789
  537MOL    H8144033   1.845   0.257   6.824  0.9544 -1.0373 -0.6388
  537MOL    H8244034   1.583   0.267   6.718  0.1949 -0.6807  0.7051
  538MOL     C144035   2.588   1.892   6.369  0.3088  0.3090  0.4314
  538MOL     O244036   2.499   1.880   6.483  0.3459  0.0190 -0.4217
  538MOL     H344037   2.598   1.807   6.302  1.3053  1.8753 -1.4658
  538MOL     H444038   2.537   1.964   6.304  0.6989 -0.3462 -0.6030
  538MOL     H544039   2.684   1.927   6.405 -0.1169 -0.2613  2.1552
  538MOL     C644040   2.387   1.808   6.451  0.3966 -0.1583  0.2641
  538MOL     O744041   2.321   1.852   6.335 -0.2829 -0.3147  0.6743
  538MOL     H844042   2.312   1.804   6.530  0.5970  3.3578  0.7022
  538MOL     H944043   2.423   1.707   6.427  1.6165  0.0859  1.0202
  538MOL    C1044044   2.263   1.980   6.352  0.3546 -0.2122  0.3265
  538MOL    O1144045   2.175   1.979   6.457  0.1871 -0.1198 -0.5538
  538MOL    H1244046   2.210   1.977   6.257  1.3964 -0.7920 -0.2525
  538MOL    H1344047   2.330   2.066   6.359 -0.1689  0.3662 -1.4241
  538MOL    C1444048   2.079   2.083   6.452  0.6578 -0.2101  0.1923
  538MOL    O1544049   2.121   2.209   6.500 -0.6421  0.3166 -0.1160
  538MOL    H1644050   1.991   2.057   6.512 -0.0280  0.8973 -0.3273
  538MOL    H1744051   2.042   2.106   6.352  0.4619 -0.6174  0.1691
  538MOL    C1844052   2.136   2.211   6.639  0.5046 -0.3116  0.3371
  538MOL    O1944053   2.017   2.227   6.710  0.0460 -0.0095  0.9239
  538MOL    H2044054   2.198   2.292   6.676  0.6238  0.1732 -0.9235
  538MOL    H2144055   2.177   2.115   6.672  0.2300 -0.8039 -0.7300
  538MOL    C2244056   1.953   2.352   6.683 -0.0425  0.5177  0.0271
  538MOL    O2344057   2.010   2.455   6.771  0.4319  0.2106  0.3642
  538MOL    H2444058   1.846   2.342   6.701  0.2117 -2.3984  0.1338
  538MOL    H2544059   1.972   2.388   6.582 -0.3032  1.9176  0.4651
  538MOL    C2644060   1.946   2.452   6.898  0.1035  0.0178  0.0918
  538MOL    O2744061   1.982   2.343   6.968  0.4092  0.0926  0.1862
  538MOL    H2844062   1.837   2.456   6.889  0.0389  1.4490  1.3036
  538MOL    H2944063   1.968   2.539   6.960 -0.9058  0.7890 -0.5904
  538MOL    C3044064   2.118   2.332   6.987  0.3135 -0.3617  0.0175
  538MOL    O3144065   2.149   2.243   7.093 -0.2894  0.0216  0.1055
  538MOL    H3244066   2.166   2.424   7.021 -0.0873  0.1673 -0.8357
  538MOL    H3344067   2.171   2.306   6.896 -0.0508 -3.1662  0.5667
  538MOL    C3444068   2.172   2.111   7.058  0.3320  0.7750  0.4901
  538MOL    O3544069   2.286   2.085   6.992 -0.2321 -0.1387 -0.1742
  538MOL    H3644070   2.092   2.084   6.989  1.9362  0.8961 -1.4725
  538MOL    H3744071   2.160   2.061   7.154 -1.8636  0.2300 -0.0285
  538MOL    C3844072   2.338   1.958   7.010 -0.1285 -0.5100  0.1524
  538MOL    O3944073   2.242   1.864   6.973  0.3700  0.3261 -0.1085
  538MOL    H4044074   2.356   1.937   7.116  0.5038 -1.7614 -0.2034
  538MOL    H4144075   2.432   1.933   6.960 -0.2906  0.9437 -0.9252
  538MOL    C4244076   2.247   1.832   6.832  0.0457 -0.3858  0.8425
  538MOL    O4344077   2.361   1.756   6.798  0.1537 -0.2709  0.0217
  538MOL    H4444078   2.246   1.924   6.775 -0.7765  0.2222  1.8335
  538MOL    H4544079   2.156   1.788   6.791 -0.5477  0.8918  0.7864
  538MOL    C4644080   2.343   1.615   6.815  0.3073  0.1608 -0.3451
  538MOL    O4744081   2.226   1.567   6.754  0.2698 -0.0761 -0.1722
  538MOL    H4844082   2.345   1.610   6.924 -0.0918 -0.2193 -0.3564
  538MOL    H4944083   2.428   1.557   6.778  0.7553 -1.6374  3.2082
  538MOL    C5044084   2.203   1.436   6.792 -0.6815 -0.2287  0.1083
  538MOL    O5144085   2.139   1.422   6.916  0.7434 -0.0464  0.0628
  538MOL    H5244086   2.288   1.367   6.792 -1.6782 -1.4903  0.3415
  538MOL    H5344087   2.156   1.380   6.712 -0.1744 -0.7904  0.1963
  538MOL    C5444088   2.021   1.487   6.928 -0.0646  0.3747  0.3256
  538MOL    O5544089   1.924   1.442   6.829 -0.7475 -0.3299 -0.4290
  538MOL    H5644090   2.033   1.595   6.913  0.2301 -0.0174 -2.5168
  538MOL    H5744091   1.972   1.464   7.023 -1.0761  1.0717 -0.0122
  538MOL    C5844092   1.903   1.306   6.842 -0.2412 -0.3226  0.2053
  538MOL    O5944093   1.802   1.274   6.764  0.8291  0.4790 -0.2427
  538MOL    H6044094   1.884   1.267   6.942 -1.6640 -0.1694  0.0069
  538MOL    H6144095   1.995   1.253   6.816 -1.0472 -1.7843  0.2611
  538MOL    C6244096   1.679   1.282   6.824 -0.1715  0.2033  0.8682
  538MOL    O6344097   1.658   1.181   6.919  0.3087  0.1069 -0.1517
  538MOL    H6444098   1.599   1.274   6.749 -0.8254  1.5281  1.4027
  538MOL    H6544099   1.668   1.378   6.874 -0.0021  0.3770  0.5726
  538MOL    C6644100   1.630   1.059   6.847 -0.0829  0.0295 -0.5753
  538MOL    O6744101   1.507   1.057   6.785 -0.3933 -0.5591 -0.1620
  538MOL    H6844102   1.634   0.983   6.926 -0.5272 -0.3617 -0.9267
  538MOL    H6944103   1.703   1.039   6.768  0.5117  0.0738 -0.0503
  538MOL    C7044104   1.401   1.056   6.870  0.3836  0.1599 -0.9346
  538MOL    O7144105   1.389   0.936   6.945 -1.1771 -0.3019  0.3481
  538MOL    H7244106   1.310   1.086   6.819  0.8167  1.2409 -1.0920
  538MOL    H7344107   1.407   1.147   6.929  0.4243  2.0369 -3.7375
  538MOL    C7444108   1.266   0.924   7.017 -0.4229  0.1309 -0.2946
  538MOL    O7544109   1.255   1.017   7.123  1.1105  0.1018  0.5631
  538MOL    H7644110   1.262   0.827   7.066 -2.8752  0.6555  0.6044
  538MOL    H7744111   1.181   0.937   6.950  1.0996  0.1651 -2.2522
  538MOL    C7844112   1.360   1.017   7.214 -0.4832  0.4491 -0.1371
  538MOL    O7944113   1.329   1.080   7.335  0.0723 -0.4286  0.3735
  538MOL    H8044114   1.450   1.065   7.175 -1.1295 -0.0107 -2.2498
  538MOL    H8144115   1.385   0.915   7.245 -0.4557  1.7484  4.3363
  538MOL    H8244116   1.317   1.171   7.313 -0.1321 -0.2269  1.2751
  539MOL     C144117   5.856   1.488   6.652  0.2052  0.2182 -0.2098
  539MOL     O244118   5.898   1.361   6.606 -0.0968 -0.1913 -0.1349
  539MOL     H344119   5.820   1.537   6.561  0.1556  1.3217  0.3903
  539MOL     H444120   5.779   1.482   6.730 -0.0220 -1.2564 -0.5428
  539MOL     H544121   5.945   1.531   6.698 -0.4168 -1.2928  2.4794
  539MOL     C644122   5.941   1.279   6.714  0.4953  0.3467  0.3283
  539MOL     O744123   6.048   1.334   6.775 -0.3698 -0.3352  0.1231
  539MOL     H844124   5.973   1.181   6.678 -0.9891 -0.1429  0.2692
  539MOL     H944125   5.860   1.267   6.786 -0.2934  1.6168 -0.3245
  539MOL    C1044126   6.073   1.276   6.900 -0.2591 -0.0404  0.1267
  539MOL    O1144127   6.103   1.142   6.893 -0.7463  0.1863 -1.0984
  539MOL    H1244128   5.992   1.285   6.972 -0.0961  0.3558  0.2651
  539MOL    H1344129   6.155   1.334   6.942 -2.0557  1.1775  2.0373
  539MOL    C1444130   6.225   1.112   6.836  0.4925  0.9184 -0.4049
  539MOL    O1544131   6.232   0.976   6.829 -0.1119 -0.1359 -0.2945
  539MOL    H1644132   6.312   1.139   6.896  0.6694 -1.8122  0.6327
  539MOL    H1744133   6.236   1.165   6.741 -0.1910 -1.2781 -1.7484
  539MOL    C1844134   6.164   0.923   6.719  0.9090  0.1552  0.2577
  539MOL    O1944135   6.220   0.960   6.594  0.2219  0.2971 -0.5112
  539MOL    H2044136   6.060   0.953   6.717  0.3670 -1.5234  1.6271
  539MOL    H2144137   6.170   0.815   6.734 -0.8817 -0.3272 -2.1930
  539MOL    C2244138   6.351   0.909   6.569 -0.0826 -0.0932 -0.4020
  539MOL    O2344139   6.381   0.894   6.432 -0.2545  0.1904 -0.6116
  539MOL    H2444140   6.361   0.815   6.623  0.2264  0.3692  0.3476
  539MOL    H2544141   6.423   0.974   6.618 -2.3390  1.1784  1.3422
  539MOL    C2644142   6.329   0.778   6.384  0.5352 -0.0096  0.1001
  539MOL    O2744143   6.381   0.666   6.449 -0.1970  0.3542  0.1286
  539MOL    H2844144   6.345   0.775   6.276  2.5661 -0.9760  0.3922
  539MOL    H2944145   6.223   0.776   6.409  0.4287  1.0098 -0.2594
  539MOL    C3044146   6.324   0.550   6.407  0.8422 -0.3459  0.2176
  539MOL    O3144147   6.188   0.538   6.444  0.3485 -0.1320 -0.0071
  539MOL    H3244148   6.394   0.477   6.448  0.2278 -0.3965  1.2088
  539MOL    H3344149   6.336   0.540   6.299  1.8663  0.1518  0.2834
  539MOL    C3444150   6.155   0.402   6.459  0.1650  0.6968 -0.1511
  539MOL    O3544151   6.204   0.330   6.352  0.0180 -0.3321 -0.3786
  539MOL    H3644152   6.048   0.399   6.480  0.3287  2.1397  0.9327
  539MOL    H3744153   6.195   0.371   6.555 -2.5609  1.4905  1.2777
  539MOL    C3844154   6.116   0.317   6.247  0.1323 -0.4441 -0.5774
  539MOL    O3944155   5.983   0.274   6.291  0.0181  0.7717 -0.2311
  539MOL    H4044156   6.157   0.256   6.167  4.3601 -1.5038  2.2721
  539MOL    H4144157   6.099   0.418   6.208 -0.2748 -1.0707 -2.0581
  539MOL    C4244158   5.981   0.138   6.339 -0.0856  0.0013  0.1329
  539MOL    O4344159   6.012   0.052   6.228  0.1753  0.0191  0.0052
  539MOL    H4444160   5.878   0.130   6.372  0.0501  0.9348  0.7935
  539MOL    H4544161   6.054   0.138   6.420  1.0355 -0.6908 -0.8563
  539MOL    C4644162   5.914   0.032   6.134 -0.0972 -0.1283 -0.2302
  539MOL    O4744163   5.796   7.783   6.196  0.3106  0.3387  0.0408
  539MOL    H4844164   5.955   7.738   6.070  1.9205  1.4297 -0.8949
  539MOL    H4944165   5.908   0.125   6.076 -2.3272  0.5648  1.0402
  539MOL    C5044166   5.691   7.779   6.101  0.1621 -0.2016  0.0719
  539MOL    O5144167   5.699   7.669   6.014 -0.0726  0.1691  0.0158
  539MOL    H5244168   5.684   0.085   6.040  1.1570 -0.4103 -0.3580
  539MOL    H5344169   5.593   7.769   6.148  0.1244  0.5774  0.1665
  539MOL    C5444170   5.658   7.546   6.069 -0.2774 -0.4878  0.4222
  539MOL    O5544171   5.646   7.447   5.979 -0.1292 -0.2628 -0.1212
  539MOL    H5644172   5.572   7.550   6.135  0.5249  1.6172  1.3822
  539MOL    H5744173   5.739   7.521   6.137  0.7426 -1.0399 -0.9708
  539MOL    C5844174   5.668   7.319   6.042 -0.9015 -0.7190  0.5847
  539MOL    O5944175   5.549   7.268   6.095  0.4008  0.0748  0.1736
  539MOL    H6044176   5.733   7.326   6.130  1.1934 -0.1664 -0.9668
  539MOL    H6144177   5.697   7.249   5.963  1.0937  1.4791 -0.6826
  539MOL    C6244178   5.571   7.142   6.152  0.8083  0.1437  0.1028
  539MOL    O6344179   5.587   7.041   6.056 -0.5193 -0.0469 -0.1551
  539MOL    H6444180   5.482   7.116   6.211 -0.5601  1.3498 -1.3995
  539MOL    H6544181   5.654   7.144   6.223  0.4409  1.3412  0.5043
  539MOL    C6644182   5.632   6.920   6.109  0.0084 -0.5124  0.4918
  539MOL    O6744183   5.531   6.858   6.185  0.1638 -0.1332 -0.9552
  539MOL    H6844184   5.718   6.946   6.171  0.2888  0.3540 -0.2679
  539MOL    H6944185   5.672   6.855   6.031 -0.3225 -0.8965  0.6390
  539MOL    C7044186   5.428   6.799   6.114 -0.0726  0.2789  0.1688
  539MOL    O7144187   5.467   6.678   6.063  0.6892 -0.5260 -0.1079
  539MOL    H7244188   5.407   6.863   6.028  1.1604 -1.0741 -1.1460
  539MOL    H7344189   5.333   6.785   6.166 -0.3883 -1.0520 -0.7584
  539MOL    C7444190   5.382   6.638   5.958  0.3146 -0.3720 -0.1213
  539MOL    O7544191   5.457   6.568   5.865 -0.0329  0.1040 -0.5424
  539MOL    H7644192   5.339   6.723   5.904 -0.1977  0.1589  1.1054
  539MOL    H7744193   5.303   6.577   6.000  0.2141 -0.8829 -1.0283
  539MOL    C7844194   5.542   6.646   5.796  0.1102 -0.0041 -1.1262
  539MOL    O7944195   5.598   6.582   5.689  0.1949 -0.2903 -0.2147
  539MOL    H8044196   5.626   6.666   5.862  0.0113 -1.4714 -0.5218
  539MOL    H8144197   5.504   6.742   5.762 -1.6639  0.4027  1.8656
  539MOL    H8244198   5.659   6.514   5.714 -0.7088 -2.2105 -2.9442
  540MOL     C144199   2.999   7.383   1.262  0.3056  0.4556 -0.0766
  540MOL     O244200   3.027   7.312   1.381  0.1100 -0.0822 -0.0781
  540MOL     H344201   3.086   7.410   1.201 -0.1184  0.2051 -0.7974
  540MOL     H444202   2.945   7.316   1.195  0.3573 -1.1609  1.4623
  540MOL     H544203   2.941   7.474   1.278  2.5165  1.8606  0.2139
  540MOL     C644204   3.148   7.359   1.442 -0.0733  0.2243  0.2969
  540MOL     O744205   3.140   7.475   1.515 -0.2586  0.5038 -0.5972
  540MOL     H844206   3.224   7.371   1.364  0.5550 -1.1092  0.6912
  540MOL     H944207   3.187   7.283   1.509  0.3295 -1.9938 -2.3405
  540MOL    C1044208   3.060   7.464   1.623  0.5342  0.1022 -0.0332
  540MOL    O1144209   3.112   7.371   1.715  0.2163  0.8375 -0.3030
  540MOL    H1244210   2.962   7.429   1.591  0.7709 -1.0607  0.4797
  540MOL    H1344211   3.041   7.564   1.660  2.7589  0.5156  0.0701
  540MOL    C1444212   3.221   7.417   1.782  0.4133 -0.8948 -0.6004
  540MOL    O1544213   3.192   7.470   1.911 -0.0544  0.2720 -0.0546
  540MOL    H1644214   3.269   7.497   1.725 -0.4970  1.5867  2.0155
  540MOL    H1744215   3.289   7.332   1.788  1.2141 -0.3890 -2.1922
  540MOL    C1844216   3.137   7.369   1.991  0.3754 -0.3943 -0.2827
  540MOL    O1944217   3.228   7.263   2.035  0.5210 -0.0397 -0.1260
  540MOL    H2044218   3.048   7.326   1.945  0.8442 -0.4863 -1.1209
  540MOL    H2144219   3.101   7.414   2.083 -0.3341 -3.4488  0.9707
  540MOL    C2244220   3.348   7.309   2.092 -0.1401 -0.4799 -0.4548
  540MOL    O2344221   3.327   7.394   2.203 -0.4506  0.5239  0.4054
  540MOL    H2444222   3.399   7.376   2.024  0.2627  0.3123  0.6208
  540MOL    H2544223   3.409   7.226   2.127 -0.8890 -1.0279 -0.4273
  540MOL    C2644224   3.279   7.327   2.313  0.0469 -0.7514 -0.6622
  540MOL    O2744225   3.232   7.423   2.402 -0.5042  0.0174  0.6695
  540MOL    H2844226   3.345   7.259   2.367  1.4646  0.7363 -0.4880
  540MOL    H2944227   3.188   7.272   2.290  0.4153 -2.3250  1.5043
  540MOL    C3044228   3.319   7.478   2.494 -0.3438 -0.1685  0.0130
  540MOL    O3144229   3.398   7.391   2.563 -0.7469 -0.4728  0.4352
  540MOL    H3244230   3.261   7.531   2.569  1.2321  0.0764  1.0913
  540MOL    H3344231   3.380   7.554   2.446  0.4271  0.3465  1.7616
  540MOL    C3444232   3.327   7.325   2.664 -0.6776 -0.4292 -0.4878
  540MOL    O3544233   3.275   7.417   2.772  0.0946 -0.2741  1.3642
  540MOL    H3644234   3.393   7.251   2.709  1.1672  0.3083 -1.9227
  540MOL    H3744235   3.238   7.276   2.624  0.8760 -1.7006 -2.4211
  540MOL    C3844236   3.377   7.459   2.854  0.2055 -0.1871  0.3864
  540MOL    O3944237   3.411   7.364   2.947  0.4272 -0.1561 -0.4799
  540MOL    H4044238   3.334   7.546   2.904 -1.9900 -0.3702 -1.1307
  540MOL    H4144239   3.462   7.495   2.797  0.1718 -0.7862 -0.0422
  540MOL    C4244240   3.309   7.325   3.045 -0.3879  0.2093  0.4864
  540MOL    O4344241   3.351   7.221   3.124 -0.0131  0.1331 -0.4076
  540MOL    H4444242   3.214   7.311   2.993 -0.2953  2.4433 -0.3416
  540MOL    H4544243   3.283   7.411   3.107 -2.0172 -0.5868  0.9362
  540MOL    C4644244   3.443   7.256   3.221  0.0515 -0.2522  0.7623
  540MOL    O4744245   3.381   7.295   3.339 -0.2802 -0.1939 -0.3929
  540MOL    H4844246   3.505   7.336   3.181 -2.5958  1.5185 -0.0166
  540MOL    H4944247   3.519   7.179   3.228 -0.2194 -0.5153  0.8303
  540MOL    C5044248   3.388   7.195   3.432  0.2881 -0.4073  0.6015
  540MOL    O5144249   3.342   7.070   3.394  0.5672 -0.0873  0.5482
  540MOL    H5244250   3.340   7.231   3.523 -0.7413 -0.5016  0.1035
  540MOL    H5344251   3.493   7.185   3.460  0.0062 -0.9856  1.4804
  540MOL    C5444252   3.207   7.060   3.403  0.4740 -0.1292 -0.2922
  540MOL    O5544253   3.155   7.060   3.533 -0.2898  0.2276  0.2179
  540MOL    H5644254   3.166   6.976   3.347 -1.0961 -0.6961  1.6214
  540MOL    H5744255   3.159   7.145   3.356  1.7248  1.6213  1.5290
  540MOL    C5844256   3.236   6.989   3.630 -0.1029  0.3935  0.2653
  540MOL    O5944257   3.220   6.859   3.621 -0.1937 -0.2761 -0.3745
  540MOL    H6044258   3.200   7.029   3.725 -1.9959  2.0093 -1.0791
  540MOL    H6144259   3.338   7.025   3.618  0.0547 -0.3303 -0.6732
  540MOL    C6244260   3.303   6.782   3.696  0.2285 -0.5724  0.2414
  540MOL    O6344261   3.434   6.806   3.671 -0.4802 -0.3370  0.1337
  540MOL    H6444262   3.269   6.678   3.696  0.5737 -0.6844  0.4409
  540MOL    H6544263   3.295   6.805   3.802 -0.5724 -0.6759  0.2116
  540MOL    C6644264   3.474   6.752   3.551 -0.9177 -0.2003 -0.1572
  540MOL    O6744265   3.609   6.778   3.534  0.3878  0.7941 -0.1491
  540MOL    H6844266   3.426   6.822   3.483  0.2655  0.3255 -0.4602
  540MOL    H6944267   3.449   6.647   3.533 -1.2408 -0.2360  0.4671
  540MOL    C7044268   3.699   6.698   3.600 -0.2103  0.1311  0.4394
  540MOL    O7144269   3.693   6.560   3.567 -0.4264  0.4626 -0.4504
  540MOL    H7244270   3.678   6.716   3.706 -1.0281 -0.9828  0.4763
  540MOL    H7344271   3.795   6.744   3.575 -1.4968  2.5294 -0.2221
  540MOL    C7444272   3.805   6.501   3.628  0.2873 -0.4912  0.2951
  540MOL    O7544273   3.931   6.530   3.570 -0.4398  0.2831 -0.1782
  540MOL    H7644274   3.783   6.395   3.624  0.4853 -0.5696  1.2482
  540MOL    H7744275   3.796   6.536   3.731 -1.2725 -1.9295  0.6480
  540MOL    C7844276   3.949   6.479   3.442 -0.4925 -0.3543 -0.0119
  540MOL    O7944277   3.946   6.342   3.430  0.5919 -0.0752  0.2623
  540MOL    H8044278   4.032   6.516   3.381 -0.3962  0.5620  0.6789
  540MOL    H8144279   3.866   6.519   3.384  0.0075  1.4974  0.5297
  540MOL    H8244280   4.017   6.312   3.486  0.2991  1.0618  1.2435
  541MOL     C144281   6.908   4.709   4.251 -0.3584  1.0393  0.0035
  541MOL     O244282   6.938   4.586   4.318 -0.1381  0.3368  0.6104
  541MOL     H344283   6.890   4.693   4.145 -2.2071  0.9418  0.3197
  541MOL     H444284   6.825   4.763   4.297  0.6218  2.6227 -0.0450
  541MOL     H544285   7.004   4.761   4.249  1.0131 -1.4754 -1.8771
  541MOL     C644286   6.818   4.509   4.350 -0.4958  0.2385 -0.5146
  541MOL     O744287   6.736   4.558   4.450  0.5004  0.6301  0.1693
  541MOL     H844288   6.857   4.415   4.391 -1.2983 -0.0582 -0.4241
  541MOL     H944289   6.762   4.477   4.262 -0.1735 -0.4475 -0.4767
  541MOL    C1044290   6.806   4.584   4.562 -0.1416 -0.1392 -0.4133
  541MOL    O1144291   6.742   4.537   4.681 -0.2822  0.4710  0.2629
  541MOL    H1244292   6.808   4.693   4.571  1.2701 -0.0010 -2.0863
  541MOL    H1344293   6.912   4.557   4.560 -0.4199 -1.2588 -0.4355
  541MOL    C1444294   6.750   4.397   4.699  0.1488  0.2345 -0.1293
  541MOL    O1544295   6.872   4.371   4.755 -0.1005 -0.3793 -0.0021
  541MOL    H1644296   6.732   4.337   4.609 -2.5091  0.0494  0.4698
  541MOL    H1744297   6.675   4.380   4.777  0.0028  0.9596 -0.1072
  541MOL    C1844298   6.880   4.409   4.888 -0.3483 -0.3859  0.3640
  541MOL    O1944299   6.817   4.309   4.968  0.3148  0.3315  0.1559
  541MOL    H2044300   6.848   4.513   4.898  0.0354 -0.0378 -1.8741
  541MOL    H2144301   6.989   4.408   4.899 -0.1959  1.9170 -0.6224
  541MOL    C2244302   6.850   4.315   5.103 -0.0029 -0.5784  0.2131
  541MOL    O2344303   6.985   4.289   5.133 -0.1549  0.0521 -0.1971
  541MOL    H2444304   6.781   4.252   5.159 -0.7445  0.4884  0.5097
  541MOL    H2544305   6.828   4.419   5.126  0.5279 -0.9281  2.5066
  541MOL    C2644306   7.014   4.161   5.146 -0.4676 -0.2742  0.1773
  541MOL    O2744307   7.062   4.133   5.275  0.5319 -0.5437 -0.1495
  541MOL    H2844308   7.107   4.161   5.089 -1.0853 -0.0819 -0.8206
  541MOL    H2944309   6.946   4.087   5.104 -1.0128 -0.9095  2.1155
  541MOL    C3044310   6.968   4.152   5.376 -0.2459 -0.7366  0.3065
  541MOL    O3144311   6.844   4.095   5.351  0.3341  0.4261  1.0312
  541MOL    H3244312   6.967   4.261   5.368 -0.5917 -0.9239 -3.4577
  541MOL    H3344313   6.994   4.129   5.479 -0.6203  0.7536  0.7387
  541MOL    C3444314   6.846   3.955   5.362 -0.0572 -0.0706  0.9379
  541MOL    O3544315   6.733   3.900   5.308 -0.5407 -0.0783 -0.2327
  541MOL    H3644316   6.865   3.930   5.466  1.2505 -2.7227  0.0864
  541MOL    H3744317   6.936   3.926   5.307 -0.0993 -0.6988  1.2038
  541MOL    C3844318   6.619   3.917   5.386  0.0057  0.4294  0.8245
  541MOL    O3944319   6.581   3.809   5.463 -0.1249 -0.0536 -0.3674
  541MOL    H4044320   6.538   3.951   5.321  2.2233  2.4228 -0.9399
  541MOL    H4144321   6.631   3.995   5.462 -0.8994  0.5724  0.8252
  541MOL    C4244322   6.542   3.701   5.389 -0.1363  0.5803 -0.3060
  541MOL    O4344323   6.413   3.712   5.338 -0.1753  0.4181  0.1143
  541MOL    H4444324   6.553   3.611   5.449 -4.0513 -0.7843 -1.5059
  541MOL    H4544325   6.606   3.692   5.301  0.0041 -0.9375 -0.0483
  541MOL    C4644326   6.320   3.719   5.439 -0.2021 -0.2618  0.0045
  541MOL    O4744327   6.196   3.701   5.382  0.0106  0.1627  0.0197
  541MOL    H4844328   6.338   3.818   5.481 -0.2510  0.6304 -2.0188
  541MOL    H4944329   6.331   3.633   5.505 -2.2070 -0.3601  0.2445
  541MOL    C5044330   6.136   3.828   5.351  0.1474  0.8258 -0.3956
  541MOL    O5144331   6.091   3.893   5.465 -0.3203 -0.3194  0.1346
  541MOL    H5244332   6.065   3.834   5.268 -0.2957  0.2017 -0.0579
  541MOL    H5344333   6.213   3.892   5.307  0.9705  0.3667  0.3519
  541MOL    C5444334   5.978   3.827   5.525 -0.1363  0.0903 -0.0506
  541MOL    O5544335   5.875   3.791   5.436  0.7384  0.0997 -0.6199
  541MOL    H5644336   5.950   3.894   5.607  0.3660  0.6503 -0.3242
  541MOL    H5744337   6.017   3.731   5.557 -2.3411 -1.1614 -1.0682
  541MOL    C5844338   5.814   3.898   5.378 -0.7697  0.0486 -0.1595
  541MOL    O5944339   5.686   3.921   5.427 -0.1634 -0.8360 -0.2328
  541MOL    H6044340   5.813   3.882   5.270  1.2488  1.7598 -0.4655
  541MOL    H6144341   5.872   3.988   5.398  2.5605 -2.0232 -0.0631
  541MOL    C6244342   5.601   3.821   5.388  0.2002 -0.1314 -0.1326
  541MOL    O6344343   5.491   3.810   5.472 -0.2217  0.8324  0.2308
  541MOL    H6444344   5.650   3.724   5.391  0.8359  0.1633 -0.6840
  541MOL    H6544345   5.573   3.855   5.288 -2.9686  1.6236  1.2882
  541MOL    C6644346   5.413   3.923   5.480 -0.5350  0.4203  0.8875
  541MOL    O6744347   5.444   4.004   5.591  0.3476  0.2739  0.0749
  541MOL    H6844348   5.310   3.888   5.467  0.5834 -1.8543 -2.8988
  541MOL    H6944349   5.427   3.992   5.396  1.7412  0.0604  0.9289
  541MOL    C7044350   5.386   3.957   5.703 -0.2044  0.3327  0.1847
  541MOL    O7144351   5.399   4.050   5.807  0.2326 -0.6300  0.1737
  541MOL    H7244352   5.425   3.861   5.735  0.7861  0.1414 -1.5197
  541MOL    H7344353   5.279   3.950   5.683  0.1389 -3.8257 -0.5800
  541MOL    C7444354   5.527   4.043   5.873  0.8378  0.3091  0.1591
  541MOL    O7544355   5.539   3.916   5.936 -0.0508 -0.3553 -0.5306
  541MOL    H7644356   5.520   4.122   5.948 -0.8279 -1.3289  1.7956
  541MOL    H7744357   5.606   4.064   5.800 -0.7893  1.4648 -1.3199
  541MOL    C7844358   5.456   3.898   6.046 -0.6745 -0.0116  1.4037
  541MOL    O7944359   5.454   3.763   6.090 -0.1044 -0.0181  1.0659
  541MOL    H8044360   5.356   3.931   6.019 -0.7239 -1.2439 -0.0152
  541MOL    H8144361   5.488   3.957   6.132  0.5400 -0.9358  1.6025
  541MOL    H8244362   5.382   3.771   6.150 -0.0551  0.5073  1.0595
  542MOL     C144363   5.234   1.665   1.451  0.0635  0.2327 -0.4117
  542MOL     O244364   5.243   1.728   1.578  0.6837  0.5682  0.5421
  542MOL     H344365   5.336   1.642   1.420  0.3940  1.9138 -0.6500
  542MOL     H444366   5.173   1.575   1.455 -1.0727  0.9681 -0.8238
  542MOL     H544367   5.204   1.729   1.367 -0.6106  0.9666  0.3851
  542MOL     C644368   5.292   1.651   1.682  0.1351  0.2711 -0.0731
  542MOL     O744369   5.329   1.722   1.797 -0.3997 -0.0386  0.1357
  542MOL     H844370   5.373   1.581   1.662  1.6127  1.6055  1.0720
  542MOL     H944371   5.202   1.600   1.715  0.6727 -0.6118  0.0491
  542MOL    C1044372   5.454   1.776   1.799  0.3333 -0.0991 -0.0424
  542MOL    O1144373   5.543   1.672   1.819 -0.1275  0.4691  0.0123
  542MOL    H1244374   5.453   1.857   1.872  0.0758  1.0456 -1.2716
  542MOL    H1344375   5.477   1.827   1.705  1.2664 -1.7848 -0.7598
  542MOL    C1444376   5.543   1.629   1.951 -0.2107 -0.5299  0.2238
  542MOL    O1544377   5.615   1.714   2.034  0.3126 -0.1072 -0.8692
  542MOL    H1644378   5.587   1.529   1.951 -1.4857 -1.0944 -0.0216
  542MOL    H1744379   5.443   1.615   1.991 -0.2082 -0.6002  0.2064
  542MOL    C1844380   5.750   1.713   1.999  0.1221 -0.5135 -0.1549
  542MOL    O1944381   5.816   1.589   2.018 -0.4138  0.1905  0.3521
  542MOL    H2044382   5.797   1.790   2.060  0.1503 -0.2959 -0.4497
  542MOL    H2144383   5.764   1.750   1.897  2.4871  0.6684  0.5555
  542MOL    C2244384   5.855   1.559   2.150  0.3651  0.5912 -0.4030
  542MOL    O2344385   5.965   1.641   2.194  0.2331  1.0846 -0.0503
  542MOL    H2444386   5.881   1.453   2.155 -1.7531  0.0992  0.7147
  542MOL    H2544387   5.766   1.581   2.210  1.1240  0.2088  0.8725
  542MOL    C2644388   6.043   1.579   2.297  0.2488 -0.3307  0.7304
  542MOL    O2744389   5.967   1.534   2.399  0.0760  0.8016 -0.4845
  542MOL    H2844390   6.132   1.634   2.324 -0.2655  0.6161  0.5161
  542MOL    H2944391   6.091   1.490   2.255  2.7353  1.1786  0.3024
  542MOL    C3044392   5.931   1.637   2.493 -0.6096 -0.0561 -0.7644
  542MOL    O3144393   6.038   1.671   2.571 -0.1767  0.1283 -0.2478
  542MOL    H3244394   5.845   1.594   2.545  0.0726  1.5366  1.7748
  542MOL    H3344395   5.896   1.724   2.438  0.8446  0.3548 -1.0459
  542MOL    C3444396   6.035   1.801   2.614 -0.1342 -0.0274  0.3392
  542MOL    O3544397   5.919   1.837   2.683  0.5453  0.4594  0.4283
  542MOL    H3644398   6.034   1.873   2.532 -2.9030  0.1932  0.5208
  542MOL    H3744399   6.115   1.820   2.685  0.5439  0.5393 -0.5523
  542MOL    C3844400   5.898   1.756   2.800  0.3392  0.2789 -0.1207
  542MOL    O3944401   5.937   1.814   2.920  0.4167 -0.2282 -0.3884
  542MOL    H4044402   5.936   1.654   2.799 -1.4199 -0.4307  0.9479
  542MOL    H4144403   5.790   1.744   2.803  0.4900 -1.6622 -1.5505
  542MOL    C4244404   5.886   1.756   3.033 -0.3713  0.2183 -0.2537
  542MOL    O4344405   5.750   1.785   3.039  0.1134  0.2956 -0.5903
  542MOL    H4444406   5.936   1.802   3.118  0.0814 -1.2055  0.2656
  542MOL    H4544407   5.893   1.647   3.034 -1.7381  0.1149  2.9096
  542MOL    C4644408   5.716   1.915   3.051  0.7770 -0.6227 -0.4972
  542MOL    O4744409   5.731   1.953   3.189  0.4056  0.2997  0.5088
  542MOL    H4844410   5.615   1.928   3.013  1.2977  1.6197 -1.1810
  542MOL    H4944411   5.773   1.988   2.993  0.5224  1.9200  2.3474
  542MOL    C5044412   5.628   1.902   3.271 -0.5544  0.5370 -0.7355
  542MOL    O5144413   5.512   1.974   3.249 -0.3610 -0.4411 -0.4133
  542MOL    H5244414   5.646   1.915   3.378  0.6693  0.5301 -0.9314
  542MOL    H5344415   5.613   1.799   3.242  1.1084 -0.1086  0.5704
  542MOL    C5444416   5.401   1.905   3.293  0.3743 -0.4343 -0.2238
  542MOL    O5544417   5.390   1.909   3.431 -0.3472 -0.0115  0.4943
  542MOL    H5644418   5.403   1.798   3.271 -1.1383 -0.3083 -1.0401
  542MOL    H5744419   5.313   1.953   3.250 -1.2607 -0.6026  2.7606
  542MOL    C5844420   5.254   1.911   3.481 -0.3933  0.2455 -0.7006
  542MOL    O5944421   5.188   1.790   3.456  0.1048 -0.5698 -0.5696
  542MOL    H6044422   5.189   1.990   3.444  0.3583  0.8544 -0.7478
  542MOL    H6144423   5.258   1.933   3.587 -0.0609 -0.3027 -0.5959
  542MOL    C6244424   5.206   1.702   3.560  0.3305  0.6287  0.5007
  542MOL    O6344425   5.186   1.570   3.514  1.1283  0.0392  0.4082
  542MOL    H6444426   5.122   1.719   3.628  0.2478 -0.5176  0.6996
  542MOL    H6544427   5.304   1.706   3.606 -0.2406  0.1971  1.7831
  542MOL    C6644428   5.208   1.481   3.620 -0.0626  0.0201  0.5701
  542MOL    O6744429   5.115   1.487   3.726  0.6325  0.0393 -0.3265
  542MOL    H6844430   5.310   1.460   3.650  0.7594  0.1813 -2.0261
  542MOL    H6944431   5.184   1.396   3.556 -0.5089  0.9263 -0.4779
  542MOL    C7044432   4.986   1.478   3.686  0.1476  0.0020 -0.5453
  542MOL    O7144433   4.902   1.535   3.775  0.1024  0.5156 -0.3960
  542MOL    H7244434   4.964   1.376   3.654  1.9468  0.8028 -4.5778
  542MOL    H7344435   4.958   1.538   3.600  0.2027  0.3329 -0.3312
  542MOL    C7444436   4.848   1.437   3.863 -0.0818 -0.3151  0.3353
  542MOL    O7544437   4.798   1.321   3.808 -0.4374 -0.1422  0.3135
  542MOL    H7644438   4.768   1.480   3.923 -2.3311  1.9653 -3.9654
  542MOL    H7744439   4.921   1.411   3.939 -0.0443  0.2251  0.4816
  542MOL    C7844440   4.677   1.340   3.754  0.2174 -0.4898  0.2232
  542MOL    O7944441   4.626   1.229   3.684  0.1532  0.0514 -0.4787
  542MOL    H8044442   4.666   1.426   3.688 -0.2126 -0.6418  0.0948
  542MOL    H8144443   4.609   1.363   3.837 -0.0948  0.5221 -0.3009
  542MOL    H8244444   4.666   1.244   3.599  0.5158 -0.3507 -0.3815
  543MOL     C144445   3.298   4.519   6.605 -0.0070 -0.2337  0.3942
  543MOL     O244446   3.386   4.448   6.691  0.5581  0.3469 -0.6966
  543MOL     H344447   3.244   4.456   6.535 -1.4913  1.1245  0.2919
  543MOL     H444448   3.236   4.580   6.670 -0.4584 -0.0769 -0.1862
  543MOL     H544449   3.356   4.589   6.545 -0.0704 -0.5164  0.0073
  543MOL     C644450   3.479   4.371   6.619  0.8403 -0.4072  0.4566
  543MOL     O744451   3.546   4.438   6.518 -0.3836  0.0368 -0.4144
  543MOL     H844452   3.432   4.284   6.575 -0.7289  0.6192  0.0646
  543MOL     H944453   3.556   4.322   6.679  0.2767  0.0052  1.5324
  543MOL    C1044454   3.640   4.525   6.575  0.2403  0.0649 -0.0621
  543MOL    O1144455   3.740   4.467   6.656 -0.4284 -0.2127 -0.0241
  543MOL    H1244456   3.586   4.595   6.639  0.2479  0.9766 -1.0433
  543MOL    H1344457   3.676   4.590   6.495 -0.8637  2.2255  1.1380
  543MOL    C1444458   3.819   4.377   6.593  0.3149 -0.5273  0.6679
  543MOL    O1544459   3.912   4.340   6.688  0.4075  0.1136  0.2683
  543MOL    H1644460   3.880   4.419   6.513 -0.6954  1.6270  0.9815
  543MOL    H1744461   3.762   4.296   6.550 -0.5114  1.2782 -1.7409
  543MOL    C1844462   4.027   4.413   6.692 -0.2252  0.6859 -0.3915
  543MOL    O1944463   4.114   4.389   6.584 -0.1969 -0.6822 -0.4653
  543MOL    H2044464   4.072   4.377   6.785 -1.0171 -0.4229 -0.4164
  543MOL    H2144465   4.019   4.518   6.718  1.2699  0.3190  1.7123
  543MOL    C2244466   4.250   4.438   6.601  0.3813  0.4329 -0.3409
  543MOL    O2344467   4.314   4.384   6.721 -0.3690  0.0752 -0.3703
  543MOL    H2444468   4.268   4.545   6.602  3.5178 -0.0140 -1.7124
  543MOL    H2544469   4.303   4.417   6.508  1.3649 -2.4418  0.7810
  543MOL    C2644470   4.335   4.248   6.715  0.5007 -0.6747  0.1639
  543MOL    O2744471   4.439   4.228   6.626 -0.0958  0.0905  0.0697
  543MOL    H2844472   4.242   4.202   6.680  0.1832  0.2527 -0.2429
  543MOL    H2944473   4.363   4.213   6.814 -0.3730 -2.8099 -0.3279
  543MOL    C3044474   4.481   4.095   6.620 -0.1624 -0.4432 -0.0962
  543MOL    O3144475   4.566   4.072   6.727 -0.9519 -0.3986  0.1970
  543MOL    H3244476   4.539   4.094   6.528 -1.2607  1.5956 -0.8294
  543MOL    H3344477   4.397   4.026   6.614 -0.2559 -0.5605  2.1225
  543MOL    C3444478   4.627   3.950   6.725 -0.3107  0.0106 -0.1416
  543MOL    O3544479   4.729   3.949   6.625 -1.0772  0.1306 -0.2880
  543MOL    H3644480   4.546   3.878   6.710 -0.6136  0.3941 -0.3635
  543MOL    H3744481   4.668   3.921   6.822  1.3890 -0.8855 -1.1167
  543MOL    C3844482   4.842   4.022   6.660  0.3127 -0.3248  0.2100
  543MOL    O3944483   4.916   3.950   6.741 -0.0260  0.4365 -0.8272
  543MOL    H4044484   4.821   4.125   6.689 -0.0640 -0.3488  0.0310
  543MOL    H4144485   4.901   4.025   6.569  2.1156 -2.8475  1.2367
  543MOL    C4244486   4.969   3.835   6.685  0.1700  0.0903  0.2680
  543MOL    O4344487   5.083   3.873   6.614 -0.1451 -0.2079  0.5810
  543MOL    H4444488   4.899   3.778   6.624 -0.1162  1.0461 -0.3040
  543MOL    H4544489   5.002   3.763   6.761 -0.6700 -1.1802 -0.5536
  543MOL    C4644490   5.188   3.923   6.698 -0.0878  0.0092  0.8933
  543MOL    O4744491   5.304   3.945   6.623 -0.8442 -0.3227 -0.1371
  543MOL    H4844492   5.215   3.848   6.773 -0.6623 -0.8443  0.2557
  543MOL    H4944493   5.157   4.014   6.750  0.3261  0.9460 -0.4700
  543MOL    C5044494   5.298   4.059   6.542 -0.4310  0.4183  0.5055
  543MOL    O5144495   5.290   4.172   6.624  0.2952 -0.2836 -0.9544
  543MOL    H5244496   5.212   4.045   6.476 -0.9884 -0.4384  1.4045
  543MOL    H5344497   5.384   4.072   6.476 -1.2678  2.4073 -0.2288
  543MOL    C5444498   5.419   4.203   6.683 -0.5686  0.2174 -0.4529
  543MOL    O5544499   5.408   4.316   6.752  0.3526  0.0372 -0.4678
  543MOL    H5644500   5.504   4.197   6.616  0.3175 -2.2062  0.8138
  543MOL    H5744501   5.437   4.127   6.760 -1.2751 -0.1908 -0.6865
  543MOL    C5844502   5.521   4.340   6.833 -0.1399  0.2393  0.4476
  543MOL    O5944503   5.633   4.370   6.758 -0.7101  0.4314 -0.1885
  543MOL    H6044504   5.543   4.260   6.902  0.9205  0.0324 -0.1090
  543MOL    H6144505   5.491   4.414   6.907 -2.0675 -1.4029  1.3190
  543MOL    C6244506   5.668   4.501   6.761 -1.0503 -0.2453  0.2795
  543MOL    O6344507   5.754   4.553   6.863 -0.3915  0.5298  0.2603
  543MOL    H6444508   5.583   4.568   6.766 -0.4998  0.6356 -1.6409
  543MOL    H6544509   5.712   4.519   6.663  0.8584 -1.5402  0.8598
  543MOL    C6644510   5.882   4.492   6.869  0.5742  0.2315 -0.2516
  543MOL    O6744511   5.960   4.515   6.758  0.0310 -0.0704  0.5410
  543MOL    H6844512   5.872   4.383   6.875  3.1567 -0.0650 -0.7276
  543MOL    H6944513   5.932   4.534   6.956  0.7507  0.5534 -0.5089
  543MOL    C7044514   5.988   4.650   6.737 -0.0885  0.2772  0.1883
  543MOL    O7144515   6.056   4.671   6.615  0.2204  0.7761  0.3221
  543MOL    H7244516   6.061   4.680   6.812  1.4347  0.9338 -1.5437
  543MOL    H7344517   5.892   4.703   6.738 -2.1477 -3.2905 -0.7333
  543MOL    C7444518   6.176   4.600   6.590  0.1845  0.5031 -0.0072
  543MOL    O7544519   6.283   4.675   6.663  0.0402  0.1835  0.2892
  543MOL    H7644520   6.208   4.600   6.486  3.0745  0.2464  0.8253
  543MOL    H7744521   6.173   4.494   6.613  2.5586  0.3561 -0.2427
  543MOL    C7844522   6.409   4.614   6.628 -0.2957  0.0298  0.0110
  543MOL    O7944523   6.513   4.693   6.693  0.0281  0.1592  0.0574
  543MOL    H8044524   6.420   4.633   6.521  0.0856  0.1369  0.0697
  543MOL    H8144525   6.425   4.507   6.645  0.7354  0.4996  2.1449
  543MOL    H8244526   6.515   4.777   6.650 -3.3017  0.5639  0.5659
  544MOL     C144527   0.413   2.032   2.976 -0.3139  0.0927  0.7816
  544MOL     O244528   0.465   1.898   2.997  0.7954 -0.0726  0.5077
  544MOL     H344529   0.306   2.040   2.993  0.0787  1.0774  3.0511
  544MOL     H444530   0.461   2.105   3.042  1.8744 -1.1295  0.6031
  544MOL     H544531   0.428   2.052   2.870 -2.3618 -0.1581  0.4353
  544MOL     C644532   0.418   1.803   2.907  0.0295  0.0581  1.2010
  544MOL     O744533   0.290   1.757   2.927  0.0080 -0.1893  0.2071
  544MOL     H844534   0.487   1.719   2.916  2.3802  1.9260  1.1143
  544MOL     H944535   0.430   1.852   2.810  3.9108  1.1396  2.1325
  544MOL    C1044536   0.278   1.684   3.048  0.4365  0.1442  0.1187
  544MOL    O1144537   0.330   1.557   3.030  0.9034  0.4755 -0.4400
  544MOL    H1244538   0.173   1.664   3.070  0.5311 -1.3565 -0.7151
  544MOL    H1344539   0.308   1.733   3.141 -0.0240 -0.9757  0.8588
  544MOL    C1444540   0.277   1.464   3.123  0.0416  0.3008 -0.2638
  544MOL    O1544541   0.148   1.419   3.083  0.3538  0.0861  0.5060
  544MOL    H1644542   0.270   1.511   3.221 -1.0693 -0.9085  0.2439
  544MOL    H1744543   0.348   1.381   3.127  1.6277  1.6186 -0.5469
  544MOL    C1844544   0.154   1.353   2.955  0.1077 -0.1742 -0.0163
  544MOL    O1944545   0.224   1.236   2.957 -0.0358  0.1367 -0.0935
  544MOL    H2044546   0.194   1.424   2.883 -2.3175  0.8030 -0.4581
  544MOL    H2144547   0.053   1.329   2.921 -0.1512 -0.5605  1.0060
  544MOL    C2244548   0.159   1.143   3.034 -0.1431  0.3445 -0.0903
  544MOL    O2344549   0.074   1.060   2.955 -0.3791 -0.1819 -0.6676
  544MOL    H2444550   0.109   1.198   3.114  1.1216  2.3056 -0.6268
  544MOL    H2544551   0.229   1.079   3.088  0.6660 -1.5854 -3.2463
  544MOL    C2644552   0.133   0.950   2.890 -0.5194  0.1313  0.1766
  544MOL    O2744553   0.149   0.849   2.980  0.0945 -0.7168  0.6055
  544MOL    H2844554   0.232   0.981   2.857  0.2930 -0.9400  1.5605
  544MOL    H2944555   0.068   0.916   2.810  1.0015 -0.0674 -0.9919
  544MOL    C3044556   0.232   0.747   2.934 -0.2517 -0.5057 -0.2003
  544MOL    O3144557   0.365   0.782   2.910 -0.1744  0.2456  0.0459
  544MOL    H3244558   0.185   0.698   2.848 -1.4399  0.3244 -0.0240
  544MOL    H3344559   0.226   0.673   3.014  2.5839 -0.5141  0.0456
  544MOL    C3444560   0.436   0.829   3.020 -0.2989 -0.0192  0.0493
  544MOL    O3544561   0.478   0.726   3.106 -0.5549 -0.1058  0.3262
  544MOL    H3644562   0.385   0.911   3.071  2.2338  1.3402  0.4772
  544MOL    H3744563   0.523   0.875   2.973 -0.6815 -0.1760 -0.8212
  544MOL    C3844564   0.576   0.640   3.048 -0.3658 -0.3268  0.3010
  544MOL    O3944565   0.701   0.692   3.075 -0.1662  0.4881  0.4143
  544MOL    H4044566   0.572   0.645   2.940  0.3894  2.1436  0.3478
  544MOL    H4144567   0.556   0.537   3.080  0.3087 -0.5443  0.0291
  544MOL    C4244568   0.735   0.679   3.207  0.6120  1.3713 -0.1151
  544MOL    O4344569   0.765   0.553   3.246  0.1485 -0.1240 -0.5257
  544MOL    H4444570   0.651   0.711   3.268 -1.1057 -0.8363 -1.2570
  544MOL    H4544571   0.814   0.750   3.234  0.0186  1.5519  1.1747
  544MOL    C4644572   0.894   0.509   3.210  0.3870  0.0099  0.3992
  544MOL    O4744573   0.985   0.580   3.285  0.1161  0.1134 -0.0692
  544MOL    H4844574   0.922   0.542   3.110 -0.7602  2.4992  0.8746
  544MOL    H4944575   0.910   0.402   3.224  0.2244  0.0841  1.1756
  544MOL    C5044576   1.005   0.521   3.405  0.2351 -0.3946 -0.3786
  544MOL    O5144577   1.094   0.418   3.395 -0.7581  0.4833  0.3547
  544MOL    H5244578   0.912   0.484   3.449  0.4755 -0.4113  0.1216
  544MOL    H5344579   1.040   0.590   3.482 -0.3912  0.5551 -0.9397
  544MOL    C5444580   1.233   0.452   3.409  0.0455  0.1203  0.4252
  544MOL    O5544581   1.277   0.491   3.535 -0.8438 -0.0180  0.6844
  544MOL    H5644582   1.256   0.534   3.342 -1.3091 -0.7691 -1.1630
  544MOL    H5744583   1.298   0.372   3.373 -0.3510  0.1548 -0.3582
  544MOL    C5844584   1.313   0.389   3.621 -0.3374  0.4527  0.3254
  544MOL    O5944585   1.438   0.328   3.581 -0.0127  0.0389 -0.2364
  544MOL    H6044586   1.228   0.321   3.636 -0.1636 -0.3030 -1.8883
  544MOL    H6144587   1.342   0.447   3.708 -0.5654  3.2654 -1.4134
  544MOL    C6244588   1.469   0.233   3.678 -0.5822 -0.0808  0.6923
  544MOL    O6344589   1.381   0.120   3.673 -0.4071 -0.0804 -0.4646
  544MOL    H6444590   1.461   0.270   3.780 -0.5928  2.0906 -0.0575
  544MOL    H6544591   1.571   0.201   3.656 -1.1326 -0.9457 -0.6493
  544MOL    C6644592   1.410   0.030   3.565 -0.3250  0.2485 -0.4537
  544MOL    O6744593   1.522   7.740   3.590 -0.3303 -0.8004 -0.7636
  544MOL    H6844594   1.429   0.068   3.465  2.0705  0.4311  0.0439
  544MOL    H6944595   1.327   7.744   3.551 -0.3398  0.3796 -1.0254
  544MOL    C7044596   1.509   7.656   3.703 -0.1744 -0.5878  0.2090
  544MOL    O7144597   1.446   7.537   3.681  0.4928  0.5039  0.2039
  544MOL    H7244598   1.463   7.706   3.789  0.8534  0.5215  0.1214
  544MOL    H7344599   1.610   7.631   3.735  0.9639  2.1001 -1.1142
  544MOL    C7444600   1.514   7.456   3.590 -0.2270 -0.6145 -0.4195
  544MOL    O7544601   1.450   7.328   3.583  0.2652  0.0136  0.2303
  544MOL    H7644602   1.620   7.450   3.615  0.1597  0.0144 -1.8060
  544MOL    H7744603   1.514   7.494   3.488 -0.5330  1.1916  0.2315
  544MOL    C7844604   1.320   7.336   3.548  0.2750 -0.8893 -0.0906
  544MOL    O7944605   1.276   7.214   3.502  0.0190 -0.3236  0.5000
  544MOL    H8044606   1.295   7.408   3.470  1.0726  0.7470  1.1251
  544MOL    H8144607   1.250   7.360   3.628 -0.2508  0.8870 -1.0656
  544MOL    H8244608   1.287   7.160   3.579  3.7526  0.1598  0.4119
  545MOL     C144609   2.510   3.757   4.684  0.1041 -0.3055 -0.1650
  545MOL     O244610   2.618   3.670   4.686  0.0967  0.0399  0.4367
  545MOL     H344611   2.463   3.742   4.587 -0.1127  0.1493 -0.1270
  545MOL     H444612   2.437   3.732   4.761 -0.5445  3.2196  0.4285
  545MOL     H544613   2.539   3.861   4.700 -1.2630 -0.2858  2.5442
  545MOL     C644614   2.724   3.716   4.608 -0.0871 -0.1332  0.0829
  545MOL     O744615   2.807   3.815   4.669 -0.1362  0.1513  0.2745
  545MOL     H844616   2.690   3.743   4.508 -2.1408 -1.4312  0.4013
  545MOL     H944617   2.791   3.632   4.595  1.2087  0.8513  0.2711
  545MOL    C1044618   2.880   3.767   4.777 -0.5372 -0.3864 -0.1181
  545MOL    O1144619   2.991   3.694   4.732  0.0417  0.1436  0.4847
  545MOL    H1244620   2.821   3.709   4.848 -0.2308  0.8952  1.2157
  545MOL    H1344621   2.916   3.854   4.833 -2.8246  1.1280 -0.9430
  545MOL    C1444622   3.085   3.779   4.674  0.3364 -0.3552  0.3391
  545MOL    O1544623   3.145   3.856   4.773 -0.0111  0.0898  0.6536
  545MOL    H1644624   3.046   3.844   4.596  2.1568  0.5261  0.1368
  545MOL    H1744625   3.161   3.722   4.621  0.3494  1.3269 -1.4711
  545MOL    C1844626   3.230   3.786   4.860  0.7099  0.4985 -0.7531
  545MOL    O1944627   3.253   3.862   4.972 -0.7430  0.3491 -0.2521
  545MOL    H2044628   3.328   3.780   4.813  1.1422  0.0679  0.1874
  545MOL    H2144629   3.195   3.686   4.887  1.1712  0.4849 -0.1931
  545MOL    C2244630   3.141   3.882   5.053  0.7947  0.1454 -0.2396
  545MOL    O2344631   3.170   3.932   5.177 -0.4812  0.1431  0.2311
  545MOL    H2444632   3.094   3.787   5.078  0.2168  0.6713  0.6697
  545MOL    H2544633   3.073   3.951   5.003  1.8712  2.2823  1.1606
  545MOL    C2644634   3.220   4.066   5.170 -0.4719  0.7536  0.0759
  545MOL    O2744635   3.135   4.158   5.243  0.3757  0.0224  0.1809
  545MOL    H2844636   3.243   4.103   5.070 -0.3242  3.7146  1.1712
  545MOL    H2944637   3.312   4.074   5.227 -0.3153  0.2547 -0.0975
  545MOL    C3044638   3.030   4.205   5.169  0.2586 -0.2213  0.4922
  545MOL    O3144639   3.068   4.288   5.070  0.1993  0.1989  0.6060
  545MOL    H3244640   2.972   4.264   5.241 -0.7464  0.1777 -0.6352
  545MOL    H3344641   2.965   4.127   5.130  1.3393 -0.6344 -0.5114
  545MOL    C3444642   2.997   4.275   4.953  0.8261 -0.1671  0.3519
  545MOL    O3544643   3.031   4.154   4.889  0.1618 -0.2658 -0.6530
  545MOL    H3644644   2.999   4.368   4.896  2.1248 -0.6822 -0.4639
  545MOL    H3744645   2.891   4.258   4.972  0.9558 -1.0079  0.3490
  545MOL    C3844646   3.130   4.185   4.801  0.0597 -0.3038  0.5228
  545MOL    O3944647   3.083   4.245   4.682  0.2545  0.0339  0.3751
  545MOL    H4044648   3.172   4.087   4.776  1.9753  0.3116  1.2093
  545MOL    H4144649   3.217   4.242   4.834 -1.2629 -0.0315  3.7536
  545MOL    C4244650   2.977   4.166   4.627  1.3624  0.0477 -0.5411
  545MOL    O4344651   2.952   4.205   4.496 -0.0037 -0.3736 -1.1538
  545MOL    H4444652   2.883   4.159   4.682  1.6523  0.7718  0.0432
  545MOL    H4544653   3.001   4.060   4.618  0.4125 -0.3912  1.8232
  545MOL    C4644654   3.060   4.183   4.409 -0.0330  0.5043 -0.7890
  545MOL    O4744655   3.089   4.047   4.410  0.0654  0.0548  0.0620
  545MOL    H4844656   3.149   4.239   4.439  1.1240 -1.2849 -0.8288
  545MOL    H4944657   3.049   4.209   4.304 -2.1339  0.2488 -0.6535
  545MOL    C5044658   3.204   4.010   4.345  0.5458  0.2089 -0.0446
  545MOL    O5144659   3.320   4.058   4.408 -0.1237 -0.0614  0.0671
  545MOL    H5244660   3.203   4.054   4.245 -1.3809 -1.0268 -0.5952
  545MOL    H5344661   3.213   3.904   4.323  1.4900 -0.0688  1.6423
  545MOL    C5444662   3.361   3.976   4.512  0.4968 -0.1195  0.1448
  545MOL    O5544663   3.489   4.018   4.547  0.1341 -0.2738  0.3891
  545MOL    H5644664   3.372   3.870   4.486  1.1566  0.5131 -2.3009
  545MOL    H5744665   3.293   3.989   4.596  0.5436 -2.6595  0.6315
  545MOL    C5844666   3.491   4.127   4.638  0.1176 -0.6020 -0.5121
  545MOL    O5944667   3.441   4.092   4.759 -0.1657 -0.1554 -0.8379
  545MOL    H6044668   3.437   4.207   4.589 -2.1639 -1.6535  0.2011
  545MOL    H6144669   3.594   4.163   4.640  0.7888 -2.4745 -0.3002
  545MOL    C6244670   3.534   4.014   4.830  0.0971  0.5307 -1.1095
  545MOL    O6344671   3.645   4.078   4.875  0.0089  0.1545  0.4696
  545MOL    H6444672   3.571   3.941   4.759  0.2105  0.4986 -1.0177
  545MOL    H6544673   3.487   3.966   4.916  0.8954 -0.2416 -1.0947
  545MOL    C6644674   3.613   4.193   4.938  0.4899 -0.2442  0.2252
  545MOL    O6744675   3.545   4.175   5.061 -0.3123 -0.4015  0.3030
  545MOL    H6844676   3.548   4.252   4.874  1.3340  1.2204  0.6854
  545MOL    H6944677   3.712   4.237   4.949  0.6826 -0.9501  1.4303
  545MOL    C7044678   3.552   4.292   5.142 -0.5557 -0.3648 -0.1268
  545MOL    O7144679   3.680   4.334   5.164  0.6127  0.1757 -0.4295
  545MOL    H7244680   3.493   4.274   5.232 -0.1981  1.1817  0.4363
  545MOL    H7344681   3.488   4.364   5.092 -0.7377 -1.1284 -0.9975
  545MOL    C7444682   3.753   4.258   5.264 -0.0460  0.8721  0.4907
  545MOL    O7544683   3.891   4.264   5.250  0.1122  0.0184 -0.1422
  545MOL    H7644684   3.726   4.156   5.238  0.6051  0.6110  0.8333
  545MOL    H7744685   3.717   4.284   5.364 -4.4733 -1.5038 -0.3740
  545MOL    C7844686   3.939   4.397   5.270 -0.6652  0.6978  0.2980
  545MOL    O7944687   4.079   4.406   5.244 -0.0522  0.4883  0.0463
  545MOL    H8044688   3.917   4.422   5.374 -4.1002  0.2460 -0.2712
  545MOL    H8144689   3.893   4.466   5.200  0.1809  0.4721 -0.4960
  545MOL    H8244690   4.119   4.329   5.281 -0.1151 -0.7734 -2.4232
  546MOL     C144691   1.278   2.443   3.026 -0.2059  0.4152 -0.1488
  546MOL     O244692   1.153   2.506   3.019 -0.1023  0.3242 -0.5932
  546MOL     H344693   1.358   2.508   2.993  0.9886 -1.3702 -0.8021
  546MOL     H444694   1.297   2.405   3.127 -0.1862 -1.3982 -0.8273
  546MOL     H544695   1.294   2.352   2.970  1.9984 -0.1363  1.3280
  546MOL     C644696   1.129   2.575   2.908  0.5661 -0.0656  0.0818
  546MOL     O744697   1.117   2.495   2.799 -0.2155 -0.3750 -0.1671
  546MOL     H844698   1.199   2.657   2.895  0.2192  0.0273 -1.2314
  546MOL     H944699   1.040   2.637   2.918  1.3586  1.4462 -1.9821
  546MOL    C1044700   1.001   2.412   2.803  0.1466  0.4060  0.3256
  546MOL    O1144701   0.951   2.391   2.674 -0.7678 -0.2706 -0.1697
  546MOL    H1244702   0.931   2.430   2.884  0.4064 -2.0053  1.1297
  546MOL    H1344703   1.033   2.316   2.843 -0.3216  0.2432  0.3168
  546MOL    C1444704   0.895   2.499   2.620  0.1032  0.0663  0.5942
  546MOL    O1544705   0.816   2.465   2.507 -0.1878  0.2711  0.3545
  546MOL    H1644706   0.958   2.583   2.590  0.6663  0.1215  1.9242
  546MOL    H1744707   0.816   2.534   2.687 -1.7889 -3.5445  0.3773
  546MOL    C1844708   0.893   2.483   2.395  0.6346  0.0438  0.3240
  546MOL    O1944709   0.815   2.446   2.283 -0.0191 -0.1018  0.8783
  546MOL    H2044710   0.989   2.433   2.393  0.7094 -0.0298  3.7516
  546MOL    H2144711   0.931   2.584   2.382 -1.0382  0.3293 -3.0938
  546MOL    C2244712   0.858   2.328   2.220 -0.1837 -0.7544  0.0171
  546MOL    O2344713   0.951   2.345   2.117  0.3331  0.1094 -0.3100
  546MOL    H2444714   0.778   2.273   2.171 -0.0042 -0.6375 -0.4068
  546MOL    H2544715   0.889   2.265   2.303 -0.8332 -0.5149  0.4533
  546MOL    C2644716   0.902   2.416   2.010 -0.2048 -0.1710 -0.9977
  546MOL    O2744717   0.822   2.338   1.919 -0.1950 -0.2817 -0.2655
  546MOL    H2844718   0.971   2.473   1.946 -0.6176 -0.3011 -1.5606
  546MOL    H2944719   0.825   2.487   2.039  0.0373  0.1907 -1.2315
  546MOL    C3044720   0.800   2.402   1.798  0.1531  0.5654 -0.0430
  546MOL    O3144721   0.724   2.515   1.815 -0.8986 -0.4693 -0.0197
  546MOL    H3244722   0.747   2.326   1.740 -2.3817  1.8234  0.5482
  546MOL    H3344723   0.890   2.430   1.744  0.0251  0.6711 -0.2039
  546MOL    C3444724   0.593   2.493   1.863 -0.8546  0.0903 -0.2707
  546MOL    O3544725   0.510   2.604   1.855  0.1111 -0.3361 -0.6748
  546MOL    H3644726   0.593   2.470   1.970 -0.4894 -1.2062 -0.5332
  546MOL    H3744727   0.545   2.406   1.818  1.1897 -1.1560 -0.1201
  546MOL    C3844728   0.458   2.627   1.729  0.2141  0.6265 -0.0638
  546MOL    O3944729   0.367   2.529   1.693  0.2954  0.2260  0.3949
  546MOL    H4044730   0.544   2.628   1.663 -1.0032 -3.1046 -1.8284
  546MOL    H4144731   0.418   2.729   1.731  1.3334  1.0643  1.0889
  546MOL    C4244732   0.254   2.532   1.776  0.2975 -0.6497 -0.0372
  546MOL    O4344733   0.173   2.420   1.734  0.3496 -0.4890  0.1897
  546MOL    H4444734   0.203   2.628   1.767 -0.2702 -0.8968  0.5205
  546MOL    H4544735   0.282   2.527   1.881  0.8348 -0.6836 -0.1833
  546MOL    C4644736   0.238   2.301   1.749  0.0945  0.0569  0.3591
  546MOL    O4744737   0.161   2.187   1.708 -0.2351  0.5211  0.4072
  546MOL    H4844738   0.260   2.292   1.856 -0.5314 -1.0405  0.3978
  546MOL    H4944739   0.324   2.301   1.683 -0.1014 -0.0708  0.1042
  546MOL    C5044740   0.054   2.168   1.795  0.6056  0.3344  0.0606
  546MOL    O5144741   0.083   2.164   1.934  0.1857  0.1905 -0.6807
  546MOL    H5244742   7.767   2.086   1.780 -3.2900  3.6610 -0.7246
  546MOL    H5344743   7.780   2.258   1.777  1.3008  0.8815  0.5190
  546MOL    C5444744   0.151   2.048   1.964 -0.5960  0.2903 -0.6893
  546MOL    O5544745   0.063   1.937   1.984 -0.6020 -0.4017  0.1432
  546MOL    H5644746   0.209   2.065   2.055  0.5766 -1.5222 -1.0667
  546MOL    H5744747   0.222   2.017   1.888 -1.1591 -0.9744 -0.7094
  546MOL    C5844748   0.000   1.947   2.108  0.1188  0.1101 -0.0431
  546MOL    O5944749   0.092   1.917   2.207  0.0224 -0.2060  0.2864
  546MOL    H6044750   7.706   1.871   2.112  1.0503 -0.8340  0.3457
  546MOL    H6144751   7.748   2.048   2.128  0.4964  0.3313 -0.4927
  546MOL    C6244752   0.048   1.936   2.336  0.1906  0.6213  0.1621
  546MOL    O6344753   0.019   2.068   2.367  0.0254  0.1955 -0.2842
  546MOL    H6444754   0.126   1.906   2.406  0.1748 -1.5948 -0.7567
  546MOL    H6544755   7.749   1.871   2.361  0.3326  0.4717  0.2382
  546MOL    C6644756   0.127   2.155   2.370  0.7514 -0.0092 -0.0594
  546MOL    O6744757   0.212   2.134   2.482 -0.4391 -0.4229 -0.0935
  546MOL    H6844758   0.101   2.260   2.382 -1.6894 -0.6779  0.8282
  546MOL    H6944759   0.184   2.157   2.277  0.1160  0.6749 -0.4296
  546MOL    C7044760   0.154   2.174   2.604 -0.7094 -0.0813  0.6363
  546MOL    O7144761   0.154   2.313   2.600 -0.0011  0.1470  0.2405
  546MOL    H7244762   0.209   2.128   2.686  2.7326 -0.5341 -1.8176
  546MOL    H7344763   0.050   2.142   2.597 -0.8395  0.1203  1.5523
  546MOL    C7444764   0.142   2.376   2.724 -0.8710 -0.4741  0.1999
  546MOL    O7544765   0.114   2.512   2.706 -0.2214 -0.0215 -0.1575
  546MOL    H7644766   0.239   2.364   2.772 -0.4851 -0.7309 -0.6268
  546MOL    H7744767   0.062   2.333   2.784  0.9932 -1.1245  2.2832
  546MOL    C7844768   7.780   2.532   2.654  0.7077  0.4344 -0.4228
  546MOL    O7944769   7.731   2.658   2.687  0.7800 -0.5598 -0.3535
  546MOL    H8044770   7.701   2.463   2.686  0.8007  0.5019 -0.0499
  546MOL    H8144771   0.003   2.522   2.546 -5.0144 -0.8951 -0.8363
  546MOL    H8244772   7.705   2.659   2.777  0.0385 -0.0376 -0.5655
  547MOL     C144773   6.194   3.493   0.522 -0.6880 -0.2624  0.1840
  547MOL     O244774   6.277   3.482   0.636 -0.0997 -0.0723 -0.4084
  547MOL     H344775   6.146   3.591   0.519 -0.3531 -0.1290 -1.4641
  547MOL     H444776   6.255   3.471   0.434 -2.4071 -0.9431 -0.8633
  547MOL     H544777   6.111   3.423   0.531  0.7186 -2.4794 -3.0712
  547MOL     C644778   6.404   3.545   0.611 -0.2003  0.1026  0.2953
  547MOL     O744779   6.402   3.682   0.610 -0.2482 -0.0258 -0.1999
  547MOL     H844780   6.445   3.529   0.511  0.9395  0.3361  0.7080
  547MOL     H944781   6.483   3.504   0.674  1.7783  2.6804 -0.3991
  547MOL    C1044782   6.386   3.730   0.737  0.6294  0.1678 -0.1541
  547MOL    O1144783   6.454   3.851   0.763  0.4795  0.5341  0.4267
  547MOL    H1244784   6.401   3.665   0.824  1.2297  1.4257  0.7075
  547MOL    H1344785   6.279   3.749   0.731  0.4585 -0.3780  0.8583
  547MOL    C1444786   6.587   3.835   0.804  1.2843 -0.2099 -0.2532
  547MOL    O1544787   6.605   3.815   0.940 -0.1371  0.3905  0.0906
  547MOL    H1644788   6.638   3.931   0.798 -0.8856  0.9692 -0.4704
  547MOL    H1744789   6.641   3.771   0.734  1.2700 -0.4701 -0.0305
  547MOL    C1844790   6.719   3.746   0.973 -0.3440  0.2083 -0.5061
  547MOL    O1944791   6.733   3.629   0.906  0.6432  0.1342  0.2732
  547MOL    H2044792   6.733   3.746   1.081 -0.5460 -0.6254 -0.4738
  547MOL    H2144793   6.802   3.808   0.941  1.6832 -0.6510  2.7729
  547MOL    C2244794   6.640   3.539   0.955 -0.1780  0.4850  0.2513
  547MOL    O2344795   6.647   3.429   0.871 -0.7689  0.4340 -0.3499
  547MOL    H2444796   6.542   3.586   0.944 -0.5695  0.5088  3.3578
  547MOL    H2544797   6.658   3.507   1.058 -1.7170 -1.8704 -0.1563
  547MOL    C2644798   6.766   3.356   0.888  0.0045 -0.4185 -0.0421
  547MOL    O2744799   6.773   3.302   1.011  0.4059 -0.2511 -0.0987
  547MOL    H2844800   6.852   3.420   0.866 -0.7820  0.5956 -0.1804
  547MOL    H2944801   6.780   3.277   0.814 -1.2127  0.9560 -1.7883
  547MOL    C3044802   6.707   3.185   1.030  0.2703  0.1544  0.0592
  547MOL    O3144803   6.720   3.140   1.153 -1.0152 -0.2137  0.2987
  547MOL    H3244804   6.753   3.109   0.967  2.3289 -0.2135  1.9444
  547MOL    H3344805   6.599   3.185   1.018 -0.0796  0.0643  2.9111
  547MOL    C3444806   6.643   3.214   1.244 -0.7040  0.4122 -0.5595
  547MOL    O3544807   6.533   3.141   1.289 -0.2470 -0.0408 -0.2243
  547MOL    H3644808   6.615   3.309   1.198 -2.3851  1.0544  1.7187
  547MOL    H3744809   6.709   3.225   1.330 -1.5312  1.0750 -0.0032
  547MOL    C3844810   6.566   3.024   1.345 -0.0392  0.4571 -0.6803
  547MOL    O3944811   6.636   3.035   1.463  0.4269 -0.7674  0.2763
  547MOL    H4044812   6.615   2.967   1.266  1.1723  1.7494 -0.8794
  547MOL    H4144813   6.469   2.983   1.370  0.1686  1.4267  1.8739
  547MOL    C4244814   6.683   2.909   1.514  0.0527  1.1781  0.0300
  547MOL    O4344815   6.778   2.849   1.422  0.0845 -0.1907  0.0717
  547MOL    H4444816   6.598   2.844   1.536 -0.3062  1.3507 -0.8206
  547MOL    H4544817   6.730   2.921   1.612 -0.7979 -0.8432  0.7170
  547MOL    C4644818   6.899   2.924   1.421 -0.5678 -0.0371  0.4389
  547MOL    O4744819   6.989   2.882   1.312 -0.4282 -0.0298  0.6165
  547MOL    H4844820   6.963   2.907   1.507 -0.8306  1.3454  0.9215
  547MOL    H4944821   6.875   3.031   1.416 -1.3293 -0.3170 -3.5711
  547MOL    C5044822   7.105   2.956   1.300 -0.1330 -0.3471 -0.7194
  547MOL    O5144823   7.073   3.093   1.272  0.1930  0.5907  0.2914
  547MOL    H5244824   7.171   2.907   1.229  2.9483  1.1686  0.9973
  547MOL    H5344825   7.157   2.951   1.396  1.4202 -1.4016 -1.6109
  547MOL    C5444826   7.091   3.125   1.129  0.4116  0.7406  0.3278
  547MOL    O5544827   7.221   3.109   1.084  0.6682 -0.7265 -0.2402
  547MOL    H5644828   7.054   3.227   1.113 -1.6604 -0.0560 -0.1510
  547MOL    H5744829   7.035   3.055   1.067  1.6078 -0.1415  0.2352
  547MOL    C5844830   7.306   3.202   1.138 -0.0707 -0.0019  0.4471
  547MOL    O5944831   7.432   3.148   1.152  0.0753  0.6194 -0.1711
  547MOL    H6044832   7.286   3.257   1.230 -0.7801  2.9083 -1.3745
  547MOL    H6144833   7.329   3.281   1.065 -0.1420  0.5235  0.9904
  547MOL    C6244834   7.453   3.076   1.272  0.0331  0.4361 -0.0296
  547MOL    O6344835   7.446   3.166   1.378 -0.1901  0.4155 -0.3274
  547MOL    H6444836   7.555   3.037   1.272  0.6150  1.9304 -0.4197
  547MOL    H6544837   7.373   3.002   1.274 -0.4295  0.9635  1.8839
  547MOL    C6644838   7.437   3.109   1.499 -0.1172  0.3744 -0.6106
  547MOL    O6744839   7.378   3.200   1.587  0.1330  0.7151 -0.7465
  547MOL    H6844840   7.538   3.081   1.530 -1.0902 -2.5509  0.1123
  547MOL    H6944841   7.383   3.014   1.494  1.5840 -0.7335  1.3879
  547MOL    C7044842   7.243   3.222   1.566  0.1533  0.1228  0.6903
  547MOL    O7144843   7.172   3.107   1.578  0.1441 -0.2046 -0.1255
  547MOL    H7244844   7.235   3.254   1.462 -0.0872 -0.6649  0.4686
  547MOL    H7344845   7.207   3.302   1.631 -0.2069  0.0476  0.5823
  547MOL    C7444846   7.168   3.063   1.712 -0.9087  0.4318  0.5711
  547MOL    O7544847   7.115   3.150   1.803 -0.3845  0.1563 -0.5437
  547MOL    H7644848   7.268   3.049   1.753  0.0896 -2.3338 -2.5947
  547MOL    H7744849   7.122   2.965   1.721 -0.8518  0.2358 -1.2575
  547MOL    C7844850   6.977   3.168   1.783 -0.4836 -0.2458  0.1357
  547MOL    O7944851   6.904   3.063   1.835  0.6623 -0.1098 -0.0072
  547MOL    H8044852   6.947   3.176   1.679 -0.3357  0.8361  0.1768
  547MOL    H8144853   6.952   3.250   1.850  0.8005  0.8723 -0.7378
  547MOL    H8244854   6.922   3.069   1.927  1.3935 -0.3551 -0.1344
  548MOL     C144855   0.614   4.137   2.658 -0.4930 -0.6273  0.4011
  548MOL     O244856   0.572   4.113   2.791  0.4570 -0.1863 -0.1917
  548MOL     H344857   0.627   4.244   2.644  1.3214 -0.7949  0.7400
  548MOL     H444858   0.709   4.090   2.636  1.2281  3.5301 -1.6127
  548MOL     H544859   0.537   4.115   2.584  1.3772 -1.5306 -1.3394
  548MOL     C644860   0.458   4.188   2.833  0.2446  0.1894 -0.8915
  548MOL     O744861   0.345   4.147   2.761  0.3402  0.0099 -0.3624
  548MOL     H844862   0.484   4.293   2.817  2.2116  0.0900  1.3034
  548MOL     H944863   0.441   4.182   2.941  1.9772 -0.4836 -0.6311
  548MOL    C1044864   0.271   4.037   2.809 -0.6236  0.4740  0.4440
  548MOL    O1144865   0.187   4.072   2.921  0.0144  0.0299  0.1491
  548MOL    H1244866   0.325   3.945   2.833 -0.1735  0.6173 -0.0219
  548MOL    H1344867   0.209   4.017   2.721  0.5113  0.1075 -0.2782
  548MOL    C1444868   0.081   3.983   2.936  0.1368  0.2709  0.5040
  548MOL    O1544869   7.760   4.027   2.857 -0.0569  0.3070 -0.0220
  548MOL    H1644870   0.046   3.973   3.039 -3.3866  1.1250 -0.5322
  548MOL    H1744871   0.107   3.880   2.912 -0.9541 -0.3603  1.9485
  548MOL    C1844872   7.679   4.125   2.912  0.0332 -0.7441 -0.5937
  548MOL    O1944873   7.598   4.070   3.011 -0.1836 -0.2148  0.1559
  548MOL    H2044874   7.618   4.164   2.830 -0.5002 -3.5212 -1.5502
  548MOL    H2144875   7.738   4.209   2.950  0.6840 -1.0689 -0.8821
  548MOL    C2244876   7.492   3.997   2.947 -0.1773  0.7887  0.4522
  548MOL    O2344877   7.391   4.079   2.893 -0.4714  0.2807  0.2308
  548MOL    H2444878   7.450   3.927   3.019 -1.0711  0.1864 -0.6432
  548MOL    H2544879   7.527   3.939   2.862  0.8946  0.0356  1.3889
  548MOL    C2644880   7.303   4.146   2.984 -0.0939 -0.6755 -0.1738
  548MOL    O2744881   7.220   4.227   2.917 -0.2094 -0.9026  0.2247
  548MOL    H2844882   7.365   4.195   3.060  0.9664  2.5788 -3.0431
  548MOL    H2944883   7.235   4.078   3.036 -0.3997 -0.9427 -0.9304
  548MOL    C3044884   7.295   4.343   2.880  0.0689  0.0801  0.3290
  548MOL    O3144885   7.333   4.422   2.985  0.2336  0.4162 -0.3540
  548MOL    H3244886   7.232   4.398   2.810 -1.7161 -2.6323 -0.2836
  548MOL    H3344887   7.382   4.324   2.816 -0.4057  0.5255 -0.4638
  548MOL    C3444888   7.225   4.494   3.040 -0.1808  0.0984  0.9288
  548MOL    O3544889   7.167   4.577   2.945 -0.0483  0.0255  0.1429
  548MOL    H3644890   7.258   4.547   3.129  0.4192  1.8552 -0.3111
  548MOL    H3744891   7.150   4.420   3.068  2.6585 -2.7566  1.3595
  548MOL    C3844892   7.227   4.698   2.938 -0.6541  0.6252  0.2887
  548MOL    O3944893   7.352   4.690   2.884  0.5700  0.1818 -0.2900
  548MOL    H4044894   7.236   4.741   3.038  2.2070 -2.0430  1.2576
  548MOL    H4144895   7.164   4.764   2.878 -0.5924  1.8636  1.5497
  548MOL    C4244896   7.346   4.693   2.740  0.8261  0.2619 -0.5533
  548MOL    O4344897   7.368   4.819   2.686 -0.1669 -0.3908  0.2296
  548MOL    H4444898   7.250   4.651   2.710  0.8502  0.5505 -1.0272
  548MOL    H4544899   7.412   4.617   2.699  0.8266  0.1297 -0.3079
  548MOL    C4644900   7.494   4.862   2.705 -0.2144  0.2585  0.1801
  548MOL    O4744901   7.586   4.776   2.635 -1.2292  0.3239  0.0014
  548MOL    H4844902   7.533   4.871   2.806  2.9145 -0.4200 -0.9033
  548MOL    H4944903   7.494   4.959   2.653  0.3688  1.2165  1.9325
  548MOL    C5044904   7.574   4.765   2.497  0.1568 -0.3204  0.5447
  548MOL    O5144905   7.585   4.881   2.422 -0.0713 -0.7495 -0.1596
  548MOL    H5244906   7.495   4.694   2.470  1.2731 -0.7633 -1.6855
  548MOL    H5344907   7.660   4.704   2.468  1.0270  0.6391  1.1122
  548MOL    C5444908   7.468   4.915   2.371 -0.1393  0.1087  0.5370
  548MOL    O5544909   7.411   4.818   2.286  0.2728  0.0719 -0.2982
  548MOL    H5644910   7.474   5.010   2.316 -0.1360 -0.0250  0.3058
  548MOL    H5744911   7.408   4.937   2.459  0.8532  1.6235  0.8503
  548MOL    C5844912   7.479   4.810   2.163 -0.1009 -0.2958  0.2427
  548MOL    O5944913   7.453   4.913   2.075  0.1525  0.3486 -0.3161
  548MOL    H6044914   7.458   4.718   2.109  1.1420  0.7016 -2.0355
  548MOL    H6144915   7.587   4.814   2.175 -0.0066 -2.9514  0.5361
  548MOL    C6244916   7.317   4.919   2.037 -0.4694 -0.3170  0.6418
  548MOL    O6344917   7.243   5.030   2.078 -0.1088 -0.0941 -0.1499
  548MOL    H6444918   7.265   4.832   2.077 -0.9836 -0.9151 -1.3060
  548MOL    H6544919   7.293   4.905   1.932  0.6397  1.6146  0.1005
  548MOL    C6644920   7.268   5.150   2.011  0.7777 -0.1488  0.4161
  548MOL    O6744921   7.213   5.146   1.880 -0.0810  0.7313  0.0021
  548MOL    H6844922   7.374   5.164   1.988  0.5745 -1.4511 -1.4244
  548MOL    H6944923   7.225   5.241   2.054  0.4735 -0.0065 -0.1828
  548MOL    C7044924   7.074   5.150   1.881 -0.0631  0.1891 -0.3140
  548MOL    O7144925   7.024   5.181   1.755  0.4772 -0.4825  0.1835
  548MOL    H7244926   7.044   5.232   1.946 -0.9780 -1.7522  1.8057
  548MOL    H7344927   7.030   5.062   1.928  1.2630 -0.4231 -0.1870
  548MOL    C7444928   7.060   5.304   1.705  0.0358 -0.1656 -0.0337
  548MOL    O7544929   7.018   5.410   1.787 -0.6818  0.2413 -0.9020
  548MOL    H7644930   7.026   5.324   1.604  0.3684  0.3136 -0.0584
  548MOL    H7744931   7.168   5.322   1.698 -0.2471  1.1800 -1.2794
  548MOL    C7844932   6.882   5.427   1.794 -0.1500 -0.1406 -0.7045
  548MOL    O7944933   6.850   5.526   1.892 -0.8221 -0.0214 -0.5027
  548MOL    H8044934   6.815   5.343   1.810  0.3172 -0.5696 -0.9932
  548MOL    H8144935   6.833   5.474   1.708  0.6287  1.6336 -0.2052
  548MOL    H8244936   6.879   5.609   1.858  1.5428  0.1737  1.8331
  549MOL     C144937   0.726   4.011   7.658  0.1921 -0.3667 -0.3281
  549MOL     O244938   0.634   4.002   7.553 -0.3638 -0.0080 -0.3832
  549MOL     H344939   0.819   3.959   7.633  0.1935 -0.1186 -0.8479
  549MOL     H444940   0.725   4.104   7.715 -0.0412 -1.5145  1.5835
  549MOL     H544941   0.680   3.939   7.725 -1.7269  1.7326  0.6673
  549MOL     C644942   0.507   4.042   7.587 -0.1425 -0.0069 -0.4180
  549MOL     O744943   0.479   4.176   7.575  0.2877  0.1909 -0.0656
  549MOL     H844944   0.476   4.000   7.683 -1.3966 -1.9315 -1.6230
  549MOL     H944945   0.441   3.996   7.513  0.5467 -1.9329  0.1313
  549MOL    C1044946   0.493   4.225   7.444  0.0303 -0.5870 -0.1387
  549MOL    O1144947   0.531   4.360   7.454 -0.0069  0.0268 -0.1747
  549MOL    H1244948   0.402   4.210   7.386 -1.2106  0.3938  1.5017
  549MOL    H1344949   0.575   4.180   7.388  0.4214 -0.9545  0.7372
  549MOL    C1444950   0.425   4.446   7.476  1.0850 -0.7201  0.0805
  549MOL    O1544951   0.358   4.466   7.361  0.1763  0.4580  0.3783
  549MOL    H1644952   0.478   4.541   7.482 -1.7043  1.0570 -1.9716
  549MOL    H1744953   0.356   4.430   7.559 -1.9529  1.5392 -1.9156
  549MOL    C1844954   0.285   4.586   7.355 -0.4390 -0.7480  0.5073
  549MOL    O1944955   0.374   4.695   7.346 -0.0015  0.2988 -0.0420
  549MOL    H2044956   0.219   4.602   7.440 -0.3222  1.9383  0.1137
  549MOL    H2144957   0.221   4.579   7.267 -1.0437  1.3704  0.7533
  549MOL    C2244958   0.313   4.797   7.273  0.2547  0.3458  0.0466
  549MOL    O2344959   0.187   4.829   7.326 -0.5157  0.7909 -0.2392
  549MOL    H2444960   0.303   4.768   7.169  1.7867 -0.6339  0.1482
  549MOL    H2544961   0.379   4.883   7.280 -0.1544  0.7392 -0.9641
  549MOL    C2644962   0.110   4.916   7.236 -0.2499 -0.1183  0.0899
  549MOL    O2744963   0.052   4.840   7.140 -0.1583 -0.0957 -0.3513
  549MOL    H2844964   0.159   5.000   7.187  2.4899 -1.1602  0.9568
  549MOL    H2944965   0.041   4.972   7.299  1.4743  2.1089  0.0885
  549MOL    C3044966   7.742   4.750   7.191 -0.2205  0.6285  0.4347
  549MOL    O3144967   7.625   4.816   7.236 -0.4744  0.0284  0.6904
  549MOL    H3244968   0.001   4.702   7.278  0.4920 -0.6798 -0.6083
  549MOL    H3344969   7.718   4.671   7.119  0.3399  1.1864 -0.3798
  549MOL    C3444970   7.552   4.866   7.134  0.3614 -0.4499  0.3240
  549MOL    O3544971   7.495   4.760   7.064 -0.3218  0.4227  0.2522
  549MOL    H3644972   7.601   4.949   7.083 -0.4586  0.4825  1.0245
  549MOL    H3744973   7.480   4.924   7.191 -0.0307 -1.6721  1.0991
  549MOL    C3844974   7.419   4.803   6.957  0.1401 -0.0025 -0.4679
  549MOL    O3944975   7.494   4.860   6.855  0.0238  0.1730  0.3648
  549MOL    H4044976   7.346   4.880   6.980 -1.2020 -1.2775 -0.3705
  549MOL    H4144977   7.356   4.724   6.916  0.2344  0.3758 -1.3553
  549MOL    C4244978   7.569   4.762   6.787  0.5714 -0.2344  0.2533
  549MOL    O4344979   7.489   4.655   6.739 -0.1602 -0.0773 -0.3528
  549MOL    H4444980   7.643   4.733   6.862  0.3387  1.3068  1.0917
  549MOL    H4544981   7.622   4.803   6.701 -0.4275  1.5116  0.4622
  549MOL    C4644982   7.560   4.537   6.704 -0.8429 -0.2819 -0.2750
  549MOL    O4744983   7.623   4.534   6.578  0.5869 -0.3194  0.7811
  549MOL    H4844984   7.492   4.451   6.702 -0.7317 -0.4029 -4.4042
  549MOL    H4944985   7.632   4.523   6.785 -0.4744  0.8907 -0.3941
  549MOL    C5044986   7.689   4.417   6.550 -0.4918  0.5260 -0.1913
  549MOL    O5144987   7.602   4.307   6.528 -0.0597 -0.0979  0.5892
  549MOL    H5244988   7.742   4.391   6.642 -1.6692  0.1113  0.3801
  549MOL    H5344989   7.775   4.430   6.483 -0.0886 -0.8604  0.0450
  549MOL    C5444990   7.613   4.259   6.405  0.1938  0.1867 -0.3949
  549MOL    O5544991   7.740   4.218   6.368  0.1658  0.0524  0.7040
  549MOL    H5644992   7.583   4.343   6.342  2.0292  0.6151 -0.7137
  549MOL    H5744993   7.537   4.181   6.398 -0.9656  1.1832  0.8592
  549MOL    C5844994   7.761   4.083   6.396  0.1157  0.3860 -0.1555
  549MOL    O5944995   7.669   3.996   6.335 -0.2244 -0.8291  0.2122
  549MOL    H6044996   7.745   4.064   6.502  0.3245  0.1868 -0.1582
  549MOL    H6144997   0.083   4.073   6.371  1.3202  0.1878  4.5288
  549MOL    C6244998   7.702   3.861   6.360 -0.4829 -0.4511 -0.6861
  549MOL    O6344999   7.677   3.831   6.490 -0.5372  0.3802  0.3100
  549MOL    H6445000   0.024   3.845   6.341 -0.2954  2.0088 -1.9234
  549MOL    H6545001   7.657   3.800   6.283 -1.0170  0.2919 -0.9642
  549MOL    C6645002   7.544   3.798   6.519 -0.3093  0.6326 -0.1497
  549MOL    O6745003   7.490   3.680   6.464 -0.4101 -0.1668 -0.6839
  549MOL    H6845004   7.474   3.877   6.494  0.1471  0.8091 -0.8701
  549MOL    H6945005   7.523   3.798   6.626  0.0434 -0.5873 -0.0666
  549MOL    C7045006   7.540   3.567   6.529 -0.0587 -0.0542  0.0130
  549MOL    O7145007   7.472   3.531   6.652 -0.2390  0.0340  0.0738
  549MOL    H7245008   7.644   3.589   6.550  0.1297  0.0352 -0.9853
  549MOL    H7345009   7.528   3.481   6.464 -0.7734  0.8082 -1.0077
  549MOL    C7445010   7.330   3.522   6.635 -0.2500 -0.8448 -0.1754
  549MOL    O7545011   7.295   3.434   6.529 -0.5238 -0.6442 -0.2713
  549MOL    H7645012   7.299   3.623   6.608 -0.1196 -0.3754  1.3504
  549MOL    H7745013   7.279   3.498   6.729 -2.7929  2.6564 -0.5356
  549MOL    C7845014   7.323   3.299   6.567  0.1003 -0.6031  0.6257
  549MOL    O7945015   7.280   3.208   6.467 -0.4011  0.3667 -0.0301
  549MOL    H8045016   7.281   3.278   6.666  0.1895 -0.2646  0.7353
  549MOL    H8145017   7.428   3.282   6.590  0.5168 -1.0707 -1.5075
  549MOL    H8245018   7.281   3.123   6.509  0.4187 -0.4458 -1.6530
  550MOL     C145019   7.336   6.576   3.128  0.0590 -0.6851  0.1485
  550MOL     O245020   7.294   6.546   2.992  0.4368 -0.4585  0.2790
  550MOL     H345021   7.248   6.565   3.193 -0.1924  2.0207  0.3272
  550MOL     H445022   7.409   6.498   3.150  1.6855 -0.2075 -3.3109
  550MOL     H545023   7.379   6.675   3.140  0.4906 -0.6924 -1.3629
  550MOL     C645024   7.256   6.414   2.969  0.1770 -0.1603  0.6911
  550MOL     O745025   7.123   6.398   3.009  0.2706  0.8146 -0.8319
  550MOL     H845026   7.305   6.343   3.036  1.3690 -1.6254 -1.6338
  550MOL     H945027   7.287   6.376   2.871  3.2530 -0.2007  1.6133
  550MOL    C1045028   7.041   6.440   2.913 -0.0818  0.4862 -0.2541
  550MOL    O1145029   6.906   6.417   2.952  0.6606 -0.4752 -0.1952
  550MOL    H1245030   7.053   6.375   2.826  1.0761 -0.0959  0.3288
  550MOL    H1345031   7.056   6.547   2.898  0.6933  0.7646  2.3304
  550MOL    C1445032   6.866   6.279   2.945 -0.3269 -0.2984 -0.3793
  550MOL    O1545033   6.810   6.256   2.817 -0.2036 -0.5605 -0.2877
  550MOL    H1645034   6.805   6.253   3.032  0.8390 -0.6259  0.3403
  550MOL    H1745035   6.948   6.210   2.960  0.8497  1.2480  0.4452
  550MOL    C1845036   6.786   6.118   2.792 -0.0545 -0.5535 -0.3132
  550MOL    O1945037   6.901   6.056   2.748 -0.1774  0.8458  0.1863
  550MOL    H2045038   6.710   6.114   2.713 -1.1030 -1.4624  0.7129
  550MOL    H2145039   6.749   6.070   2.883 -0.7173 -0.0586 -0.3169
  550MOL    C2245040   6.882   5.938   2.677  0.1006  0.7864  0.2632
  550MOL    O2345041   6.820   5.952   2.551  0.4767 -0.0911  0.0190
  550MOL    H2445042   6.828   5.876   2.748 -3.4489  1.6297 -1.6165
  550MOL    H2545043   6.983   5.900   2.660 -0.4160 -0.1855 -0.7150
  550MOL    C2645044   6.901   6.004   2.448  0.3435  0.2083  1.0294
  550MOL    O2745045   6.995   5.915   2.396 -0.5700  0.0028 -0.9353
  550MOL    H2845046   6.945   6.089   2.502 -2.6073  2.8852 -0.5789
  550MOL    H2945047   6.837   6.049   2.372  0.3501 -0.2323  0.7628
  550MOL    C3045048   7.102   5.988   2.343  0.0040  0.0931 -0.6735
  550MOL    O3145049   7.177   6.034   2.447 -0.1919 -0.1015 -0.3269
  550MOL    H3245050   7.067   6.077   2.291 -0.2876  0.1497 -0.3830
  550MOL    H3345051   7.159   5.936   2.266  0.7929  2.1677 -1.5357
  550MOL    C3445052   7.249   5.945   2.514  0.6420 -0.1043 -0.2491
  550MOL    O3545053   7.335   6.024   2.587  0.3924 -0.0981 -0.5071
  550MOL    H3645054   7.308   5.883   2.446  1.4380 -1.4929  1.6549
  550MOL    H3745055   7.188   5.877   2.574  1.3608 -1.7956 -1.3978
  550MOL    C3845056   7.284   6.080   2.704  0.0542  0.0409 -0.4842
  550MOL    O3945057   7.368   6.165   2.760 -0.3721  0.1655  0.2209
  550MOL    H4045058   7.250   5.995   2.763 -0.4612  0.0916 -0.7001
  550MOL    H4145059   7.206   6.151   2.679  1.7947  1.5426 -1.8134
  550MOL    C4245060   7.462   6.106   2.846  0.3139 -0.5327 -0.5464
  550MOL    O4345061   7.408   6.087   2.969 -0.2547  0.0441  0.4012
  550MOL    H4445062   7.548   6.172   2.846  0.5254 -0.7977 -1.9542
  550MOL    H4545063   7.505   6.014   2.805 -0.8957 -1.2218 -0.2987
  550MOL    C4645064   7.489   6.012   3.053  0.4620 -0.1001 -0.2004
  550MOL    O4745065   7.610   6.061   3.059  0.0192 -0.6708  0.1682
  550MOL    H4845066   7.519   5.916   3.012 -0.1603  0.3267 -1.6837
  550MOL    H4945067   7.457   6.006   3.157  0.1311  0.1369 -0.2878
  550MOL    C5045068   7.629   6.179   3.134  0.6233  0.2516  0.0509
  550MOL    O5145069   7.756   6.222   3.134 -0.3634 -0.1774 -0.0679
  550MOL    H5245070   7.603   6.151   3.236 -0.4416 -0.1668 -0.3241
  550MOL    H5345071   7.557   6.259   3.114 -1.8227 -1.8600  0.1206
  550MOL    C5445072   0.018   6.276   3.012 -0.4475 -0.1946 -0.4011
  550MOL    O5545073   7.738   6.399   2.990 -0.1806  1.2666  0.3662
  550MOL    H5645074   7.780   6.202   2.935  1.2353 -0.0563 -1.0471
  550MOL    H5745075   0.126   6.292   3.001 -0.4770  2.0888  2.1302
  550MOL    C5845076   7.777   6.509   3.071 -0.0666 -0.7282 -0.6075
  550MOL    O5945077   0.107   6.561   3.027 -0.0030 -0.1119  0.7412
  550MOL    H6045078   0.004   6.485   3.176 -0.7914  1.2118 -0.0781
  550MOL    H6145079   7.702   6.588   3.059  2.5773  2.0089  0.2901
  550MOL    C6245080   0.144   6.673   3.099 -0.1526 -0.6003  0.5211
  550MOL    O6345081   0.210   6.643   3.220 -0.0167 -0.0641  0.1264
  550MOL    H6445082   0.057   6.734   3.120  0.7655  0.9101  0.0110
  550MOL    H6545083   0.211   6.720   3.028  0.2894 -0.0246  1.3076
  550MOL    C6645084   0.327   6.569   3.203 -0.2764  0.1225  0.4992
  550MOL    O6745085   0.401   6.541   3.316  0.0240  0.0666  0.2062
  550MOL    H6845086   0.381   6.635   3.136  1.3948 -0.5757  1.1511
  550MOL    H6945087   0.298   6.478   3.149  0.7733 -1.6563  2.8286
  550MOL    C7045088   0.331   6.457   3.401  0.0161  0.5095 -0.3957
  550MOL    O7145089   0.336   6.327   3.355  0.0608 -0.3254  0.6239
  550MOL    H7245090   0.226   6.480   3.420  0.1736  0.0624  1.1223
  550MOL    H7345091   0.373   6.455   3.502 -1.0531  2.1462  0.0987
  550MOL    C7445092   0.439   6.256   3.407 -0.2001 -0.5195 -0.1841
  550MOL    O7545093   0.400   6.195   3.525  0.6796 -0.0345 -0.2495
  550MOL    H7645094   0.531   6.314   3.412 -0.0458 -0.6927 -1.0154
  550MOL    H7745095   0.446   6.175   3.334 -1.7870  0.2864 -1.2381
  550MOL    C7845096   0.282   6.125   3.522  0.3082 -0.0612  1.0487
  550MOL    O7945097   0.263   6.046   3.635  0.2147  0.0149 -0.6961
  550MOL    H8045098   0.277   6.054   3.440  1.2482 -0.4945  1.3478
  550MOL    H8145099   0.193   6.186   3.509  0.7826  0.4445  0.1646
  550MOL    H8245100   0.320   5.971   3.629 -0.8973 -0.9904  0.9831
  551MOL     C145101   1.935   3.468   2.353 -0.5817  0.2481 -0.0967
  551MOL     O245102   1.887   3.507   2.479  0.2464  0.0542 -0.3047
  551MOL     H345103   1.859   3.444   2.278  0.7021 -3.5379 -0.3092
  551MOL     H445104   1.990   3.545   2.299  0.5587  0.6060  1.5597
  551MOL     H545105   1.997   3.379   2.363 -0.9717 -0.1153 -0.8070
  551MOL     C645106   1.996   3.538   2.569  0.1355 -0.1224  0.0433
  551MOL     O745107   2.065   3.660   2.549  0.5926  0.1594  0.1588
  551MOL     H845108   2.075   3.464   2.579 -0.0329 -0.1829  0.8956
  551MOL     H945109   1.962   3.539   2.672  0.2167  0.0970  0.0694
  551MOL    C1045110   1.981   3.775   2.559 -0.3504  0.1260  0.7872
  551MOL    O1145111   1.969   3.816   2.690  0.2768 -0.6404  0.5709
  551MOL    H1245112   1.878   3.756   2.529 -0.0340 -1.0165  0.4123
  551MOL    H1345113   2.029   3.849   2.494 -2.4502 -0.1383 -1.1340
  551MOL    C1445114   2.083   3.857   2.751  0.0713 -0.4926 -0.0318
  551MOL    O1545115   2.140   3.962   2.680  0.1647 -0.1729 -0.8111
  551MOL    H1645116   2.153   3.773   2.754  2.0673  1.1584  0.8974
  551MOL    H1745117   2.060   3.893   2.851  0.7571  1.4593 -0.5491
  551MOL    C1845118   2.275   3.990   2.707 -0.4644  0.0671  0.3146
  551MOL    O1945119   2.288   4.010   2.846  0.2107 -0.4260  0.7192
  551MOL    H2045120   2.317   4.075   2.654  1.9820  0.4407  2.7423
  551MOL    H2145121   2.337   3.903   2.685  0.9317  0.7099  1.6402
  551MOL    C2245122   2.271   4.146   2.888 -0.0477  0.3397 -0.5795
  551MOL    O2345123   2.375   4.222   2.847  0.0678 -0.5306  0.1807
  551MOL    H2445124   2.279   4.148   2.996 -0.3900 -0.2183 -0.5406
  551MOL    H2545125   2.175   4.189   2.860 -0.3901 -1.3460 -2.1007
  551MOL    C2645126   2.501   4.174   2.883  0.4084 -0.2793  0.3442
  551MOL    O2745127   2.511   4.159   3.018  0.5126  0.1382  0.2076
  551MOL    H2845128   2.584   4.231   2.839 -1.1764  0.5923 -1.6260
  551MOL    H2945129   2.534   4.079   2.840  1.1908 -0.1714  0.6836
  551MOL    C3045130   2.566   4.268   3.085 -0.2132  0.8391 -0.0665
  551MOL    O3145131   2.577   4.257   3.219 -0.3030 -0.0709 -0.5102
  551MOL    H3245132   2.507   4.360   3.075 -1.5735  0.0977  0.9158
  551MOL    H3345133   2.662   4.291   3.040 -0.8667  1.3185 -1.2342
  551MOL    C3445134   2.694   4.187   3.257  0.1883  0.0718  0.6770
  551MOL    O3545135   2.797   4.278   3.283 -0.0719  0.1749  0.5015
  551MOL    H3645136   2.714   4.112   3.180 -0.4015  3.3462 -2.7925
  551MOL    H3745137   2.675   4.124   3.344  1.6820 -1.4374 -0.0407
  551MOL    C3845138   2.773   4.354   3.401 -0.1552  0.5638  0.4859
  551MOL    O3945139   2.773   4.266   3.513  0.6258  0.6030 -0.8926
  551MOL    H4045140   2.684   4.415   3.403 -1.8275 -1.7587 -0.3240
  551MOL    H4145141   2.859   4.419   3.415  0.3543  0.2074 -0.9510
  551MOL    C4245142   2.781   4.331   3.632  0.5399 -0.5531  0.5265
  551MOL    O4345143   2.905   4.391   3.652  0.2344  0.6005  0.5146
  551MOL    H4445144   2.770   4.259   3.713  0.4103  0.0520  1.0487
  551MOL    H4545145   2.707   4.411   3.638  3.1858  1.8015  3.1351
  551MOL    C4645146   3.007   4.300   3.677  0.3232  0.2156  0.3238
  551MOL    O4745147   2.995   4.253   3.812 -0.2163  0.3225  0.1607
  551MOL    H4845148   3.100   4.348   3.646  0.4018  1.8566  2.9406
  551MOL    H4945149   3.000   4.215   3.609  1.7342  0.3590 -0.0279
  551MOL    C5045150   3.011   4.354   3.906 -0.5734 -0.5830  0.1430
  551MOL    O5145151   3.138   4.399   3.920  0.2697  0.3714  0.0238
  551MOL    H5245152   2.982   4.299   3.995  0.4997 -1.3901  0.0085
  551MOL    H5345153   2.943   4.439   3.897  1.2130  0.6746 -1.9253
  551MOL    C5445154   3.221   4.303   3.988 -0.6833  0.4140  0.2894
  551MOL    O5545155   3.204   4.294   4.124 -0.0416 -0.3700 -0.2125
  551MOL    H5645156   3.326   4.318   3.963 -0.5397 -0.3906  0.3964
  551MOL    H5745157   3.204   4.206   3.940 -1.2213 -0.0034  1.2961
  551MOL    C5845158   3.288   4.389   4.196  0.1927  0.3407 -0.2015
  551MOL    O5945159   3.424   4.363   4.178 -0.7377  0.0301  0.4167
  551MOL    H6045160   3.253   4.386   4.299 -1.6529  0.3328 -0.8021
  551MOL    H6145161   3.269   4.490   4.161  1.1713  0.1118 -1.4309
  551MOL    C6245162   3.462   4.262   4.262 -0.4499  0.5978 -0.2889
  551MOL    O6345163   3.591   4.212   4.244  0.1974  0.1550 -0.1915
  551MOL    H6445164   3.408   4.169   4.241  0.3474  0.0288  0.1396
  551MOL    H6545165   3.456   4.282   4.368 -0.5979 -2.5263  0.3521
  551MOL    C6645166   3.703   4.291   4.278 -0.0660 -0.0169 -0.5306
  551MOL    O6745167   3.756   4.264   4.400  0.0046  0.1498  0.0073
  551MOL    H6845168   3.679   4.398   4.279  1.4574  0.3310  0.0576
  551MOL    H6945169   3.771   4.275   4.195  0.6662 -1.0889  0.2607
  551MOL    C7045170   3.797   4.133   4.417 -0.4821 -0.5174 -0.1006
  551MOL    O7145171   3.877   4.127   4.529 -0.4427 -0.3176  0.1218
  551MOL    H7245172   3.845   4.096   4.326  1.5642 -0.3919  0.9198
  551MOL    H7345173   3.708   4.072   4.433 -0.2722 -0.5550  0.9106
  551MOL    C7445174   3.955   4.009   4.529 -0.0760  0.7139 -0.0853
  551MOL    O7545175   4.058   4.012   4.434  0.3605  1.1181 -0.1523
  551MOL    H7645176   3.908   3.914   4.504  1.3945 -0.5799  1.8727
  551MOL    H7745177   3.987   3.988   4.631  1.5811 -1.1752 -0.9729
  551MOL    C7845178   4.138   4.124   4.449 -0.6541  0.4134 -0.4848
  551MOL    O7945179   4.255   4.110   4.370 -0.0261  0.0936 -0.1902
  551MOL    H8045180   4.177   4.139   4.549  1.9458  0.6133 -1.4668
  551MOL    H8145181   4.080   4.212   4.420 -0.7111  0.6770  0.4377
  551MOL    H8245182   4.308   4.046   4.414 -2.9885 -1.9433  0.5421
  552MOL     C145183   2.346   1.536   4.198 -0.3723  1.0448 -0.3950
  552MOL     O245184   2.292   1.429   4.270  0.0597  0.1375  0.3805
  552MOL     H345185   2.362   1.620   4.265 -3.6212  1.3400  0.1074
  552MOL     H445186   2.433   1.505   4.142 -0.7600 -0.8159 -0.0024
  552MOL     H545187   2.280   1.579   4.122 -2.1456 -2.8524 -1.1948
  552MOL     C645188   2.175   1.456   4.340 -0.4252 -0.7570 -0.4451
  552MOL     O745189   2.179   1.570   4.424 -0.2836  0.0466  0.1670
  552MOL     H845190   2.147   1.375   4.408 -1.2671 -1.3236 -1.4595
  552MOL     H945191   2.089   1.461   4.275 -1.1641  0.6130  0.6193
  552MOL    C1045192   2.257   1.552   4.539  0.1038  0.6288  0.3289
  552MOL    O1145193   2.200   1.458   4.630 -0.0238 -0.0458  0.6148
  552MOL    H1245194   2.263   1.652   4.582  0.5971  1.5590 -1.8367
  552MOL    H1345195   2.361   1.522   4.524  0.4948  1.6319  0.9557
  552MOL    C1445196   2.270   1.441   4.752 -0.4471 -0.6221 -0.2429
  552MOL    O1545197   2.260   1.553   4.830 -0.7190  0.4299 -0.2523
  552MOL    H1645198   2.373   1.417   4.727 -0.2483  2.5501 -2.8242
  552MOL    H1745199   2.229   1.354   4.804 -0.1545 -1.9855 -2.2428
  552MOL    C1845200   2.141   1.552   4.899 -0.0886 -0.0900 -0.7200
  552MOL    O1945201   2.116   1.671   4.966  0.0782 -0.6960  0.0859
  552MOL    H2045202   2.153   1.478   4.978 -0.0625  1.8467  1.1190
  552MOL    H2145203   2.056   1.511   4.845 -0.2147 -1.4673  0.4970
  552MOL    C2245204   2.032   1.759   4.900 -0.7327 -0.3643  0.0054
  552MOL    O2345205   1.900   1.715   4.921 -0.3892  0.0388 -0.0920
  552MOL    H2445206   2.064   1.768   4.796  2.8373 -1.5374  0.9087
  552MOL    H2545207   2.044   1.860   4.940 -1.0818 -0.6397  0.8186
  552MOL    C2645208   1.858   1.760   5.051 -0.0523  0.1606  0.4762
  552MOL    O2745209   1.802   1.888   5.049  0.2567  0.7156  0.2328
  552MOL    H2845210   1.939   1.791   5.118 -0.4672 -0.4965  1.2901
  552MOL    H2945211   1.788   1.685   5.087 -0.8302  0.0208 -1.2965
  552MOL    C3045212   1.680   1.888   4.993 -0.1103 -0.7680 -0.5179
  552MOL    O3145213   1.583   1.830   5.062  0.2486  0.2992  0.7763
  552MOL    H3245214   1.693   1.830   4.901  2.1190 -2.0668  0.5749
  552MOL    H3345215   1.668   1.995   4.978 -1.7797 -1.1902 -2.3851
  552MOL    C3445216   1.556   1.885   5.193 -0.3616 -0.1445  0.3153
  552MOL    O3545217   1.468   1.805   5.262  0.2471  0.5470  0.0996
  552MOL    H3645218   1.533   1.991   5.199  2.2281  0.4754 -0.1432
  552MOL    H3745219   1.648   1.870   5.249 -1.4939 -0.3782  2.1716
  552MOL    C3845220   1.337   1.842   5.230  0.1781  0.2648 -0.1203
  552MOL    O3945221   1.310   1.971   5.276  0.1181  0.4090  0.3220
  552MOL    H4045222   1.268   1.777   5.284  0.1829 -0.6381 -1.1765
  552MOL    H4145223   1.316   1.841   5.123  0.8630 -1.5689 -0.2564
  552MOL    C4245224   1.263   1.988   5.409  0.4202  0.6634 -0.3267
  552MOL    O4345225   1.132   1.935   5.428  0.4519 -0.0520 -0.3684
  552MOL    H4445226   1.252   2.096   5.422 -2.2306  0.2582  0.9326
  552MOL    H4545227   1.329   1.944   5.483  0.9811 -1.1151 -1.8388
  552MOL    C4645228   1.025   2.012   5.373  0.3124  0.6942  0.4952
  552MOL    O4745229   0.999   2.128   5.444 -0.6871  0.2120 -0.1585
  552MOL    H4845230   0.938   1.947   5.372  0.2954  0.7037 -1.6237
  552MOL    H4945231   1.046   2.023   5.266 -2.9414  0.8343 -0.1598
  552MOL    C5045232   0.883   2.189   5.397 -0.2915  0.3289  0.1899
  552MOL    O5145233   0.894   2.244   5.272  0.3571  0.0925  0.2302
  552MOL    H5245234   0.850   2.267   5.466 -2.0722  1.2275 -1.6024
  552MOL    H5345235   0.807   2.115   5.422  0.6524 -1.1310 -1.2242
  552MOL    C5445236   0.977   2.358   5.265 -0.0380 -0.2924  0.0218
  552MOL    O5545237   1.112   2.325   5.257  0.3173  0.2738 -0.1508
  552MOL    H5645238   0.949   2.438   5.333  1.6664  1.6848 -1.5458
  552MOL    H5745239   0.949   2.410   5.174  1.7035  0.9959  0.1915
  552MOL    C5845240   1.190   2.425   5.314 -0.2175 -0.5480  0.1343
  552MOL    O5945241   1.159   2.555   5.274  0.1108  0.1547  0.2817
  552MOL    H6045242   1.293   2.396   5.293 -0.9389 -1.1609 -2.8976
  552MOL    H6145243   1.186   2.424   5.423 -0.2864 -0.2861  0.1351
  552MOL    C6245244   1.230   2.591   5.156 -0.1824  0.1710  0.3664
  552MOL    O6345245   1.213   2.506   5.046 -0.5266  0.5668 -0.2903
  552MOL    H6445246   1.333   2.586   5.192  0.0432  0.1867 -0.2677
  552MOL    H6545247   1.220   2.697   5.133  1.1323  0.2567  0.1464
  552MOL    C6645248   1.118   2.545   4.952 -0.0861  0.1538  0.2817
  552MOL    O6745249   1.180   2.558   4.833  0.5871  0.0669 -0.1016
  552MOL    H6845250   1.070   2.635   4.991 -1.5182 -0.9761  1.2339
  552MOL    H6945251   1.036   2.475   4.934  1.2623 -1.0660 -1.2173
  552MOL    C7045252   1.226   2.440   4.782  0.1470 -0.3079 -0.7502
  552MOL    O7145253   1.129   2.356   4.726 -0.1441  0.0702  0.2506
  552MOL    H7245254   1.276   2.378   4.857 -1.2120  0.2303  0.6242
  552MOL    H7345255   1.297   2.470   4.705  0.8794 -0.1837 -0.0424
  552MOL    C7445256   1.069   2.411   4.614  0.0096  0.3389 -0.4658
  552MOL    O7545257   1.153   2.404   4.498  0.1860  0.3614  0.0165
  552MOL    H7645258   1.022   2.507   4.635 -2.5535 -0.4760 -2.2382
  552MOL    H7745259   0.984   2.345   4.595  1.4820 -1.8612  0.3943
  552MOL    C7845260   1.192   2.275   4.470  0.2732  1.0430 -0.5172
  552MOL    O7945261   1.229   2.266   4.331 -0.5328  0.2009 -0.4170
  552MOL    H8045262   1.104   2.213   4.486  0.5560  0.7000 -0.2816
  552MOL    H8145263   1.274   2.233   4.528 -1.6709  0.5665  1.9502
  552MOL    H8245264   1.156   2.245   4.274 -0.9641  0.7126 -0.0643
  553MOL     C145265   5.265   2.028   1.320 -0.5709  0.1059  0.0271
  553MOL     O245266   5.152   2.054   1.402  0.3966 -0.2242  0.1217
  553MOL     H345267   5.339   2.107   1.308  0.8999 -1.2722 -0.1144
  553MOL     H445268   5.327   1.947   1.357  0.7049 -0.2167 -2.7194
  553MOL     H545269   5.219   1.997   1.226 -2.0757 -0.3164  0.8792
  553MOL     C645270   5.191   2.067   1.535 -0.4636 -0.3840  0.1594
  553MOL     O745271   5.230   2.194   1.556 -0.0232 -0.0863  0.0006
  553MOL     H845272   5.262   1.988   1.562  0.9706  1.3805  1.7583
  553MOL     H945273   5.106   2.052   1.602 -1.4300  1.0315 -0.7143
  553MOL    C1045274   5.248   2.221   1.692  0.0537 -0.4147 -0.5311
  553MOL    O1145275   5.347   2.140   1.745  0.1276 -0.3963 -0.1010
  553MOL    H1245276   5.160   2.195   1.752 -0.5861 -2.0198 -2.1211
  553MOL    H1345277   5.280   2.323   1.711  2.6801 -0.7562 -2.9622
  553MOL    C1445278   5.479   2.165   1.710  0.3207 -0.2256 -0.6808
  553MOL    O1545279   5.530   2.277   1.780 -0.3404  0.1871  0.1988
  553MOL    H1645280   5.479   2.171   1.601 -0.9805 -1.6388 -0.7832
  553MOL    H1745281   5.548   2.083   1.733  1.1212  0.6037 -0.1240
  553MOL    C1845282   5.522   2.269   1.922  0.4663 -0.3250 -0.0840
  553MOL    O1945283   5.575   2.154   1.968 -0.1799  0.1324  0.1028
  553MOL    H2045284   5.418   2.268   1.955  0.3498 -0.8664 -0.4642
  553MOL    H2145285   5.562   2.361   1.966 -2.1698 -0.0190  1.8194
  553MOL    C2245286   5.547   2.128   2.100  0.1318  0.6110 -0.1464
  553MOL    O2345287   5.592   2.226   2.187  0.2991 -0.2181  0.6885
  553MOL    H2445288   5.582   2.029   2.128  2.0745  1.1387 -0.6583
  553MOL    H2545289   5.438   2.130   2.109  0.1311 -0.6916  0.2097
  553MOL    C2645290   5.734   2.226   2.207 -0.0067 -0.6086  0.4084
  553MOL    O2745291   5.781   2.113   2.274 -0.2530  0.0051  0.4388
  553MOL    H2845292   5.764   2.314   2.265 -1.3199 -0.4767  0.9040
  553MOL    H2945293   5.778   2.240   2.108 -0.9454  0.1064  0.0809
  553MOL    C3045294   5.743   2.107   2.410 -0.1083  0.1860  0.0292
  553MOL    O3145295   5.790   2.215   2.491  0.0852  0.6809  0.3581
  553MOL    H3245296   5.775   2.017   2.462 -1.8558  0.5516  1.8203
  553MOL    H3345297   5.634   2.109   2.414 -0.0738 -0.3964  1.5144
  553MOL    C3445298   5.927   2.222   2.492  0.3294 -0.0081  0.5435
  553MOL    O3545299   5.960   2.311   2.589 -0.2743 -0.2000  0.8371
  553MOL    H3645300   5.965   2.246   2.393 -1.7164 -0.2547 -0.3394
  553MOL    H3745301   5.971   2.124   2.514  0.9801  0.1187 -0.1895
  553MOL    C3845302   5.945   2.256   2.718 -0.0477 -0.0314  0.4489
  553MOL    O3945303   6.057   2.181   2.748 -0.1148  0.1903  0.4873
  553MOL    H4045304   5.854   2.197   2.727 -0.3481  0.3312 -0.1867
  553MOL    H4145305   5.934   2.342   2.785 -1.7764  1.0858 -1.2226
  553MOL    C4245306   6.049   2.104   2.865  0.2302  0.1375  0.2872
  553MOL    O4345307   6.067   2.182   2.982  0.1567  0.6273 -0.9629
  553MOL    H4445308   6.126   2.027   2.861  1.1921  1.1771 -4.5027
  553MOL    H4545309   5.958   2.044   2.867  0.1046  0.2913 -0.6035
  553MOL    C4645310   6.075   2.108   3.102 -1.1172 -0.3198 -0.0382
  553MOL    O4745311   6.199   2.042   3.109 -0.4445 -0.2599 -0.1515
  553MOL    H4845312   5.992   2.039   3.110 -1.0790 -0.4231 -0.5471
  553MOL    H4945313   6.076   2.172   3.191 -2.5138  0.2726 -0.4407
  553MOL    C5045314   6.301   2.126   3.142  0.1701  0.3691  0.1346
  553MOL    O5145315   6.426   2.069   3.110 -0.0274  0.1519  0.5979
  553MOL    H5245316   6.317   2.122   3.250 -0.4656  0.9684  0.2583
  553MOL    H5345317   6.287   2.230   3.110 -4.4773  0.0803  0.9167
  553MOL    C5445318   6.532   2.163   3.133  0.3507  0.0519 -0.2128
  553MOL    O5545319   6.558   2.244   3.024  0.2211 -0.1039  0.6555
  553MOL    H5645320   6.625   2.113   3.160  0.4590  0.5610  0.3617
  553MOL    H5745321   6.501   2.230   3.214  1.1108 -1.4091  1.3256
  553MOL    C5845322   6.622   2.186   2.919  0.3028  0.0944  0.0478
  553MOL    O5945323   6.746   2.141   2.951 -0.4508  0.0075 -0.3363
  553MOL    H6045324   6.648   2.257   2.841  0.1767  0.1742  0.0785
  553MOL    H6145325   6.564   2.098   2.891  0.4586 -0.3906  1.2338
  553MOL    C6245326   6.845   2.240   2.964  0.3462 -0.9111 -0.7458
  553MOL    O6345327   6.893   2.288   2.839  0.2066 -0.0925  0.0073
  553MOL    H6445328   6.932   2.202   3.018  0.6689 -0.9531 -1.2918
  553MOL    H6545329   6.802   2.318   3.027  1.4417  0.1017 -1.2281
  553MOL    C6645330   6.982   2.203   2.774 -0.4489  0.2845 -0.0264
  553MOL    O6745331   7.117   2.199   2.830  0.2130  0.3566  0.7386
  553MOL    H6845332   6.991   2.241   2.672 -0.2638 -1.8563 -0.8273
  553MOL    H6945333   6.941   2.103   2.767 -0.3361  0.2300  0.1078
  553MOL    C7045334   7.213   2.167   2.737  0.7660 -0.0254  0.1542
  553MOL    O7145335   7.294   2.274   2.690  0.5736  1.0335  0.2480
  553MOL    H7245336   7.174   2.105   2.656  2.3110 -0.3896 -0.3381
  553MOL    H7345337   7.278   2.103   2.797 -0.1447 -1.8085 -0.7104
  553MOL    C7445338   7.227   2.377   2.639  0.4950  0.4929  0.4749
  553MOL    O7545339   7.151   2.342   2.525  0.1485  0.6530 -0.3849
  553MOL    H7645340   7.305   2.450   2.615  1.3829 -0.8086 -0.6454
  553MOL    H7745341   7.155   2.404   2.716 -0.6604  0.0383 -0.4165
  553MOL    C7845342   7.230   2.320   2.417  0.9088  0.1097 -0.2069
  553MOL    O7945343   7.160   2.265   2.309  0.1726  0.1346 -0.3218
  553MOL    H8045344   7.315   2.258   2.444  1.2923  0.0025 -1.6561
  553MOL    H8145345   7.275   2.415   2.389  0.9522 -0.0332 -0.6251
  553MOL    H8245346   7.142   2.332   2.245 -1.3747 -2.1926 -2.4577
  554MOL     C145347   0.967   4.654   5.166 -0.1510  0.0219  0.5496
  554MOL     O245348   1.037   4.760   5.117  0.3331 -0.4312 -0.2286
  554MOL     H345349   0.877   4.699   5.209 -0.4574  2.6882 -2.6754
  554MOL     H445350   0.949   4.586   5.083  0.1954 -0.2710  0.7115
  554MOL     H545351   1.016   4.596   5.245  0.0124  1.1220  1.2732
  554MOL     C645352   1.157   4.727   5.060  0.3966  0.4947 -0.1489
  554MOL     O745353   1.253   4.692   5.157  0.6945  0.1185 -0.4489
  554MOL     H845354   1.194   4.807   4.995 -0.9516  0.1058 -1.4317
  554MOL     H945355   1.140   4.648   4.986  1.9624  1.1221 -1.1984
  554MOL    C1045356   1.301   4.797   5.236 -0.1563  0.1246  0.6951
  554MOL    O1145357   1.365   4.899   5.158  0.3884  0.4847  0.0728
  554MOL    H1245358   1.373   4.756   5.307  0.6206  1.9018  0.9482
  554MOL    H1345359   1.228   4.844   5.302  0.9844  1.2741  1.1647
  554MOL    C1445360   1.473   4.847   5.085 -0.4408 -0.1915  0.3374
  554MOL    O1545361   1.554   4.777   5.168  0.1547  0.4751 -0.6780
  554MOL    H1645362   1.535   4.924   5.041 -1.4554  1.8407  2.3309
  554MOL    H1745363   1.428   4.791   5.003  0.0596  0.9644 -0.7386
  554MOL    C1845364   1.660   4.707   5.101  0.5246 -0.1779 -0.4850
  554MOL    O1945365   1.763   4.799   5.096 -0.2875 -0.2858 -0.4815
  554MOL    H2045366   1.641   4.663   5.003  0.8062 -0.0971 -0.5763
  554MOL    H2145367   1.691   4.623   5.164 -1.2066 -1.7225 -1.6627
  554MOL    C2245368   1.877   4.752   5.037 -0.0311 -0.0474 -0.2280
  554MOL    O2345369   1.935   4.655   5.119 -0.2036 -0.8082 -0.7364
  554MOL    H2445370   1.942   4.837   5.016  0.1863 -0.0074  0.5612
  554MOL    H2545371   1.848   4.702   4.945 -1.3329 -1.5007  0.9309
  554MOL    C2645372   2.050   4.706   5.182  0.6395  0.2882  0.2285
  554MOL    O2745373   2.156   4.739   5.089  0.0866  0.3676  0.4180
  554MOL    H2845374   2.087   4.627   5.247 -1.0750  0.3865  1.3709
  554MOL    H2945375   2.008   4.784   5.246 -1.6829 -0.1606 -0.6769
  554MOL    C3045376   2.247   4.833   5.147  0.1254 -0.6346  0.3589
  554MOL    O3145377   2.186   4.959   5.168  0.1162  0.2333  0.1090
  554MOL    H3245378   2.330   4.836   5.076  0.0217 -0.1774  0.2552
  554MOL    H3345379   2.291   4.796   5.239  1.1161 -2.8097 -0.9489
  554MOL    C3445380   2.157   5.037   5.055  0.2270 -0.0132  0.1421
  554MOL    O3545381   2.265   5.041   4.965  0.5018  0.3627  0.6697
  554MOL    H3645382   2.143   5.136   5.098 -1.5788 -0.6758  1.1360
  554MOL    H3745383   2.073   5.011   4.989  0.5572 -1.7896  0.3935
  554MOL    C3845384   2.315   5.166   4.940  0.0989  0.4253  0.0280
  554MOL    O3945385   2.247   5.230   4.844  0.3716  0.1861 -0.6513
  554MOL    H4045386   2.419   5.162   4.909 -0.0542  0.5688 -0.5038
  554MOL    H4145387   2.310   5.227   5.030  2.7803 -1.0256  1.2138
  554MOL    C4245388   2.261   5.178   4.716 -0.4690  0.2409  0.6626
  554MOL    O4345389   2.391   5.174   4.672 -0.4686 -0.3017 -0.3123
  554MOL    H4445390   2.199   5.241   4.652  0.3065 -0.9176 -1.2768
  554MOL    H4545391   2.207   5.084   4.711  0.3639 -0.2692  1.2536
  554MOL    C4645392   2.443   5.292   4.620  0.8878  0.1715  0.3203
  554MOL    O4745393   2.568   5.277   4.555 -0.1546 -0.5756 -0.0523
  554MOL    H4845394   2.454   5.360   4.705 -0.9168 -0.7825  1.3405
  554MOL    H4945395   2.374   5.343   4.553  1.2958  0.5081  0.1508
  554MOL    C5045396   2.663   5.231   4.649 -0.3490 -0.3666  0.2772
  554MOL    O5145397   2.708   5.333   4.729  0.3582 -0.0048 -0.0286
  554MOL    H5245398   2.756   5.194   4.607 -0.7839 -0.3457 -0.7127
  554MOL    H5345399   2.622   5.152   4.713  0.6883  0.5874  2.1794
  554MOL    C5445400   2.786   5.434   4.661 -0.5200  0.0535  0.0434
  554MOL    O5545401   2.904   5.377   4.613  0.1754 -0.7451  0.3335
  554MOL    H5645402   2.804   5.516   4.731  0.1173 -2.0980  2.5173
  554MOL    H5745403   2.738   5.468   4.569 -1.7817 -2.1644 -0.1502
  554MOL    C5845404   3.010   5.386   4.700 -0.8603  0.1134 -0.5045
  554MOL    O5945405   3.089   5.493   4.661 -0.1946 -0.5067  0.0771
  554MOL    H6045406   3.063   5.291   4.692 -1.4207 -0.2336 -0.1903
  554MOL    H6145407   2.983   5.396   4.805 -1.1256  3.1888 -0.8321
  554MOL    C6245408   3.203   5.511   4.733  0.5128  0.1631 -0.2964
  554MOL    O6345409   3.292   5.401   4.715 -0.0954  0.3270 -0.1024
  554MOL    H6445410   3.178   5.536   4.836  1.9207  2.3278 -0.4526
  554MOL    H6545411   3.248   5.602   4.693  3.7038 -0.8705  0.8353
  554MOL    C6645412   3.389   5.412   4.615 -0.4331  0.6228  0.1440
  554MOL    O6745413   3.477   5.515   4.640  0.2564  0.0733  0.3588
  554MOL    H6845414   3.334   5.428   4.522 -0.9167 -1.3156  0.0816
  554MOL    H6945415   3.453   5.326   4.599 -1.1453  0.4555 -1.8958
  554MOL    C7045416   3.572   5.490   4.740 -0.2332  0.0487 -0.7140
  554MOL    O7145417   3.674   5.404   4.705 -0.3020 -0.4425 -0.4135
  554MOL    H7245418   3.529   5.451   4.832 -0.6934  0.1069 -0.9009
  554MOL    H7345419   3.616   5.586   4.768 -0.7846  0.5048 -1.3949
  554MOL    C7445420   3.757   5.447   4.603  0.0067 -1.1846 -0.5837
  554MOL    O7545421   3.840   5.551   4.647  0.3909 -0.1080 -0.0942
  554MOL    H7645422   3.688   5.479   4.525 -1.4590  0.0995  1.2123
  554MOL    H7745423   3.834   5.376   4.574  0.5043 -0.9846  0.2432
  554MOL    C7845424   3.906   5.521   4.762 -1.3874 -0.1062 -0.2241
  554MOL    O7945425   4.022   5.592   4.779  0.5093  0.1462 -0.7875
  554MOL    H8045426   3.932   5.416   4.750 -1.0015 -0.3364  2.3342
  554MOL    H8145427   3.845   5.537   4.851 -1.1377  0.8475 -0.2113
  554MOL    H8245428   4.086   5.562   4.716  1.1428  1.5315 -0.8414
  555MOL     C145429   4.188   4.136   5.490 -0.1715 -0.2984 -0.1539
  555MOL     O245430   4.202   4.209   5.375  0.8349 -0.4433 -0.5942
  555MOL     H345431   4.233   4.175   5.581 -2.0326  0.4241  0.4935
  555MOL     H445432   4.082   4.140   5.516 -0.8092 -4.0568 -1.7214
  555MOL     H545433   4.212   4.031   5.471 -2.2099 -0.9167  0.5159
  555MOL     C645434   4.331   4.192   5.317 -0.2920  0.0149  0.1359
  555MOL     O745435   4.434   4.238   5.401  0.7895  0.0647  0.0975
  555MOL     H845436   4.341   4.249   5.224  0.0835 -0.7293 -0.2875
  555MOL     H945437   4.360   4.090   5.291  1.1558  0.0579  1.5276
  555MOL    C1045438   4.557   4.214   5.347  0.1680 -0.2683 -0.4879
  555MOL    O1145439   4.600   4.080   5.357 -0.5286  0.1058 -0.2629
  555MOL    H1245440   4.633   4.276   5.396  0.5588 -0.6637 -0.5882
  555MOL    H1345441   4.554   4.240   5.241 -1.3980  1.5763 -0.0341
  555MOL    C1445442   4.597   4.021   5.481  0.0062  0.2193  0.5754
  555MOL    O1545443   4.710   4.058   5.563 -0.6506 -0.0560 -0.0831
  555MOL    H1645444   4.597   3.913   5.467  3.5223  0.4306 -1.6848
  555MOL    H1745445   4.503   4.047   5.529  0.5686 -0.7968  2.2666
  555MOL    C1845446   4.823   4.017   5.493 -0.0599 -0.7277  0.2807
  555MOL    O1945447   4.937   4.091   5.533  0.2675  0.3201 -0.0972
  555MOL    H2045448   4.822   4.035   5.386 -2.9815 -2.5957 -0.0764
  555MOL    H2145449   4.839   3.910   5.511 -0.9643 -0.7441  1.0630
  555MOL    C2245450   4.936   4.225   5.488  0.2839  0.2577  0.5059
  555MOL    O2345451   5.054   4.292   5.531 -0.2544 -0.2372  0.2188
  555MOL    H2445452   4.856   4.267   5.550 -1.2103  1.0443 -1.8570
  555MOL    H2545453   4.924   4.234   5.380 -0.9230  1.0893  0.6946
  555MOL    C2645454   5.167   4.236   5.469 -0.3077  0.2723  0.1898
  555MOL    O2745455   5.260   4.323   5.432 -0.1686 -0.7001  0.4697
  555MOL    H2845456   5.145   4.178   5.380  0.7507 -2.5568  1.7133
  555MOL    H2945457   5.207   4.157   5.532 -2.3418 -1.2379 -0.3704
  555MOL    C3045458   5.325   4.385   5.535  0.4778 -0.4397 -0.7161
  555MOL    O3145459   5.452   4.427   5.500 -0.2758  0.1047 -0.6115
  555MOL    H3245460   5.329   4.325   5.626 -5.0574  0.8385  0.5354
  555MOL    H3345461   5.255   4.463   5.566 -0.8307 -2.1962  0.8673
  555MOL    C3445462   5.537   4.317   5.480  0.6925  0.6418 -0.1056
  555MOL    O3545463   5.655   4.357   5.426 -0.0250  0.2516 -0.0212
  555MOL    H3645464   5.491   4.256   5.402 -0.9455  0.3832  1.0259
  555MOL    H3745465   5.572   4.260   5.566  1.2534 -0.6217 -1.1544
  555MOL    C3845466   5.739   4.424   5.515 -0.3188  0.0524  0.2137
  555MOL    O3945467   5.803   4.338   5.607 -0.1172  0.0013  1.0002
  555MOL    H4045468   5.679   4.493   5.574 -0.6076  1.7970 -2.0910
  555MOL    H4145469   5.818   4.477   5.462 -0.9745  3.0733  2.1292
  555MOL    C4245470   5.886   4.241   5.541  0.0039  0.8559  0.4066
  555MOL    O4345471   5.993   4.295   5.468 -0.5036 -0.0387 -0.1158
  555MOL    H4445472   5.834   4.183   5.465  1.9375 -0.2858 -0.0617
  555MOL    H4545473   5.930   4.186   5.623  2.0183 -0.3811 -1.4637
  555MOL    C4645474   6.083   4.352   5.559 -0.7247  0.2012  0.3296
  555MOL    O4745475   6.159   4.267   5.632 -0.0041  0.4838 -0.0257
  555MOL    H4845476   6.034   4.418   5.631  1.1456  1.4862  0.4747
  555MOL    H4945477   6.149   4.414   5.498 -0.5202  0.2788  0.6274
  555MOL    C5045478   6.239   4.188   5.556 -0.6653 -0.6473 -0.5606
  555MOL    O5145479   6.331   4.260   5.483 -0.0220 -0.4101 -0.5895
  555MOL    H5245480   6.182   4.129   5.484  0.4459 -2.4378 -0.0306
  555MOL    H5345481   6.293   4.123   5.626 -1.0269  1.2812  1.5615
  555MOL    C5445482   6.423   4.176   5.425  0.1160 -0.6065  0.0543
  555MOL    O5545483   6.519   4.242   5.358 -0.3798 -0.0917 -0.2783
  555MOL    H5645484   6.368   4.109   5.359  1.0672 -0.9569 -0.3903
  555MOL    H5745485   6.465   4.109   5.500  1.0974  0.4850  0.4994
  555MOL    C5845486   6.599   4.308   5.448  0.5448 -0.0932  0.2888
  555MOL    O5945487   6.708   4.366   5.383  0.3172 -0.2498 -0.4790
  555MOL    H6045488   6.627   4.235   5.525 -1.0263 -0.0767  0.9076
  555MOL    H6145489   6.548   4.387   5.503  0.1129  2.9011 -4.2077
  555MOL    C6245490   6.703   4.506   5.377  0.2727 -0.2461  0.1882
  555MOL    O6345491   6.732   4.568   5.500 -0.0548  0.0274 -0.3199
  555MOL    H6445492   6.609   4.543   5.335  0.0486  0.8148  1.6148
  555MOL    H6545493   6.780   4.534   5.305 -0.0650  1.3558  0.4392
  555MOL    C6645494   6.866   4.563   5.524  0.6001 -0.3430 -1.2127
  555MOL    O6745495   6.875   4.528   5.658 -0.0511  0.2878 -0.6771
  555MOL    H6845496   6.915   4.660   5.512 -1.3725  0.7985 -0.2887
  555MOL    H6945497   6.930   4.495   5.468  2.4363 -0.5611  1.0552
  555MOL    C7045498   6.873   4.382   5.662 -0.1552 -0.0839 -0.7680
  555MOL    O7145499   6.986   4.314   5.624 -0.5822 -0.0226 -0.1036
  555MOL    H7245500   6.787   4.348   5.605  0.3076  0.6908 -1.9579
  555MOL    H7345501   6.859   4.347   5.765  1.0988 -0.1951 -0.6293
  555MOL    C7445502   7.096   4.335   5.715  0.1132 -0.3467  0.3733
  555MOL    O7545503   7.079   4.263   5.832 -0.2885 -0.0231  0.4014
  555MOL    H7645504   7.088   4.442   5.734  0.6273 -0.3927  0.8636
  555MOL    H7745505   7.196   4.321   5.674  0.5259  0.5906  1.0651
  555MOL    C7845506   7.084   4.128   5.813  0.5114 -0.2537  0.3131
  555MOL    O7945507   7.034   4.053   5.920  0.0642  0.0225 -0.5174
  555MOL    H8045508   7.187   4.091   5.806  0.2876 -0.8001 -0.1684
  555MOL    H8145509   7.026   4.098   5.726  0.8682  0.4396 -0.1740
  555MOL    H8245510   7.103   4.052   5.984 -0.0800  1.7734 -0.3190
  556MOL     C145511   2.771   1.224   3.931 -0.2586  0.1864  0.7023
  556MOL     O245512   2.793   1.357   3.902  0.3363 -0.6493  0.3174
  556MOL     H345513   2.808   1.146   3.864  0.6994  3.2687 -2.5123
  556MOL     H445514   2.808   1.216   4.032  0.5497  0.8811  0.4596
  556MOL     H545515   2.664   1.206   3.917 -0.0039 -0.7807 -0.0304
  556MOL     C645516   2.748   1.386   3.773  0.1634  0.1909 -0.6280
  556MOL     O745517   2.620   1.390   3.766  0.1806  0.2679 -0.0292
  556MOL     H845518   2.791   1.317   3.700 -0.4850 -1.5370  0.5827
  556MOL     H945519   2.793   1.481   3.743 -0.0447 -0.0686 -1.7689
  556MOL    C1045520   2.562   1.510   3.800  0.1164  0.1206  0.1283
  556MOL    O1145521   2.430   1.482   3.836 -0.5906  0.0942  0.2046
  556MOL    H1245522   2.573   1.586   3.722 -0.2409 -1.7392 -1.7820
  556MOL    H1345523   2.611   1.546   3.890  0.9711  0.4786 -0.4680
  556MOL    C1445524   2.361   1.445   3.726  0.6310  0.6653 -1.0272
  556MOL    O1545525   2.236   1.387   3.771 -0.1159 -0.3077  0.1949
  556MOL    H1645526   2.408   1.364   3.671  2.8233  1.4806 -0.4059
  556MOL    H1745527   2.348   1.537   3.669 -3.5325  2.6415  2.7692
  556MOL    C1845528   2.148   1.486   3.814 -0.1707  0.2918  0.1685
  556MOL    O1945529   2.101   1.569   3.712 -0.1964 -0.2986 -0.3134
  556MOL    H2045530   2.190   1.541   3.898 -0.0137  1.2179 -0.5016
  556MOL    H2145531   2.068   1.426   3.859  0.8993 -0.7057  0.7665
  556MOL    C2245532   1.966   1.549   3.673 -0.5220 -0.1300 -0.2942
  556MOL    O2345533   1.892   1.632   3.754  0.2346 -0.0393 -0.1647
  556MOL    H2445534   1.931   1.450   3.703  0.7599 -0.3671  0.4925
  556MOL    H2545535   1.951   1.573   3.568  0.0876 -1.0382 -0.5934
  556MOL    C2645536   1.758   1.625   3.734 -0.9359 -0.1047  0.8232
  556MOL    O2745537   1.718   1.643   3.604  0.3144  0.0377 -0.2321
  556MOL    H2845538   1.698   1.686   3.801 -0.0748  1.7406 -0.0653
  556MOL    H2945539   1.725   1.524   3.761 -1.2754  0.3405  2.1064
  556MOL    C3045540   1.752   1.768   3.552  0.4043  0.6411  0.6110
  556MOL    O3145541   1.691   1.874   3.620  0.3733 -0.2289  0.4615
  556MOL    H3245542   1.705   1.754   3.455 -0.1254  0.2311  0.9233
  556MOL    H3345543   1.858   1.783   3.532  0.6106 -1.1926  0.2420
  556MOL    C3445544   1.724   1.994   3.558  0.0184 -0.0214  0.7731
  556MOL    O3545545   1.861   2.028   3.574 -0.0778  0.0917 -0.0428
  556MOL    H3645546   1.671   2.077   3.605  1.0297  0.2789  1.4179
  556MOL    H3745547   1.692   1.984   3.455  0.4981  0.9825  0.5266
  556MOL    C3845548   1.888   2.044   3.710 -0.2615  0.3492 -0.3028
  556MOL    O3945549   1.812   2.150   3.767 -0.0803  0.7679  0.0879
  556MOL    H4045550   1.989   2.082   3.704 -0.2983  0.6877  1.1358
  556MOL    H4145551   1.884   1.945   3.756  0.4401  0.2196 -0.5264
  556MOL    C4245552   1.846   2.173   3.903 -0.1740  0.9603 -0.8690
  556MOL    O4345553   1.789   2.076   3.989 -0.7846  0.8930 -0.1852
  556MOL    H4445554   1.815   2.275   3.925 -1.0075  0.6758 -0.6900
  556MOL    H4545555   1.954   2.185   3.914 -0.1937  0.0922  0.4712
  556MOL    C4645556   1.652   2.070   3.975 -0.1831  1.0239  0.6444
  556MOL    O4745557   1.590   1.990   4.075  0.1039 -0.1628  0.1994
  556MOL    H4845558   1.643   2.001   3.891  0.9990  0.1425  1.2264
  556MOL    H4945559   1.593   2.157   3.946 -0.0175  0.1512 -2.4599
  556MOL    C5045560   1.610   2.042   4.199 -0.4933  0.2870 -0.2526
  556MOL    O5145561   1.555   2.169   4.195 -0.3496 -0.0898 -1.0822
  556MOL    H5245562   1.717   2.058   4.213 -0.1662 -1.0053 -1.2119
  556MOL    H5345563   1.561   1.985   4.277 -3.0444  1.7189 -0.7307
  556MOL    C5445564   1.529   2.223   4.320  0.8167  0.4516  0.5558
  556MOL    O5545565   1.649   2.224   4.395 -0.0332 -0.5833  0.0831
  556MOL    H5645566   1.455   2.156   4.365 -0.6956  1.4248 -0.4205
  556MOL    H5745567   1.492   2.323   4.297  1.9251  0.6337 -0.4384
  556MOL    C5845568   1.627   2.198   4.530 -0.1208  0.2184  0.2713
  556MOL    O5945569   1.558   2.302   4.593 -0.0946  0.3517 -0.4840
  556MOL    H6045570   1.720   2.192   4.585  0.0930 -0.8018 -0.1952
  556MOL    H6145571   1.581   2.102   4.553 -1.5176  0.8672  0.2557
  556MOL    C6245572   1.636   2.415   4.598  0.5026  0.6462 -0.4265
  556MOL    O6345573   1.578   2.528   4.661  0.1825  0.3587  0.2566
  556MOL    H6445574   1.653   2.449   4.496  3.3816  0.0077 -0.2041
  556MOL    H6545575   1.730   2.389   4.647  0.7815  0.9136 -0.8125
  556MOL    C6645576   1.578   2.504   4.798 -0.6931  0.3982 -0.4849
  556MOL    O6745577   1.713   2.521   4.841  0.3061 -0.4063  0.6890
  556MOL    H6845578   1.550   2.400   4.814 -0.9706  0.3357 -1.4138
  556MOL    H6945579   1.516   2.576   4.851 -0.2039  0.3735  0.1339
  556MOL    C7045580   1.739   2.661   4.854  0.0944  0.2884 -0.0217
  556MOL    O7145581   1.677   2.714   4.966  0.2323 -0.0291  0.3591
  556MOL    H7245582   1.703   2.714   4.766 -0.7898 -0.8982 -0.3854
  556MOL    H7345583   1.847   2.676   4.853 -0.2587  3.1748 -0.1932
  556MOL    C7445584   1.757   2.690   5.076  0.3024 -0.5262 -0.1708
  556MOL    O7545585   1.692   2.712   5.196 -0.2271  0.0950  0.0333
  556MOL    H7645586   1.847   2.750   5.071 -0.0057 -0.1350 -1.1832
  556MOL    H7745587   1.792   2.587   5.066 -0.7454 -0.9800  0.6323
  556MOL    C7845588   1.654   2.844   5.224 -0.1453 -0.3611  0.5090
  556MOL    O7945589   1.646   2.867   5.365  0.3461  0.3577  0.4080
  556MOL    H8045590   1.564   2.872   5.169  0.0622  1.0182  0.8587
  556MOL    H8145591   1.731   2.914   5.189 -0.4884  0.4808  1.4239
  556MOL    H8245592   1.574   2.817   5.401 -0.3977  1.9412  1.2020
  557MOL     C145593   1.126   1.753   6.505  0.1992 -0.1411 -0.6678
  557MOL     O245594   1.170   1.768   6.369  0.1011  0.4972 -0.3094
  557MOL     H345595   1.137   1.647   6.528 -2.1891  0.1887  2.3117
  557MOL     H445596   1.194   1.818   6.561 -1.6046  2.5041 -1.4434
  557MOL     H545597   1.019   1.766   6.518  0.4473  0.7611  0.6303
  557MOL     C645598   1.095   1.692   6.275  0.2096  0.7533  0.4214
  557MOL     O745599   0.958   1.730   6.286 -0.0568  0.3744  0.3702
  557MOL     H845600   1.103   1.589   6.308 -0.8255  0.3978 -0.4303
  557MOL     H945601   1.142   1.694   6.176 -0.0046  0.9368  0.3239
  557MOL    C1045602   0.925   1.852   6.234 -0.0622 -0.1012 -0.4764
  557MOL    O1145603   0.795   1.863   6.191  0.2268 -0.0309 -0.6522
  557MOL    H1245604   0.989   1.871   6.148  0.0208 -0.9242 -0.6074
  557MOL    H1345605   0.937   1.930   6.308 -2.1742 -0.0546 -0.1744
  557MOL    C1445606   0.769   1.983   6.121  0.7158 -0.0467  0.7713
  557MOL    O1545607   0.751   2.089   6.202  0.5030 -0.0913 -0.2896
  557MOL    H1645608   0.686   1.972   6.052  0.3315  1.3479  0.9941
  557MOL    H1745609   0.853   2.013   6.059 -1.1233  2.3114 -0.6735
  557MOL    C1845610   0.615   2.107   6.237  0.4436  1.0783 -0.2863
  557MOL    O1945611   0.552   2.179   6.144  0.1785 -0.0061 -0.7800
  557MOL    H2045612   0.612   2.158   6.334  0.4853  0.2190  0.1755
  557MOL    H2145613   0.564   2.011   6.236  0.6144  0.9633  0.9693
  557MOL    C2245614   0.568   2.313   6.174  0.3819 -0.8633 -0.3757
  557MOL    O2345615   0.496   2.358   6.279 -0.6866  0.2107  0.4019
  557MOL    H2445616   0.539   2.361   6.081 -1.5899 -2.0274 -0.3683
  557MOL    H2545617   0.674   2.337   6.187  0.4695 -0.2593 -2.1114
  557MOL    C2645618   0.511   2.495   6.309  0.4527 -0.5999  0.0449
  557MOL    O2745619   0.624   2.523   6.380 -0.4242 -0.0419 -0.4100
  557MOL    H2845620   0.415   2.526   6.352  0.9241  2.0900 -0.7596
  557MOL    H2945621   0.517   2.555   6.218 -2.1459  0.9880  0.8600
  557MOL    C3045622   0.603   2.488   6.512 -0.3133 -0.5829 -0.4429
  557MOL    O3145623   0.523   2.588   6.577  0.6921 -0.0794 -0.3025
  557MOL    H3245624   0.699   2.496   6.562  0.0982  0.8132 -1.4092
  557MOL    H3345625   0.552   2.392   6.514  2.9747 -2.4505 -2.7911
  557MOL    C3445626   0.538   2.593   6.713  0.5165 -0.1427  0.3364
  557MOL    O3545627   0.514   2.466   6.771  0.1890 -0.8633  0.5987
  557MOL    H3645628   0.481   2.672   6.761  0.5832 -0.8558  1.6197
  557MOL    H3745629   0.638   2.624   6.745 -0.0832  0.7498  1.3682
  557MOL    C3845630   0.375   2.445   6.780 -0.1674 -0.2550 -0.7477
  557MOL    O3945631   0.315   2.539   6.864  0.0329 -0.5982 -0.5507
  557MOL    H4045632   0.351   2.341   6.803  0.8249 -0.2933  0.1576
  557MOL    H4145633   0.339   2.450   6.677 -2.1289  0.0848 -0.0558
  557MOL    C4245634   0.301   2.498   6.993  0.7398 -0.6480  0.2904
  557MOL    O4345635   0.236   2.597   7.063  0.0436  0.1268 -0.2685
  557MOL    H4445636   0.393   2.463   7.039  0.4870  0.3174  1.5626
  557MOL    H4545637   0.232   2.414   6.983  0.7636 -0.8389  1.5857
  557MOL    C4645638   0.316   2.704   7.092  0.4617  0.0147  0.5241
  557MOL    O4745639   0.422   2.679   7.180  0.3661  0.1812 -0.2759
  557MOL    H4845640   0.249   2.782   7.127  1.4103  1.8633 -1.6536
  557MOL    H4945641   0.354   2.747   6.999  2.6746 -0.0364  1.3866
  557MOL    C5045642   0.372   2.658   7.314  0.1364  0.2554  0.1013
  557MOL    O5145643   0.316   2.771   7.369 -0.5171  0.6235  0.7094
  557MOL    H5245644   0.456   2.624   7.375  2.6888  1.8734 -2.3359
  557MOL    H5345645   0.286   2.592   7.318 -1.3421  2.0082 -1.4212
  557MOL    C5445646   0.416   2.853   7.415 -0.0047 -0.5527  0.3811
  557MOL    O5545647   0.480   2.797   7.526  0.8733 -0.4948 -0.1250
  557MOL    H5645648   0.370   2.947   7.445 -0.2607  0.0519 -1.7525
  557MOL    H5745649   0.496   2.873   7.343 -0.6362 -1.2216 -0.5224
  557MOL    C5845650   0.408   2.802   7.641  0.1478 -0.0160  0.2310
  557MOL    O5945651   0.435   2.916   7.709  0.2780 -0.3003 -0.6164
  557MOL    H6045652   0.425   2.712   7.700 -0.7277 -0.5208 -0.2731
  557MOL    H6145653   0.303   2.806   7.612  0.0058  0.1017  0.7682
  557MOL    C6245654   0.569   2.924   7.756  0.4645  0.1581  0.5303
  557MOL    O6345655   0.593   2.856   0.095  0.1881  0.9828  0.1780
  557MOL    H6445656   0.568   3.026   0.008 -1.9215 -0.3106  1.9009
  557MOL    H6545657   0.634   2.925   7.668 -0.1852 -0.6140  0.0323
  557MOL    C6645658   0.690   2.760   0.076  0.1546  0.0635  0.5591
  557MOL    O6745659   0.810   2.817   0.049  0.5553  0.2301  0.3195
  557MOL    H6845660   0.660   2.687   0.000  2.5961 -0.7321  0.3158
  557MOL    H6945661   0.681   2.696   0.164 -2.7276  0.6794  0.7635
  557MOL    C7045662   0.913   2.725   0.031 -0.9032  0.5394  0.3146
  557MOL    O7145663   0.896   2.654   7.699  0.1699 -0.7037  0.1921
  557MOL    H7245664   0.917   2.651   0.112  3.5964  0.6969  0.3441
  557MOL    H7345665   1.010   2.773   0.028  0.5329 -2.3315 -1.4439
  557MOL    C7445666   0.903   2.731   7.581  0.0365 -0.3654 -0.1574
  557MOL    O7545667   1.025   2.784   7.564  0.1873 -0.2443  0.0345
  557MOL    H7645668   0.839   2.817   7.597 -0.6592 -0.9629  0.3029
  557MOL    H7745669   0.862   2.667   7.502  2.4640 -0.5388 -1.3540
  557MOL    C7845670   1.120   2.695   7.517  0.0721 -0.1258  0.2137
  557MOL    O7945671   1.244   2.755   7.525 -0.4062 -0.4367  0.1151
  557MOL    H8045672   1.088   2.678   7.414 -0.1709  1.6642 -0.0232
  557MOL    H8145673   1.116   2.608   7.583 -0.7815  0.3269  0.7798
  557MOL    H8245674   1.259   2.804   7.604  1.5537  0.3575 -0.7279
  558MOL     C145675   4.964   2.385   7.468  0.3001  0.3617 -0.8342
  558MOL     O245676   4.835   2.327   7.492 -0.0416 -0.8006  0.0558
  558MOL     H345677   5.034   2.331   7.405  0.2566 -0.2105 -0.4014
  558MOL     H445678   4.958   2.490   7.438  0.6925  0.9513  1.0504
  558MOL     H545679   5.009   2.386   7.568 -1.1025  1.4569 -0.1978
  558MOL     C645680   4.845   2.186   7.502  0.8297  0.1222  0.3967
  558MOL     O745681   4.921   2.156   7.622  0.1012  0.0199  0.1136
  558MOL     H845682   4.885   2.133   7.415 -2.1785  0.7267 -1.4329
  558MOL     H945683   4.741   2.154   7.512  0.6542 -0.0033 -1.5119
  558MOL    C1045684   4.836   2.176   7.728 -0.2767 -0.2513 -0.2045
  558MOL    O1145685   4.742   2.071   7.731 -0.1236  0.0748  0.3308
  558MOL    H1245686   4.775   2.266   7.730  0.2332  0.1144 -0.8397
  558MOL    H1345687   4.899   2.177   0.033  3.6043 -1.1827 -2.8038
  558MOL    C1445688   4.800   1.953   7.782  0.4549 -0.2879 -0.1758
  558MOL    O1545689   4.717   1.842   7.755  0.5774  0.1303 -0.4385
  558MOL    H1645690   4.809   1.957   0.107  0.9366  2.4128 -0.2720
  558MOL    H1745691   4.900   1.935   7.742  0.0323  0.1752 -1.4803
  558MOL    C1845692   4.720   1.797   7.625 -0.0524  0.3833 -0.3824
  558MOL    O1945693   4.843   1.741   7.597  0.2226  0.6998 -0.2754
  558MOL    H2045694   4.700   1.886   7.566 -2.1338 -0.4843 -1.0397
  558MOL    H2145695   4.636   1.727   7.620  0.3193 -0.0143 -1.0369
  558MOL    C2245696   4.857   1.613   7.649 -0.1029  0.2463 -0.6080
  558MOL    O2345697   4.779   1.513   7.601  0.5936 -0.6612  0.0445
  558MOL    H2445698   4.845   1.623   7.757 -1.3709 -0.3437 -0.6938
  558MOL    H2545699   4.961   1.582   7.637  0.0132  0.4366 -0.1372
  558MOL    C2645700   4.812   1.495   7.465 -0.2614  1.0433 -0.4367
  558MOL    O2745701   4.718   1.406   7.402  0.5551  0.3998  0.6218
  558MOL    H2845702   4.912   1.456   7.451 -1.2629 -1.6588 -0.2771
  558MOL    H2945703   4.805   1.584   7.402 -3.2174  1.5571  0.5195
  558MOL    C3045704   4.725   1.278   7.455 -0.4818  0.4070  0.5623
  558MOL    O3145705   4.838   1.219   7.393 -0.3945  0.3097  0.2048
  558MOL    H3245706   4.636   1.220   7.430 -1.6156  1.1752  2.6830
  558MOL    H3345707   4.734   1.286   7.563 -0.7486  1.4812  0.5066
  558MOL    C3445708   4.838   1.085   7.422  0.0490  0.4894  0.2786
  558MOL    O3545709   4.838   1.059   7.558 -0.1767 -0.5321 -0.1329
  558MOL    H3645710   4.929   1.045   7.377 -0.6364 -1.0141  0.1983
  558MOL    H3745711   4.761   1.030   7.368  0.7088  0.4176 -0.6031
  558MOL    C3845712   4.851   0.927   7.577  0.6631  0.1424  0.1950
  558MOL    O3945713   4.844   0.895   7.714  0.9491 -0.1799 -0.2948
  558MOL    H4045714   4.951   0.899   7.543  0.4820 -1.1889  0.7107
  558MOL    H4145715   4.781   0.863   7.523  0.2931 -0.6538  1.5887
  558MOL    C4245716   4.961   0.916   7.777  0.1101  0.0573 -0.0149
  558MOL    O4345717   5.053   0.820   7.741  0.4132  0.3015 -0.3705
  558MOL    H4445718   4.953   0.905   0.101 -0.9101 -0.5903 -0.1445
  558MOL    H4545719   4.996   1.018   7.761 -0.3580  0.2639  0.2621
  558MOL    C4645720   5.027   0.685   7.780 -0.1423 -0.4082  0.5834
  558MOL    O4745721   5.077   0.596   7.688 -0.1846  0.2980 -0.1651
  558MOL    H4845722   4.920   0.679   0.017 -0.2743  1.3324  0.5528
  558MOL    H4945723   5.077   0.672   0.092  1.8358  2.4476 -0.0122
  558MOL    C5045724   4.998   0.584   7.578  0.7326 -0.1747  0.2598
  558MOL    O5145725   4.883   0.514   7.595  0.1125 -0.5937 -0.0929
  558MOL    H5245726   5.064   0.546   7.500 -1.4497 -0.3076 -1.5848
  558MOL    H5345727   4.969   0.677   7.528 -0.4035 -0.3730  0.5423
  558MOL    C5445728   4.907   0.377   7.608  0.0627 -0.0381  0.6698
  558MOL    O5545729   4.916   0.312   7.481 -0.8426  0.4679 -0.9415
  558MOL    H5645730   4.818   0.330   7.651 -0.5138 -1.1473 -1.6741
  558MOL    H5745731   4.990   0.351   7.674  1.5015 -0.1075 -1.1451
  558MOL    C5845732   4.801   0.332   7.402 -0.2261  0.0361  0.8651
  558MOL    O5945733   4.717   0.223   7.401 -0.0266  0.2537 -0.7831
  558MOL    H6045734   4.840   0.358   7.304 -0.6791 -2.2025  0.0744
  558MOL    H6145735   4.750   0.423   7.432 -0.5302  0.3034 -0.4347
  558MOL    C6245736   4.625   0.230   7.299 -0.8688  0.3946 -0.1270
  558MOL    O6345737   4.509   0.310   7.335 -0.1865 -0.1412 -0.4348
  558MOL    H6445738   4.595   0.126   7.289 -0.2685  0.2928 -0.9866
  558MOL    H6545739   4.662   0.274   7.206 -1.5336  2.3999  0.5263
  558MOL    C6645740   4.421   0.259   7.433  0.4178  0.4051  0.3160
  558MOL    O6745741   4.459   0.306   7.562  0.1960 -0.0959  0.0519
  558MOL    H6845742   4.441   0.151   7.437 -0.0046  0.3614  1.3313
  558MOL    H6945743   4.319   0.290   7.412  0.1647 -2.3532 -3.1226
  558MOL    C7045744   4.450   0.449   7.579 -0.3045 -0.1929  0.0120
  558MOL    O7145745   4.322   0.490   7.578 -0.2985 -0.5101 -0.0235
  558MOL    H7245746   4.490   0.502   7.492 -1.5875 -0.2341 -0.6111
  558MOL    H7345747   4.505   0.479   7.669 -1.0699  2.7088 -0.4295
  558MOL    C7445748   4.267   0.473   7.701 -0.5777  0.1359 -0.7725
  558MOL    O7545749   4.129   0.481   7.685  1.0618 -0.5221 -0.2656
  558MOL    H7645750   4.313   0.554   7.759 -1.1706  0.0621 -0.1918
  558MOL    H7745751   4.294   0.377   7.745 -2.1986 -0.5731 -1.3415
  558MOL    C7845752   4.062   0.420   0.010  0.4031 -0.4565 -0.1285
  558MOL    O7945753   3.923   0.424   7.782 -0.1961 -0.0813  0.5219
  558MOL    H8045754   4.086   0.465   0.106  0.8256 -0.6121 -0.1599
  558MOL    H8145755   4.088   0.314   0.006 -0.7810 -0.7345 -0.4354
  558MOL    H8245756   3.888   0.511   7.774 -0.2603 -0.0159  1.4156
  559MOL     C145757   3.748   7.633   5.929 -0.0195 -0.2202 -0.2082
  559MOL     O245758   3.691   7.504   5.925  0.0361 -0.2134  0.3229
  559MOL     H345759   3.718   7.682   6.022  0.3464 -2.8575  1.3244
  559MOL     H445760   3.856   7.623   5.938  0.2949  2.1502 -0.8650
  559MOL     H545761   3.731   7.690   5.838 -0.0800  2.9633  1.7098
  559MOL     C645762   3.734   7.438   5.805  0.6477  0.0924  0.2347
  559MOL     O745763   3.664   7.476   5.690  1.0097  0.6729  0.7810
  559MOL     H845764   3.710   7.334   5.823  3.6700 -0.4836  1.3386
  559MOL     H945765   3.842   7.451   5.799  0.6499  0.1653  0.4182
  559MOL    C1045766   3.685   7.395   5.577  0.1901  0.1029 -0.2738
  559MOL    O1145767   3.800   7.426   5.509  0.5696 -0.1468 -0.0674
  559MOL    H1245768   3.602   7.411   5.509  1.0792  3.2250 -0.7045
  559MOL    H1345769   3.686   7.291   5.611 -1.4266  0.0482 -0.3490
  559MOL    C1445770   3.789   7.515   5.405 -0.0102  0.7211 -0.1425
  559MOL    O1545771   3.753   7.641   5.443  0.8837 -0.4741  0.4478
  559MOL    H1645772   3.713   7.478   5.336  1.6952 -0.4250 -1.4338
  559MOL    H1745773   3.875   7.508   5.338 -0.2368  0.6497 -0.4290
  559MOL    C1845774   3.853   7.705   5.528  0.6163  0.0619  0.6735
  559MOL    O1945775   3.982   7.710   5.469 -0.4058  0.1762  0.5044
  559MOL    H2045776   3.852   7.647   5.620 -0.0330  0.0597  0.6666
  559MOL    H2145777   3.816   0.019   5.559  0.3361  0.2682 -0.2901
  559MOL    C2245778   4.076   7.628   5.546 -0.0419  0.3626 -0.2691
  559MOL    O2345779   4.089   7.679   5.673 -1.2709  0.3210 -0.5487
  559MOL    H2445780   4.177   7.622   5.507 -0.3166  2.8200 -1.4109
  559MOL    H2545781   4.035   7.527   5.550  0.9602 -0.0646 -0.5772
  559MOL    C2645782   4.176   7.782   5.693 -0.0461  0.0369 -0.0806
  559MOL    O2745783   4.303   7.758   5.637  0.4004  0.3303  0.5230
  559MOL    H2845784   4.174   0.003   5.801  0.9795 -1.2493  0.0019
  559MOL    H2945785   4.129   0.088   5.652 -0.5895 -0.3042 -0.2050
  559MOL    C3045786   4.399   0.080   5.652 -0.0627 -0.4641  0.2639
  559MOL    O3145787   4.420   0.119   5.787  0.7046 -0.2322 -0.3765
  559MOL    H3245788   4.353   0.172   5.615 -1.0096 -1.4544 -1.0961
  559MOL    H3345789   4.491   0.045   5.604  1.1141  1.4042  1.0786
  559MOL    C3445790   4.481   0.025   5.876  0.0228  0.5547  0.2603
  559MOL    O3545791   4.620   0.021   5.849 -0.2708  0.6379 -0.0110
  559MOL    H3645792   4.433   7.714   5.854 -1.2609  1.6581 -1.9214
  559MOL    H3745793   4.467   0.061   5.978  2.6850  0.2188  0.8007
  559MOL    C3845794   4.670   7.694   5.914  0.4139 -0.5060  0.1818
  559MOL    O3945795   4.657   7.699   6.050 -0.2763  0.2381 -0.5264
  559MOL    H4045796   4.773   7.680   5.882  0.5051  1.0723 -0.2263
  559MOL    H4145797   4.628   7.602   5.874 -0.6890  1.0883 -2.3853
  559MOL    C4245798   4.764   7.769   6.113 -0.5894  0.0863 -0.1490
  559MOL    O4345799   4.747   7.782   6.249  0.3519 -0.3513 -0.1956
  559MOL    H4445800   4.783   0.084   6.071  0.0553  0.8586  1.8883
  559MOL    H4545801   4.860   7.719   6.100 -1.3080 -0.7984 -2.1032
  559MOL    C4645802   4.766   7.663   6.321 -0.1572 -0.0383 -0.7339
  559MOL    O4745803   4.907   7.635   6.341  0.0145  0.2594  0.1293
  559MOL    H4845804   4.729   7.572   6.273  1.5474 -1.1755  0.0517
  559MOL    H4945805   4.715   7.670   6.417  0.4323 -0.9188 -0.3439
  559MOL    C5045806   4.964   7.720   6.435 -0.2592  0.7136 -0.0029
  559MOL    O5145807   4.917   7.676   6.564  0.2215 -0.3349  0.0934
  559MOL    H5245808   4.934   0.041   6.425 -1.5121  0.4387  0.7376
  559MOL    H5345809   5.072   7.715   6.443 -0.4631 -0.2393  2.5237
  559MOL    C5445810   4.968   7.557   6.611  0.1107  0.1306  0.0753
  559MOL    O5545811   5.097   7.557   6.650 -0.7723 -0.5368  0.0768
  559MOL    H5645812   4.942   7.485   6.533 -0.7204  1.0694 -0.5156
  559MOL    H5745813   4.907   7.539   6.700  0.5338 -0.9347  0.1664
  559MOL    C5845814   5.150   7.430   6.641 -0.4219  0.3477  0.2655
  559MOL    O5945815   5.191   7.404   6.506  0.3807  0.7938  0.5959
  559MOL    H6045816   5.077   7.356   6.673 -0.0387 -0.1913 -0.1091
  559MOL    H6145817   5.239   7.423   6.704 -0.8457  0.7048  0.9106
  559MOL    C6245818   5.264   7.281   6.495  0.7599  0.0442 -0.5954
  559MOL    O6345819   5.404   7.303   6.511 -0.5372 -0.2474  0.3698
  559MOL    H6445820   5.239   7.237   6.398  1.0107  0.1210 -0.6963
  559MOL    H6545821   5.235   7.208   6.570  1.6953 -1.4891 -1.6899
  559MOL    C6645822   5.462   7.366   6.401  0.0354  0.1893  0.5136
  559MOL    O6745823   5.594   7.345   6.387 -0.4394  0.0255 -0.3553
  559MOL    H6845824   5.457   7.475   6.401 -1.9160  0.1255  1.3915
  559MOL    H6945825   5.420   7.333   6.306 -0.7615  0.6614  0.6927
  559MOL    C7045826   5.674   7.428   6.474  0.1872  0.7315 -0.2091
  559MOL    O7145827   5.726   7.540   6.404  0.2214  0.8723  0.5593
  559MOL    H7245828   5.764   7.373   6.503  0.9931  1.2121 -1.7481
  559MOL    H7345829   5.624   7.442   6.570  0.6612  3.9748 -0.3755
  559MOL    C7445830   5.810   7.621   6.483  0.8561  0.5924  0.2112
  559MOL    O7545831   5.934   7.561   6.515 -0.2116  0.3058  0.0452
  559MOL    H7645832   5.764   7.633   6.580 -0.3814  0.3828 -0.3427
  559MOL    H7745833   5.830   7.721   6.446  0.1950  1.1369  1.3070
  559MOL    C7845834   6.021   7.574   6.404  0.9414 -0.9800  0.0252
  559MOL    O7945835   6.138   7.515   6.419 -0.5237  0.6674 -0.8433
  559MOL    H8045836   6.041   7.680   6.390 -0.7097 -0.7242 -0.4713
  559MOL    H8145837   5.978   7.550   6.307 -1.3973 -0.2487  0.8553
  559MOL    H8245838   6.204   7.561   6.369  0.2541  0.6286  0.1346
  560MOL     C145839   2.377   5.576   4.993 -0.6188 -0.1073  0.0134
  560MOL     O245840   2.461   5.689   4.951  0.3832  0.5598  0.5613
  560MOL     H345841   2.430   5.483   5.015 -1.5563 -0.4744  0.7723
  560MOL     H445842   2.335   5.592   5.092  2.3221 -0.7573  1.4376
  560MOL     H545843   2.292   5.554   4.929  0.5135  1.7964 -2.2205
  560MOL     C645844   2.522   5.661   4.825  0.3319  0.1782 -0.4284
  560MOL     O745845   2.438   5.611   4.727 -0.0843  0.3412  0.3516
  560MOL     H845846   2.589   5.576   4.842 -0.2360 -0.1827  0.0148
  560MOL     H945847   2.584   5.749   4.808  1.2575 -0.6418 -1.4377
  560MOL    C1045848   2.415   5.704   4.629 -0.1561 -0.9505  0.4351
  560MOL    O1145849   2.337   5.818   4.671 -0.7548  0.5520 -0.2451
  560MOL    H1245850   2.356   5.670   4.544  1.3279 -0.7221 -0.7027
  560MOL    H1345851   2.512   5.744   4.598 -0.6121  1.0945  1.5336
  560MOL    C1445852   2.202   5.784   4.701  0.4122  0.1424  0.1465
  560MOL    O1545853   2.146   5.907   4.736 -0.0354  0.5446 -0.4760
  560MOL    H1645854   2.202   5.732   4.797  2.8355 -1.3828 -0.6406
  560MOL    H1745855   2.152   5.731   4.620  0.1908  0.5863 -0.0089
  560MOL    C1845856   2.004   5.897   4.734 -0.0420  0.3554 -1.1192
  560MOL    O1945857   1.956   5.896   4.601  0.1163 -0.5437  0.1150
  560MOL    H2045858   1.982   5.985   4.795  0.9723 -0.2882  0.2085
  560MOL    H2145859   1.970   5.809   4.787 -0.0867  0.7926 -0.4203
  560MOL    C2245860   1.968   6.025   4.544 -0.2577  0.4503  0.6860
  560MOL    O2345861   1.899   6.123   4.612  0.3240 -0.4348  0.0098
  560MOL    H2445862   1.931   6.009   4.443  0.3929 -1.4530  0.7245
  560MOL    H2545863   2.073   6.053   4.547 -0.2379  0.9002 -2.2183
  560MOL    C2645864   1.761   6.107   4.592 -0.5586 -0.1036 -0.2200
  560MOL    O2745865   1.730   6.159   4.466 -0.8091  0.1198 -0.6566
  560MOL    H2845866   1.696   6.149   4.669 -1.3897  1.6197 -1.8154
  560MOL    H2945867   1.727   6.004   4.594 -1.0724  0.0799  0.5427
  560MOL    C3045868   1.750   6.289   4.451 -0.5457 -0.2478 -0.3212
  560MOL    O3145869   1.650   6.361   4.515 -0.3880 -0.1428  0.9174
  560MOL    H3245870   1.745   6.311   4.344 -0.7678  0.7480 -0.1152
  560MOL    H3345871   1.841   6.334   4.490 -0.6274 -0.5142  0.1879
  560MOL    C3445872   1.547   6.397   4.435 -0.3483  0.7018  0.1861
  560MOL    O3545873   1.590   6.502   4.359 -0.1815 -0.1981  0.1942
  560MOL    H3645874   1.459   6.421   4.494  0.6794  2.0677  1.1794
  560MOL    H3745875   1.517   6.312   4.374  1.2894  0.8428 -0.8704
  560MOL    C3845876   1.560   6.627   4.412  0.4005  0.0367 -0.3760
  560MOL    O3945877   1.426   6.668   4.404 -0.1617  0.3310 -0.2538
  560MOL    H4045878   1.626   6.687   4.349  1.9081 -1.7551 -0.5475
  560MOL    H4145879   1.585   6.625   4.518  1.1916 -2.9751 -0.5712
  560MOL    C4245880   1.383   6.694   4.272 -0.2600 -0.4091 -0.7907
  560MOL    O4345881   1.421   6.817   4.231  0.0974 -0.2310  0.3284
  560MOL    H4445882   1.274   6.688   4.272 -0.1415 -4.2372 -1.8644
  560MOL    H4545883   1.416   6.614   4.206 -0.1147 -1.1521  0.1644
  560MOL    C4645884   1.357   6.925   4.292 -0.0734 -0.3191 -0.1249
  560MOL    O4745885   1.219   6.939   4.271  0.1547  0.3165 -0.1077
  560MOL    H4845886   1.403   7.017   4.257 -0.2647 -1.7087 -4.4011
  560MOL    H4945887   1.377   6.911   4.398  0.8426 -1.5575 -0.4512
  560MOL    C5045888   1.178   6.950   4.135 -0.0302 -0.4917 -0.9722
  560MOL    O5145889   1.038   6.948   4.132  0.0559  0.0607  0.0815
  560MOL    H5245890   1.221   6.861   4.088 -0.1677 -0.2097 -1.6273
  560MOL    H5345891   1.218   7.031   4.075 -0.7891  1.3777  0.9904
  560MOL    C5445892   0.984   7.057   4.194  0.6400  0.3659  0.0508
  560MOL    O5545893   0.859   7.086   4.140 -0.3119  0.0073  0.3586
  560MOL    H5645894   1.051   7.140   4.173  2.2275 -0.8328  0.3118
  560MOL    H5745895   0.989   7.055   4.303  0.8666  0.2240  0.0367
  560MOL    C5845896   0.771   6.986   4.180  0.2635 -0.6406 -0.4109
  560MOL    O5945897   0.644   6.999   4.110  0.5918 -0.3295 -0.6971
  560MOL    H6045898   0.758   7.001   4.287 -1.8661 -0.3700 -0.6916
  560MOL    H6145899   0.803   6.883   4.169  2.6461  0.1991 -1.7998
  560MOL    C6245900   0.654   6.949   3.978  0.4308  1.2381 -0.2002
  560MOL    O6345901   0.654   6.809   3.972  0.8226 -0.2744 -0.3456
  560MOL    H6445902   0.746   6.974   3.925  0.3629 -0.9914 -1.4474
  560MOL    H6545903   0.570   6.986   3.920  0.9004  0.6258 -1.2839
  560MOL    C6645904   0.539   6.747   4.029 -0.7105  0.4336  0.1866
  560MOL    O6745905   0.422   6.796   3.965  0.6126  0.1389  0.8962
  560MOL    H6845906   0.529   6.760   4.137 -4.4874 -1.1337  0.0832
  560MOL    H6945907   0.555   6.640   4.016  0.3754  0.6546 -0.3452
  560MOL    C7045908   0.305   6.729   4.014  0.9721  0.0669  0.2911
  560MOL    O7145909   0.212   6.822   4.058 -0.0940 -0.2180  0.2184
  560MOL    H7245910   0.325   6.654   4.090 -0.4898 -0.1614  0.4580
  560MOL    H7345911   0.261   6.687   3.924 -1.2373  1.1770  0.8169
  560MOL    C7445912   0.209   6.829   4.197  0.3783 -0.4117  0.6538
  560MOL    O7545913   0.320   6.902   4.253  0.6299 -0.0893 -0.1604
  560MOL    H7645914   0.193   6.732   4.243 -0.1512  0.1910  1.7368
  560MOL    H7745915   0.118   6.878   4.232  1.6945  1.8073  1.0862
  560MOL    C7845916   0.324   7.031   4.205  0.4601 -0.5206 -0.5418
  560MOL    O7945917   0.437   7.100   4.242 -0.0351  0.6732 -0.1238
  560MOL    H8045918   0.237   7.078   4.250  0.9179 -1.9655  1.9686
  560MOL    H8145919   0.309   7.046   4.098  1.1610  0.7569 -0.4744
  560MOL    H8245920   0.507   7.080   4.181 -0.4184 -0.0307 -0.3297
  561MOL     C145921   3.123   1.854   6.726  0.0088  1.2032 -0.5676
  561MOL     O245922   3.059   1.970   6.781 -0.0537  0.4331 -0.0895
  561MOL     H345923   3.051   1.788   6.678  0.1270  0.3037  0.4643
  561MOL     H445924   3.202   1.866   6.652  2.2215  1.4142  1.7516
  561MOL     H545925   3.163   1.807   6.816 -1.1570  0.0431 -0.6379
  561MOL     C645926   2.947   1.948   6.860  0.6325  0.1256  0.0200
  561MOL     O745927   2.856   1.863   6.815  1.4334 -0.7328  0.1609
  561MOL     H845928   2.915   2.050   6.881  1.3028  0.7970 -2.0473
  561MOL     H945929   2.989   1.904   6.951  0.3336  1.6482  0.9007
  561MOL    C1045930   2.743   1.936   6.750  0.0543  0.9809  0.0335
  561MOL    O1145931   2.679   2.010   6.846 -0.5448  0.5649  0.4238
  561MOL    H1245932   2.670   1.860   6.725 -0.4729  1.8685 -1.1571
  561MOL    H1345933   2.775   1.992   6.662  3.4339 -0.7326  0.1108
  561MOL    C1445934   2.581   2.090   6.785 -0.7040  0.0982 -0.8005
  561MOL    O1545935   2.631   2.207   6.724 -0.3312  0.0029  0.0109
  561MOL    H1645936   2.511   2.115   6.865 -0.0624 -0.0920 -0.1744
  561MOL    H1745937   2.523   2.032   6.713 -3.0527 -0.1538  1.2247
  561MOL    C1845938   2.529   2.294   6.686 -0.4232 -0.3268  0.3223
  561MOL    O1945939   2.461   2.258   6.567 -0.0771  0.3676 -0.3693
  561MOL    H2045940   2.575   2.391   6.674  1.2743 -1.3352 -1.4825
  561MOL    H2145941   2.451   2.314   6.760  0.1747 -0.1749  0.9137
  561MOL    C2245942   2.539   2.274   6.450 -0.3337 -0.3612  0.1673
  561MOL    O2345943   2.547   2.404   6.420  0.4302 -0.1502  0.1158
  561MOL    H2445944   2.496   2.224   6.363 -2.4229  2.6006 -0.6059
  561MOL    H2545945   2.639   2.234   6.467 -0.4998  0.3291  3.0053
  561MOL    C2645946   2.423   2.473   6.396 -0.4622  0.2511 -0.1360
  561MOL    O2745947   2.406   2.482   6.258  0.2872  0.6302 -0.4134
  561MOL    H2845948   2.443   2.576   6.428 -0.3314  0.6426 -1.4535
  561MOL    H2945949   2.344   2.421   6.451 -1.1694 -0.9350 -2.2365
  561MOL    C3045950   2.276   2.440   6.222  0.2311 -0.4034  0.0002
  561MOL    O3145951   2.266   2.307   6.199  0.7092 -0.0093  0.0665
  561MOL    H3245952   2.233   2.481   6.131  1.0269  2.4422  0.8522
  561MOL    H3345953   2.206   2.477   6.297  0.1038  0.0192 -0.3244
  561MOL    C3445954   2.343   2.273   6.085  0.5823 -0.0955 -0.0789
  561MOL    O3545955   2.306   2.146   6.030  0.0764  0.4639  0.2340
  561MOL    H3645956   2.449   2.278   6.110  0.5868  2.1229 -0.3740
  561MOL    H3745957   2.325   2.346   6.006 -1.9343 -1.6008 -0.9364
  561MOL    C3845958   2.186   2.151   5.962 -0.3582  0.2276 -0.3601
  561MOL    O3945959   2.154   2.029   5.914  0.7890 -0.0412  0.1540
  561MOL    H4045960   2.175   2.234   5.892  0.5132  0.6531  0.0107
  561MOL    H4145961   2.115   2.172   6.042  1.2967 -1.8405  1.7143
  561MOL    C4245962   2.230   1.994   5.803  0.3889  0.6313 -0.3952
  561MOL    O4345963   2.230   2.090   5.704 -0.2976  0.1661  0.4045
  561MOL    H4445964   2.184   1.906   5.758  1.5761 -1.0750  1.6664
  561MOL    H4545965   2.329   1.957   5.831  0.4113  1.6757  0.9450
  561MOL    C4645966   2.362   2.143   5.676  0.8128  0.3131  0.8400
  561MOL    O4745967   2.445   2.041   5.633  0.3201 -0.2467 -0.3798
  561MOL    H4845968   2.413   2.181   5.764  0.6299  3.0427 -0.1839
  561MOL    H4945969   2.362   2.225   5.604  1.8141  0.0252  0.4977
  561MOL    C5045970   2.419   2.005   5.503 -0.8573  0.3881 -0.2062
  561MOL    O5145971   2.437   2.103   5.403  0.8090  0.0838  0.1454
  561MOL    H5245972   2.315   1.972   5.498 -0.7267 -0.1183  0.3541
  561MOL    H5345973   2.479   1.915   5.499  0.5164  1.1959  1.4211
  561MOL    C5445974   2.563   2.116   5.373 -0.4945  0.2194  0.3326
  561MOL    O5545975   2.588   2.234   5.297  0.4945  0.2029 -0.9438
  561MOL    H5645976   2.601   2.037   5.308  0.3223  1.5413 -0.8253
  561MOL    H5745977   2.623   2.133   5.463 -0.3738  2.0915 -0.0811
  561MOL    C5845978   2.722   2.255   5.263 -0.1410  0.9459  0.5668
  561MOL    O5945979   2.768   2.146   5.194  0.1398  0.5152  0.2720
  561MOL    H6045980   2.777   2.279   5.354 -1.1545 -1.2411  1.7950
  561MOL    H6145981   2.727   2.335   5.188 -1.8442  1.7436  1.2791
  561MOL    C6245982   2.734   2.151   5.054 -0.6131 -0.5559 -0.4735
  561MOL    O6345983   2.814   2.244   4.992 -0.2997  0.2670  0.3297
  561MOL    H6445984   2.627   2.172   5.045 -0.3813 -0.2844 -2.8591
  561MOL    H6545985   2.739   2.046   5.026  0.0394 -0.6799  0.1110
  561MOL    C6645986   2.914   2.190   4.917 -0.2377  0.1948  0.5522
  561MOL    O6745987   2.853   2.144   4.802 -0.2708 -0.1884  0.4676
  561MOL    H6845988   2.960   2.104   4.964  1.2875 -0.0470 -1.3168
  561MOL    H6945989   2.998   2.256   4.895 -1.2825  1.0635 -0.9691
  561MOL    C7045990   2.789   2.251   4.726  0.5164 -0.3003 -0.4745
  561MOL    O7145991   2.884   2.303   4.633  0.0532  0.0292 -0.4496
  561MOL    H7245992   2.747   2.336   4.778 -1.1976 -2.2841  1.4584
  561MOL    H7345993   2.717   2.198   4.664 -0.9621 -0.0566  1.0243
  561MOL    C7445994   2.824   2.380   4.532  0.5780 -0.2174 -0.2474
  561MOL    O7545995   2.746   2.302   4.451 -0.5898  0.0318 -0.0923
  561MOL    H7645996   2.904   2.433   4.479  1.9373 -2.2083 -0.2725
  561MOL    H7745997   2.763   2.457   4.579 -0.0340  0.5309 -2.2216
  561MOL    C7845998   2.801   2.274   4.328  0.5028 -0.1225  0.2406
  561MOL    O7945999   2.721   2.194   4.241 -0.3929 -0.1754  0.1529
  561MOL    H8046000   2.891   2.213   4.338  0.4080 -0.3210 -0.1175
  561MOL    H8146001   2.827   2.363   4.270  0.8299 -0.1646  0.3208
  561MOL    H8246002   2.742   2.104   4.261 -1.2262 -0.3707  0.1839
  562MOL     C146003   7.013   4.981   6.302 -0.3827  0.2617  0.2239
  562MOL     O246004   6.956   5.094   6.245  0.1249  0.2336  0.2288
  562MOL     H346005   7.122   4.971   6.304 -0.3108  1.1088  0.6662
  562MOL     H446006   6.985   4.978   6.407  0.3749 -3.4981  0.3717
  562MOL     H546007   6.987   4.891   6.246  0.1012  1.0428 -1.2824
  562MOL     C646008   7.048   5.194   6.261 -0.0311 -0.3138  0.0457
  562MOL     O746009   7.179   5.169   6.210 -0.0986  0.6914  0.2250
  562MOL     H846010   7.054   5.199   6.370 -2.1530 -0.4504  0.1900
  562MOL     H946011   7.007   5.290   6.229 -0.5061 -1.0228 -1.4893
  562MOL    C1046012   7.182   5.189   6.073  0.0863  0.2928  0.0194
  562MOL    O1146013   7.151   5.321   6.045  0.1789  0.1992 -0.1476
  562MOL    H1246014   7.113   5.120   6.024  0.8663 -0.4728 -0.0308
  562MOL    H1346015   7.278   5.153   6.034  0.3371 -0.5889  1.4185
  562MOL    C1446016   7.269   5.400   6.046 -0.2740  0.2559  0.0347
  562MOL    O1546017   7.361   5.367   5.949  0.3160 -0.4421  0.4985
  562MOL    H1646018   7.311   5.385   6.145  1.4852 -2.9569 -1.1081
  562MOL    H1746019   7.246   5.506   6.045  1.6122  0.6778  0.0295
  562MOL    C1846020   7.318   5.415   5.822 -0.1843  0.2711 -0.0901
  562MOL    O1946021   7.317   5.556   5.822 -0.1847 -0.3825  0.0282
  562MOL    H2046022   7.218   5.379   5.798 -0.0528  0.3619 -0.7807
  562MOL    H2146023   7.390   5.368   5.755  0.7805 -0.7516  1.6230
  562MOL    C2246024   7.453   5.614   5.802 -0.0064 -0.4768 -0.0346
  562MOL    O2346025   7.502   5.586   5.671 -0.1461 -0.0597 -0.2865
  562MOL    H2446026   7.520   5.582   5.882  1.9892 -1.3798 -2.0318
  562MOL    H2546027   7.438   5.721   5.811 -0.5492 -0.3981 -1.6951
  562MOL    C2646028   7.412   5.624   5.570 -0.4278 -0.1006  0.0099
  562MOL    O2746029   7.419   5.768   5.554 -0.2122 -0.0931  0.1930
  562MOL    H2846030   7.315   5.578   5.589 -0.0918 -0.4698  0.8694
  562MOL    H2946031   7.436   5.578   5.474  2.4470 -2.2994  1.6830
  562MOL    C3046032   7.534   5.804   5.483  0.1991  1.0755  0.2215
  562MOL    O3146033   7.539   5.771   5.354  0.1615  0.6725  0.1547
  562MOL    H3246034   7.621   5.759   5.532 -0.1738 -1.2884 -1.2265
  562MOL    H3346035   7.544   5.913   5.486 -0.8329  1.1628  0.7015
  562MOL    C3446036   7.452   5.830   5.275 -0.0398 -0.4553 -0.1411
  562MOL    O3546037   7.501   5.949   5.209 -0.0423  0.7326  0.4462
  562MOL    H3646038   7.368   5.860   5.338  0.4025  1.6352 -0.4899
  562MOL    H3746039   7.417   5.757   5.203  0.5336  0.1320 -1.0286
  562MOL    C3846040   7.405   6.001   5.126 -0.7035 -0.7116  0.0571
  562MOL    O3946041   7.297   6.061   5.187  0.2351 -0.7147 -0.1191
  562MOL    H4046042   7.371   5.914   5.070  0.7943  0.1348 -2.2457
  562MOL    H4146043   7.456   6.057   5.047  1.8648 -3.1248 -0.0722
  562MOL    C4246044   7.340   6.191   5.228 -0.0864 -0.1078 -0.4437
  562MOL    O4346045   7.371   6.269   5.114  0.4912 -0.0396  0.6728
  562MOL    H4446046   7.436   6.181   5.278  0.7903 -0.1918 -2.1269
  562MOL    H4546047   7.268   6.231   5.299 -0.9826  0.0850 -1.4526
  562MOL    C4646048   7.273   6.370   5.082 -0.2746  0.2703 -0.4655
  562MOL    O4746049   7.274   6.464   5.184 -1.0345 -0.1658  0.7513
  562MOL    H4846050   7.174   6.323   5.082  0.0384 -0.4854  1.9856
  562MOL    H4946051   7.284   6.425   4.989 -0.0935  1.5199  0.2846
  562MOL    C5046052   7.370   6.560   5.169  0.3140  0.1215  0.1635
  562MOL    O5146053   7.320   6.667   5.094 -0.0309  0.1138  0.1198
  562MOL    H5246054   7.461   6.522   5.123 -1.3798 -3.0370 -0.7130
  562MOL    H5346055   7.399   6.590   5.270  0.1682  0.0220  0.2353
  562MOL    C5446056   7.231   6.741   5.168 -0.3812  0.5890 -0.4755
  562MOL    O5546057   7.300   6.823   5.261  0.5159  0.6133  0.7459
  562MOL    H5646058   7.156   6.684   5.222  1.9228 -2.4317 -0.3694
  562MOL    H5746059   7.179   6.810   5.101  0.5266  0.2860 -1.5064
  562MOL    C5846060   7.379   6.926   5.206  0.1127 -0.1759  0.6894
  562MOL    O5946061   7.298   7.012   5.133 -0.4703  0.6537  0.0117
  562MOL    H6046062   7.439   6.892   5.121  0.2712  2.5034 -0.3233
  562MOL    H6146063   7.446   6.971   5.278  0.0139 -1.1679  1.4166
  562MOL    C6246064   7.204   7.082   5.203  0.2705  0.2972  0.2380
  562MOL    O6346065   7.261   7.170   5.286 -1.0935  0.1779 -0.1382
  562MOL    H6446066   7.149   7.010   5.264  1.9830 -0.1507  1.3021
  562MOL    H6546067   7.145   7.135   5.129  0.4020 -0.8883 -0.7314
  562MOL    C6646068   7.176   7.252   5.363 -0.5054 -0.3706 -0.3175
  562MOL    O6746069   7.078   7.310   5.288 -0.5591 -0.4398  0.3297
  562MOL    H6846070   7.236   7.325   5.418 -0.5071 -1.0376  0.5842
  562MOL    H6946071   7.137   7.190   5.444  2.6457 -0.3379  1.3080
  562MOL    C7046072   7.125   7.418   5.211  0.3343  0.5276 -0.0737
  562MOL    O7146073   7.013   7.487   5.158  0.4437 -0.3487 -0.1108
  562MOL    H7246074   7.187   7.374   5.133  0.8273 -0.5926  0.9451
  562MOL    H7346075   7.189   7.480   5.273 -0.1429  0.8478  0.1051
  562MOL    C7446076   6.931   7.415   5.074  0.2849  0.8940 -0.2672
  562MOL    O7546077   6.996   7.365   4.961  0.2574 -0.0797  0.3615
  562MOL    H7646078   6.850   7.472   5.027 -1.5567 -2.2137 -1.0142
  562MOL    H7746079   6.887   7.334   5.132 -0.6939  1.4355 -0.2455
  562MOL    C7846080   7.045   7.471   4.881 -0.1429  0.1071  0.1003
  562MOL    O7946081   7.093   7.413   4.765 -0.2757 -0.0005 -0.1719
  562MOL    H8046082   7.133   7.514   4.929 -0.9363  2.2851 -0.3557
  562MOL    H8146083   6.969   7.548   4.865 -1.5128 -1.4216 -0.9374
  562MOL    H8246084   7.186   7.402   4.776 -0.6139 -0.3247  2.7766
  563MOL     C146085   3.160   4.972   3.837 -0.0784  0.6698 -0.5231
  563MOL     O246086   3.293   4.970   3.885 -0.1228 -0.1023 -0.2400
  563MOL     H346087   3.122   4.870   3.844 -0.1842  0.7185 -0.3836
  563MOL     H446088   3.112   5.042   3.906  2.0075  0.3094  1.3453
  563MOL     H546089   3.163   5.009   3.735 -2.0536 -0.6830 -1.1109
  563MOL     C646090   3.314   4.905   4.007  0.6393  0.2530 -0.1158
  563MOL     O746091   3.287   4.769   4.002  0.2284  0.1408 -0.2718
  563MOL     H846092   3.253   4.953   4.083  0.1891 -1.0086  0.3268
  563MOL     H946093   3.418   4.923   4.033 -0.1654  0.6107  2.9527
  563MOL    C1046094   3.384   4.699   3.922  1.2317 -0.8972 -0.3144
  563MOL    O1146095   3.488   4.662   4.007 -0.0591  0.3392  0.3200
  563MOL    H1246096   3.422   4.755   3.836 -1.5460  0.4062 -0.7502
  563MOL    H1346097   3.319   4.617   3.890 -1.1497  0.5609  0.6830
  563MOL    C1446098   3.570   4.573   3.940 -0.4071 -0.3096 -0.1919
  563MOL    O1546099   3.636   4.625   3.826  0.1358 -0.0850 -0.2199
  563MOL    H1646100   3.522   4.476   3.930 -1.5880  0.3443 -1.0535
  563MOL    H1746101   3.643   4.555   4.019 -0.7834  0.4294  0.3251
  563MOL    C1846102   3.735   4.541   3.778  0.5494  0.0986 -0.0577
  563MOL    O1946103   3.852   4.545   3.856 -0.0325  1.0403 -0.4956
  563MOL    H2046104   3.755   4.561   3.672  0.0441 -1.4814 -0.4723
  563MOL    H2146105   3.706   4.436   3.787  1.9109 -0.3146 -0.4060
  563MOL    C2246106   3.927   4.661   3.848  0.0950  0.0493 -0.1359
  563MOL    O2346107   4.000   4.658   3.733  0.1244 -0.1002  0.0583
  563MOL    H2446108   3.984   4.667   3.940  1.5166  0.7353 -1.0513
  563MOL    H2546109   3.876   4.758   3.846 -1.6737 -0.8596 -0.9227
  563MOL    C2646110   4.100   4.755   3.723 -0.0272 -0.3359 -0.2222
  563MOL    O2746111   4.061   4.892   3.745 -0.0894  0.1135 -0.6261
  563MOL    H2846112   4.163   4.746   3.634 -1.1086  1.7811 -1.2437
  563MOL    H2946113   4.163   4.740   3.810  0.2482 -2.7306 -0.7857
  563MOL    C3046114   4.002   4.943   3.633  0.6572  0.2597  0.0600
  563MOL    O3146115   4.091   4.950   3.524  0.4057 -0.4289 -0.0494
  563MOL    H3246116   3.972   5.044   3.663 -1.5053 -0.1417 -0.6924
  563MOL    H3346117   3.903   4.906   3.608 -0.3765  1.8746  1.6021
  563MOL    C3446118   4.039   5.019   3.413  0.0462 -0.2812  0.2373
  563MOL    O3546119   4.099   4.974   3.294  0.3742 -0.4859 -0.3189
  563MOL    H3646120   4.055   5.127   3.414 -4.5285  0.5254 -1.0964
  563MOL    H3746121   3.935   4.993   3.393  0.4097 -0.3297 -1.7078
  563MOL    C3846122   4.073   4.837   3.277  0.3408  0.2161 -0.2367
  563MOL    O3946123   3.945   4.817   3.230  0.4993  0.6513  0.0874
  563MOL    H4046124   4.092   4.773   3.364 -1.7230  0.4566  0.4291
  563MOL    H4146125   4.125   4.789   3.194  1.5882  0.8467  0.1666
  563MOL    C4246126   3.907   4.693   3.196 -0.0853  0.3609  0.1019
  563MOL    O4346127   3.889   4.607   3.306  0.3969 -0.1444 -0.1953
  563MOL    H4446128   3.977   4.631   3.141  0.3961  0.1616  0.9289
  563MOL    H4546129   3.820   4.690   3.130 -1.5908 -0.1109  2.0415
  563MOL    C4646130   3.769   4.646   3.368 -0.3292 -0.2900 -0.2746
  563MOL    O4746131   3.658   4.625   3.280  0.0384  0.2542  0.1508
  563MOL    H4846132   3.769   4.743   3.417 -2.8320 -1.1091  1.4353
  563MOL    H4946133   3.760   4.575   3.450 -0.2043  0.5525  0.4687
  563MOL    C5046134   3.639   4.489   3.244  0.3098  0.1345 -0.1232
  563MOL    O5146135   3.582   4.414   3.354 -0.3107  0.2343 -0.1227
  563MOL    H5246136   3.735   4.443   3.222 -0.1695 -0.4757 -0.9688
  563MOL    H5346137   3.579   4.473   3.155 -0.4435  1.3471  0.1464
  563MOL    C5446138   3.463   4.467   3.398 -1.0764  0.3034  0.5778
  563MOL    O5546139   3.393   4.389   3.488 -0.4845 -0.1806 -0.2022
  563MOL    H5646140   3.405   4.474   3.306 -0.9281 -1.5178  0.3203
  563MOL    H5746141   3.478   4.568   3.434 -3.0367  1.4352 -1.6732
  563MOL    C5846142   3.456   4.369   3.607 -0.2011  0.3872 -0.1326
  563MOL    O5946143   3.378   4.299   3.699 -0.0728 -0.4184 -0.7594
  563MOL    H6046144   3.480   4.469   3.645  0.1993  0.2196  0.0603
  563MOL    H6146145   3.553   4.321   3.597 -0.6702 -0.4891 -0.5036
  563MOL    C6246146   3.380   4.157   3.681  0.0807 -0.2786 -0.2496
  563MOL    O6346147   3.494   4.091   3.725 -0.2849 -0.8572 -0.0139
  563MOL    H6446148   3.360   4.139   3.576  3.0157 -1.0387 -0.7371
  563MOL    H6546149   3.293   4.118   3.733  0.9794 -0.4279  1.1784
  563MOL    C6646150   3.525   4.117   3.858 -0.3843  0.1453 -0.2114
  563MOL    O6746151   3.439   4.060   3.953  0.6707 -0.1598 -0.0047
  563MOL    H6846152   3.534   4.225   3.871 -1.0886  0.3344 -1.2350
  563MOL    H6946153   3.627   4.083   3.878 -0.4001 -0.6623 -1.4532
  563MOL    C7046154   3.454   3.924   3.963 -0.1557 -0.3572 -0.1749
  563MOL    O7146155   3.570   3.891   4.036  0.1115  0.0356 -0.1769
  563MOL    H7246156   3.455   3.881   3.863 -1.5894  1.6788 -1.1111
  563MOL    H7346157   3.361   3.891   4.010 -0.4282 -0.2555 -0.6420
  563MOL    C7446158   3.548   3.862   4.169  0.2273  0.2535  0.5275
  563MOL    O7546159   3.502   3.734   4.194  0.2388  0.4583 -0.9743
  563MOL    H7646160   3.485   3.938   4.216  0.5710  0.8118  0.0883
  563MOL    H7746161   3.641   3.880   4.222 -0.1923  0.4100  1.2101
  563MOL    C7846162   3.596   3.634   4.160  0.5545 -0.2110 -0.0020
  563MOL    O7946163   3.585   3.516   4.228 -0.4301  0.7522 -0.3178
  563MOL    H8046164   3.698   3.669   4.177 -0.1247  1.3723  0.9121
  563MOL    H8146165   3.602   3.617   4.052 -1.9750 -1.1860 -0.0120
  563MOL    H8246166   3.654   3.467   4.186 -2.0437 -1.5680 -0.3200
  564MOL     C146167   6.615   5.478   2.081  0.3251 -0.0157 -0.2351
  564MOL     O246168   6.504   5.403   2.133  0.4702  0.0250 -0.2738
  564MOL     H346169   6.623   5.474   1.972  1.1512  1.6786 -0.2432
  564MOL     H446170   6.612   5.585   2.102  0.8517  0.4563 -2.4148
  564MOL     H546171   6.710   5.449   2.125  1.5468  0.6094 -2.3529
  564MOL     C646172   6.484   5.434   2.268  0.1430  0.8620 -0.0063
  564MOL     O746173   6.387   5.341   2.308  0.0572  0.0282  1.0223
  564MOL     H846174   6.451   5.537   2.285  0.0033  1.0316 -1.2505
  564MOL     H946175   6.574   5.413   2.326 -0.7062 -1.0031  0.6729
  564MOL    C1046176   6.264   5.359   2.245 -0.4635 -0.3477  1.1847
  564MOL    O1146177   6.182   5.439   2.325  0.1040  0.1515  0.4694
  564MOL    H1246178   6.218   5.262   2.224  2.1690 -1.1741 -0.8803
  564MOL    H1346179   6.275   5.413   2.152  1.1496  0.2066  1.6784
  564MOL    C1446180   6.056   5.459   2.268  0.4410 -1.0012  0.0458
  564MOL    O1546181   5.977   5.339   2.264  0.0647 -0.4368  0.5988
  564MOL    H1646182   6.066   5.518   2.177 -1.7099  1.9739  1.6671
  564MOL    H1746183   6.004   5.521   2.341  2.1364  0.8756 -0.3186
  564MOL    C1846184   5.854   5.362   2.212  0.3132  0.2212  0.3366
  564MOL    O1946185   5.856   5.349   2.078 -0.3172  0.3360 -0.3769
  564MOL    H2046186   5.815   5.464   2.222 -1.6004 -0.5870  1.1405
  564MOL    H2146187   5.774   5.302   2.253  1.2247 -0.6771  0.7971
  564MOL    C2246188   5.874   5.215   2.036  0.3220  0.0159  0.1016
  564MOL    O2346189   5.874   5.205   1.892  0.0780 -0.1367 -0.0743
  564MOL    H2446190   5.796   5.146   2.069  0.8221 -0.3759  0.4768
  564MOL    H2546191   5.969   5.176   2.074  0.4136  1.1878  1.1066
  564MOL    C2646192   5.763   5.141   1.837  0.6174 -0.1319 -0.3833
  564MOL    O2746193   5.771   4.997   1.841  1.1263  0.1638 -0.2344
  564MOL    H2846194   5.773   5.177   1.734  0.5960 -1.1073 -0.7255
  564MOL    H2946195   5.666   5.176   1.873 -0.9232 -1.8500 -2.6845
  564MOL    C3046196   5.873   4.948   1.764 -0.5456 -0.8332 -0.0280
  564MOL    O3146197   5.838   4.911   1.637  0.0522  0.5857  0.7139
  564MOL    H3246198   5.927   4.867   1.813  0.1538  0.2876  1.0946
  564MOL    H3346199   5.954   5.020   1.750  0.8907 -1.7034  3.4343
  564MOL    C3446200   5.749   4.806   1.636 -0.5714  0.9269  0.2976
  564MOL    O3546201   5.636   4.839   1.554  0.0457  0.3730  0.2843
  564MOL    H3646202   5.709   4.787   1.735 -0.8905  0.6218  0.1132
  564MOL    H3746203   5.804   4.723   1.593 -1.8639 -1.1525  2.5376
  564MOL    C3846204   5.573   4.961   1.591  0.0964  0.7833 -0.0361
  564MOL    O3946205   5.446   4.958   1.556 -0.9705  0.0689 -0.0528
  564MOL    H4046206   5.636   5.036   1.543  1.5494 -0.4186 -0.0549
  564MOL    H4146207   5.576   4.966   1.700  0.7933 -1.5927  0.0868
  564MOL    C4246208   5.383   5.077   1.550 -0.1777 -0.4740  0.0358
  564MOL    O4346209   5.410   5.159   1.438 -0.3004 -0.5144  0.1127
  564MOL    H4446210   5.413   5.135   1.637 -1.9192 -2.0370  1.7082
  564MOL    H4546211   5.275   5.060   1.546 -0.3894  0.8149 -0.1704
  564MOL    C4646212   5.388   5.099   1.311 -0.2918 -0.7593 -0.6697
  564MOL    O4746213   5.252   5.061   1.291 -0.2054 -0.1831  0.1938
  564MOL    H4846214   5.454   5.012   1.307 -0.4352 -0.8651 -0.7339
  564MOL    H4946215   5.423   5.180   1.247  2.8705 -0.0940  1.7769
  564MOL    C5046216   5.233   4.929   1.263 -0.6715 -0.3173  0.3982
  564MOL    O5146217   5.101   4.912   1.234  0.2705  0.2336 -0.5820
  564MOL    H5246218   5.258   4.877   1.355 -0.3592  1.0977  1.1303
  564MOL    H5346219   5.295   4.888   1.183  2.6877  0.7336  2.3500
  564MOL    C5446220   5.066   4.957   1.108 -0.0946 -0.1973  0.1596
  564MOL    O5546221   5.119   4.874   1.007  0.1192 -0.3686  0.3813
  564MOL    H5646222   5.098   5.061   1.100 -3.0093  0.6954 -0.1961
  564MOL    H5746223   4.959   4.943   1.097 -0.2483 -1.4323  2.8230
  564MOL    C5846224   5.094   4.920   0.877  0.1574 -0.2751  0.6254
  564MOL    O5946225   4.953   4.929   0.857 -0.3983 -0.5637 -0.4377
  564MOL    H6046226   5.154   4.866   0.804 -0.1031  0.0702  0.1573
  564MOL    H6146227   5.132   5.022   0.885  1.2675 -0.7748  2.0554
  564MOL    C6246228   4.890   4.805   0.845  0.1036  0.0999  0.9886
  564MOL    O6346229   4.914   4.743   0.727  0.1397  0.1294 -0.2803
  564MOL    H6446230   4.782   4.817   0.853  0.1558  0.8087  0.6747
  564MOL    H6546231   4.926   4.749   0.931 -0.4719  0.3061  1.3674
  564MOL    C6646232   4.889   4.600   0.723  0.6446 -0.3819 -0.3834
  564MOL    O6746233   4.989   4.518   0.766 -0.3684 -0.6137 -0.3108
  564MOL    H6846234   4.856   4.570   0.623  2.0519 -0.4058 -0.8480
  564MOL    H6946235   4.800   4.579   0.782  0.7087 -0.2211 -0.2325
  564MOL    C7046236   5.099   4.531   0.681  0.2706 -0.6654 -0.3657
  564MOL    O7146237   5.213   4.458   0.725  0.0330  0.2703 -0.2220
  564MOL    H7246238   5.122   4.638   0.684  0.2087 -0.6930  1.9130
  564MOL    H7346239   5.080   4.502   0.578  0.8379  1.5027 -1.1179
  564MOL    C7446240   5.268   4.511   0.842  0.0761 -0.7720 -0.2776
  564MOL    O7546241   5.374   4.599   0.811 -0.4841 -0.3824  0.3009
  564MOL    H7646242   5.299   4.429   0.907  2.3266  1.0259  1.0083
  564MOL    H7746243   5.199   4.579   0.893 -2.8994 -1.2992 -3.4559
  564MOL    C7846244   5.478   4.539   0.734  0.2112 -0.0703  0.1260
  564MOL    O7946245   5.586   4.630   0.715  0.2053  0.2637 -0.2919
  564MOL    H8046246   5.451   4.500   0.636  0.8442  0.1997 -0.1608
  564MOL    H8146247   5.514   4.454   0.793 -0.5495 -0.9650 -0.6687
  564MOL    H8246248   5.603   4.675   0.796 -0.4023 -1.7776  1.0232
  565MOL     C146249   1.544   6.389   5.889 -0.7921  0.1798  0.3447
  565MOL     O246250   1.546   6.267   5.814 -0.0736  0.1448  0.5005
  565MOL     H346251   1.483   6.465   5.839 -1.3323 -0.5488 -0.1215
  565MOL     H446252   1.488   6.358   5.978 -0.0712  0.1686  0.7958
  565MOL     H546253   1.649   6.409   5.907  0.1192 -1.6598 -2.4856
  565MOL     C646254   1.626   6.278   5.704 -0.6188 -0.2522 -0.0925
  565MOL     O746255   1.759   6.277   5.741  0.1396  0.1438  0.4483
  565MOL     H846256   1.607   6.372   5.652  3.3536 -0.2428 -1.7375
  565MOL     H946257   1.596   6.195   5.640  4.0380 -0.9281 -1.5767
  565MOL    C1046258   1.844   6.264   5.622  0.1196 -0.1036  0.1496
  565MOL    O1146259   1.839   6.374   5.540 -0.3501  0.4952  0.2523
  565MOL    H1246260   1.819   6.174   5.565 -0.6097 -0.2037  0.6286
  565MOL    H1346261   1.947   6.247   5.653  0.0946 -2.3683 -0.8996
  565MOL    C1446262   1.868   6.487   5.619 -0.2812 -0.6672 -0.9863
  565MOL    O1546263   1.997   6.479   5.665  0.5407 -0.0563  0.1156
  565MOL    H1646264   1.809   6.508   5.708 -0.1931 -2.1550 -0.5760
  565MOL    H1746265   1.857   6.583   5.568  2.5424 -0.6469 -1.6487
  565MOL    C1846266   2.090   6.511   5.572 -0.2850  0.3591 -0.2452
  565MOL    O1946267   2.084   6.636   5.519 -0.3685  0.4350  0.9945
  565MOL    H2046268   2.075   6.439   5.491 -0.4779 -0.4993  0.5432
  565MOL    H2146269   2.192   6.484   5.599 -0.2088 -0.2599 -1.1055
  565MOL    C2246270   2.139   6.644   5.391 -0.6610  0.4254 -0.6845
  565MOL    O2346271   2.108   6.769   5.328 -0.4714  0.8073  0.3005
  565MOL    H2446272   2.103   6.563   5.327  1.1584 -0.9539  0.0022
  565MOL    H2546273   2.246   6.625   5.401 -0.8245 -0.8728 -1.2790
  565MOL    C2646274   1.965   6.772   5.301 -0.2168 -0.5357 -0.1711
  565MOL    O2746275   1.932   6.658   5.214  0.3532  0.2216 -0.0406
  565MOL    H2846276   1.946   6.860   5.239  3.4091 -0.6644 -1.5974
  565MOL    H2946277   1.896   6.777   5.385 -2.7367 -2.8535 -2.0061
  565MOL    C3046278   1.812   6.676   5.150  0.2933  0.0640 -0.5660
  565MOL    O3146279   1.700   6.688   5.233 -0.1847 -0.6033 -0.3017
  565MOL    H3246280   1.786   6.599   5.077  0.6736  0.8864 -1.5708
  565MOL    H3346281   1.807   6.762   5.084  1.6159  0.0693 -0.6656
  565MOL    C3446282   1.681   6.568   5.315 -0.0877  0.2528  0.8337
  565MOL    O3546283   1.599   6.477   5.246  0.3046  0.2710  0.5173
  565MOL    H3646284   1.642   6.603   5.410 -0.4738 -0.7466  1.0486
  565MOL    H3746285   1.774   6.513   5.335 -1.1445 -1.0650  2.2657
  565MOL    C3846286   1.588   6.346   5.302  0.4438 -0.2738  0.7614
  565MOL    O3946287   1.526   6.347   5.432  0.1264  0.1422  0.2146
  565MOL    H4046288   1.686   6.302   5.322  0.9869  0.0818 -1.0397
  565MOL    H4146289   1.549   6.278   5.227 -0.7239  0.4562  0.7075
  565MOL    C4246290   1.388   6.357   5.425 -0.8958 -0.0686 -0.1762
  565MOL    O4346291   1.329   6.243   5.378 -0.4697  0.1944  0.0920
  565MOL    H4446292   1.372   6.446   5.365 -0.7944 -0.6233 -1.0314
  565MOL    H4546293   1.364   6.375   5.530 -1.2783 -1.2651 -0.0585
  565MOL    C4646294   1.356   6.128   5.449 -0.5040 -0.6131 -0.2462
  565MOL    O4746295   1.267   6.031   5.408 -0.5582  0.0798 -0.5497
  565MOL    H4846296   1.347   6.146   5.556 -1.5206 -2.6312  0.0299
  565MOL    H4946297   1.460   6.106   5.422 -0.5114 -0.4467 -0.4019
  565MOL    C5046298   1.290   5.990   5.277  0.0502 -0.0296  0.9747
  565MOL    O5146299   1.412   5.912   5.275 -0.8361  0.1207  0.6805
  565MOL    H5246300   1.284   6.073   5.206 -0.8825  0.7346  1.9341
  565MOL    H5346301   1.220   5.924   5.226 -0.1781 -0.3957  1.7643
  565MOL    C5446302   1.402   5.789   5.343  0.0355  0.4972  0.0548
  565MOL    O5546303   1.474   5.690   5.278 -0.9140  0.7259 -0.4222
  565MOL    H5646304   1.297   5.770   5.363 -0.1062  1.7362  0.5318
  565MOL    H5746305   1.448   5.803   5.441 -0.6130 -3.2347  0.9751
  565MOL    C5846306   1.406   5.570   5.256 -0.4594  0.4320  0.5666
  565MOL    O5946307   1.401   5.505   5.373 -0.4934  0.3896 -0.0015
  565MOL    H6046308   1.451   5.503   5.182 -0.3864  0.9875  0.0971
  565MOL    H6146309   1.304   5.583   5.222  0.5441 -0.9114 -3.2084
  565MOL    C6246310   1.525   5.475   5.430  1.0094 -0.0060 -0.5997
  565MOL    O6346311   1.507   5.393   5.542 -0.2394 -0.4848  0.0536
  565MOL    H6446312   1.579   5.564   5.465  0.7773  0.1244 -0.5710
  565MOL    H6546313   1.598   5.426   5.366  2.1869  1.3891 -0.3589
  565MOL    C6646314   1.446   5.273   5.509  0.0905 -1.2223 -0.2764
  565MOL    O6746315   1.543   5.195   5.455  0.1364  0.0118 -0.4187
  565MOL    H6846316   1.356   5.293   5.451  0.0390  3.2180  1.1847
  565MOL    H6946317   1.416   5.242   5.609 -1.6635  0.1653 -0.3485
  565MOL    C7046318   1.511   5.064   5.427  0.3698  0.3665 -0.1910
  565MOL    O7146319   1.523   4.984   5.542  0.0540  0.2850 -1.0477
  565MOL    H7246320   1.570   5.030   5.342  1.0842  3.2160 -0.8708
  565MOL    H7346321   1.407   5.062   5.394  0.6366  0.4540 -1.0349
  565MOL    C7446322   1.652   4.975   5.599 -0.4919 -0.7558  0.5028
  565MOL    O7546323   1.747   4.922   5.514 -0.2783 -0.4152 -0.7092
  565MOL    H7646324   1.644   4.914   5.689  0.0882 -0.2609  0.8908
  565MOL    H7746325   1.684   5.075   5.628  0.4757 -0.5090 -1.3441
  565MOL    C7846326   1.716   4.794   5.467 -0.2501  0.2028  0.5331
  565MOL    O7946327   1.816   4.739   5.390 -0.2027 -0.1576 -0.1932
  565MOL    H8046328   1.621   4.801   5.415 -0.5825 -0.1256  1.0804
  565MOL    H8146329   1.695   4.718   5.543 -0.9902 -0.2073 -0.0786
  565MOL    H8246330   1.790   4.759   5.301  3.2578 -0.5796 -1.3634
  566MOL     C146331   7.697   6.891   1.306  0.2359 -0.4402 -0.0068
  566MOL     O246332   7.635   6.773   1.355  0.2898 -0.8892 -0.5047
  566MOL     H346333   0.014   6.901   1.347 -0.4756 -1.8226  2.2093
  566MOL     H446334   7.692   6.901   1.198 -0.1163  0.1769  0.0627
  566MOL     H546335   7.643   6.977   1.346 -0.5954 -0.4676 -1.0420
  566MOL     C646336   7.642   6.667   1.273  0.2148 -0.2220  0.3183
  566MOL     O746337   7.778   6.636   1.245 -0.0203  0.3208  0.0406
  566MOL     H846338   7.591   6.680   1.177 -0.2806 -2.5185  0.2337
  566MOL     H946339   7.582   6.586   1.315 -0.1205 -0.5402 -0.7357
  566MOL    C1046340   0.005   6.526   1.159 -0.5302 -0.3673 -0.2298
  566MOL    O1146341   7.738   6.407   1.224 -0.2790  0.1616 -0.2706
  566MOL    H1246342   0.114   6.522   1.148 -0.0601 -2.4608  4.0546
  566MOL    H1346343   7.743   6.538   1.061 -1.4764 -2.6650 -0.1188
  566MOL    C1446344   0.038   6.374   1.332 -0.3760 -0.4707 -0.5175
  566MOL    O1546345   0.116   6.271   1.292 -0.5548 -0.3107  0.3330
  566MOL    H1646346   7.760   6.352   1.419  0.1640  2.3456  0.6306
  566MOL    H1746347   0.100   6.457   1.367  1.4904 -0.7946 -2.9618
  566MOL    C1846348   0.176   6.199   1.402 -0.2412  0.1041 -0.0569
  566MOL    O1946349   0.294   6.265   1.441 -0.3213  0.2228 -0.3654
  566MOL    H2046350   0.200   6.101   1.361 -1.8817 -0.0143 -0.8099
  566MOL    H2146351   0.117   6.191   1.493  0.3124  0.0919  0.3012
  566MOL    C2246352   0.394   6.276   1.345 -0.5481  0.2807  0.4331
  566MOL    O2346353   0.446   6.153   1.312  0.4293 -0.4040  0.2488
  566MOL    H2446354   0.475   6.346   1.365 -0.2234 -0.0039  0.1376
  566MOL    H2546355   0.349   6.308   1.251  1.7764 -1.5963 -1.3873
  566MOL    C2646356   0.516   6.099   1.416 -0.7267 -0.2248  0.2189
  566MOL    O2746357   0.595   5.987   1.374  0.0732  0.8121 -0.3554
  566MOL    H2846358   0.435   6.059   1.478 -1.4947  2.0703  0.7399
  566MOL    H2946359   0.578   6.171   1.468  0.3298 -0.2164 -1.0431
  566MOL    C3046360   0.699   6.024   1.294 -0.5455  0.5431  0.3549
  566MOL    O3146361   0.786   6.108   1.364 -0.2479 -0.1243 -0.2894
  566MOL    H3246362   0.653   6.080   1.212 -0.3390 -0.9427 -0.8090
  566MOL    H3346363   0.746   5.935   1.251 -1.7576 -0.0399  0.2173
  566MOL    C3446364   0.889   6.045   1.437 -0.2909  0.3066  0.5126
  566MOL    O3546365   0.987   5.983   1.355 -0.1547  0.1826  0.1534
  566MOL    H3646366   0.842   5.965   1.494  0.3866  0.1859  0.9041
  566MOL    H3746367   0.933   6.122   1.501 -1.0412  1.2868 -0.1268
  566MOL    C3846368   1.073   6.074   1.300  0.3647  0.2415 -0.2786
  566MOL    O3946369   1.153   6.130   1.397 -0.6393 -0.0710  0.2833
  566MOL    H4046370   1.004   6.146   1.257 -2.0291 -0.6531  1.9157
  566MOL    H4146371   1.136   6.028   1.224  0.1499  0.0187 -0.3226
  566MOL    C4246372   1.258   6.048   1.440 -0.8733 -0.4902 -0.0643
  566MOL    O4346373   1.354   6.056   1.341 -0.5022  0.4290  0.2624
  566MOL    H4446374   1.224   5.950   1.472 -2.1635  0.0585  0.2984
  566MOL    H4546375   1.289   6.109   1.525 -1.5719  0.5678 -0.5536
  566MOL    C4646376   1.419   5.941   1.319  0.5640  0.4845 -0.3887
  566MOL    O4746377   1.553   5.939   1.371 -0.5016 -0.4552  0.2482
  566MOL    H4846378   1.420   5.936   1.210 -1.7407 -0.4719 -0.3958
  566MOL    H4946379   1.363   5.851   1.342  0.1961  0.8983  0.3666
  566MOL    C5046380   1.640   5.871   1.284 -0.4687 -1.2442 -0.5173
  566MOL    O5146381   1.777   5.881   1.306 -0.8185  0.8594 -0.0857
  566MOL    H5246382   1.630   5.899   1.179  0.1928 -2.8355 -1.0282
  566MOL    H5346383   1.614   5.765   1.287  2.1186 -1.8766  3.3263
  566MOL    C5446384   1.813   5.804   1.418 -0.4537 -0.1814  0.2243
  566MOL    O5546385   1.857   5.679   1.382 -0.2792 -0.3571 -0.1035
  566MOL    H5646386   1.723   5.784   1.477 -0.2324 -1.1670  0.2201
  566MOL    H5746387   1.885   5.852   1.484 -0.8683  2.4919 -1.1815
  566MOL    C5846388   1.995   5.694   1.338  0.4264 -0.2180  0.1191
  566MOL    O5946389   2.090   5.665   1.434  0.4142  0.4177  0.4102
  566MOL    H6046390   2.005   5.798   1.307 -1.1308  0.2315  1.0900
  566MOL    H6146391   2.015   5.632   1.250  1.9976 -1.1410  1.0795
  566MOL    C6246392   2.140   5.529   1.432  0.3587  0.5582  0.1068
  566MOL    O6346393   2.221   5.507   1.322  0.2149 -0.0876 -0.0093
  566MOL    H6446394   2.044   5.478   1.421  2.0995 -2.4048 -1.8665
  566MOL    H6546395   2.189   5.519   1.528  2.2134 -3.0598 -1.1138
  566MOL    C6646396   2.345   5.568   1.334 -1.0551 -0.2169 -0.8273
  566MOL    O6746397   2.428   5.567   1.214 -0.3933 -0.3141 -0.6184
  566MOL    H6846398   2.404   5.511   1.406  0.8108  2.4336 -0.1819
  566MOL    H6946399   2.337   5.669   1.376 -0.8920 -0.6798  0.3184
  566MOL    C7046400   2.378   5.644   1.115 -0.6213  0.5368  0.1913
  566MOL    O7146401   2.397   5.781   1.147 -0.1706 -0.1163 -0.1933
  566MOL    H7246402   2.272   5.620   1.101 -0.6180  1.6672 -2.0115
  566MOL    H7346403   2.409   5.616   1.014 -0.1684  0.9011  0.2275
  566MOL    C7446404   2.528   5.825   1.158 -0.1865  0.4039 -0.6789
  566MOL    O7546405   2.593   5.791   1.041 -0.2921  0.5046  0.0900
  566MOL    H7646406   2.583   5.769   1.234 -2.5094 -0.9328  0.0835
  566MOL    H7746407   2.525   5.932   1.175  1.4887  0.1382  1.5236
  566MOL    C7846408   2.690   5.882   1.007 -0.8270 -0.6648  0.1444
  566MOL    O7946409   2.745   5.845   0.886 -0.0128  0.1688  0.4893
  566MOL    H8046410   2.765   5.856   1.081 -2.0656 -2.2321  0.8908
  566MOL    H8146411   2.676   5.990   1.008  0.1288 -0.5362 -0.0414
  566MOL    H8246412   2.695   5.871   0.810 -0.0405 -0.8692  0.1432
  567MOL     C146413   2.353   3.359   1.241  0.1425 -0.5358 -0.3320
  567MOL     O246414   2.485   3.411   1.218  0.3705  0.2890  0.1526
  567MOL     H346415   2.276   3.421   1.195  1.0182 -0.3349 -1.5607
  567MOL     H446416   2.344   3.257   1.206  1.7118 -1.4789  1.8802
  567MOL     H546417   2.334   3.334   1.345 -0.1370 -0.9715 -0.4882
  567MOL     C646418   2.582   3.320   1.261 -0.1031 -0.3739 -0.3855
  567MOL     O746419   2.574   3.304   1.396  0.7171 -0.4410 -0.4196
  567MOL     H846420   2.680   3.352   1.225  0.0166  0.2248  0.4459
  567MOL     H946421   2.564   3.229   1.205  0.0830  0.3442 -1.6363
  567MOL    C1046422   2.640   3.408   1.459  0.3156  0.3387  0.2948
  567MOL    O1146423   2.596   3.407   1.587 -0.1132  0.0746 -0.1011
  567MOL    H1246424   2.638   3.509   1.419  0.9836 -0.3917 -1.6643
  567MOL    H1346425   2.742   3.374   1.477  0.2514 -0.0206 -0.0058
  567MOL    C1446426   2.472   3.478   1.601  1.0773  0.3254  0.3812
  567MOL    O1546427   2.457   3.522   1.733 -0.3447  0.4912  0.0143
  567MOL    H1646428   2.393   3.410   1.567  1.3732 -0.6712  1.6515
  567MOL    H1746429   2.469   3.567   1.538 -1.1829 -1.0838 -1.6416
  567MOL    C1846430   2.333   3.582   1.752 -0.0738  0.0607  0.2489
  567MOL    O1946431   2.330   3.708   1.689 -0.1721 -0.1363 -0.1067
  567MOL    H2046432   2.316   3.586   1.860 -0.8460  1.2458  0.0804
  567MOL    H2146433   2.252   3.522   1.710  0.6512 -1.0445  0.3947
  567MOL    C2246434   2.377   3.812   1.766  0.3628  0.3799  0.0435
  567MOL    O2346435   2.290   3.837   1.873  0.3252  0.4973 -0.3221
  567MOL    H2446436   2.387   3.905   1.710 -2.1366 -0.4191 -1.8311
  567MOL    H2546437   2.478   3.781   1.794  1.1789  1.8869 -1.1361
  567MOL    C2646438   2.353   3.913   1.974 -0.1830 -0.0726  0.0482
  567MOL    O2746439   2.446   3.838   2.041 -0.2410 -0.3301  0.0187
  567MOL    H2846440   2.281   3.958   2.042 -0.2519 -0.1699  0.0388
  567MOL    H2946441   2.409   3.997   1.933 -0.3087 -0.1881 -0.3672
  567MOL    C3046442   2.394   3.751   2.131 -0.1454  0.4025  0.4461
  567MOL    O3146443   2.328   3.810   2.240 -0.2621  0.4361 -0.1254
  567MOL    H3246444   2.478   3.692   2.166  2.5789  1.1815 -4.3254
  567MOL    H3346445   2.332   3.675   2.083  0.5129  0.7702 -1.0189
  567MOL    C3446446   2.279   3.716   2.329  0.3551 -0.6347 -0.4979
  567MOL    O3546447   2.375   3.625   2.357 -0.1904  0.0050 -0.4646
  567MOL    H3646448   2.197   3.664   2.279  0.4899 -0.2336 -1.1468
  567MOL    H3746449   2.238   3.763   2.418  0.4043 -0.0391 -0.7818
  567MOL    C3846450   2.464   3.664   2.461  0.8503 -0.4230  0.4900
  567MOL    O3946451   2.399   3.673   2.583  0.9995  0.3221  0.6583
  567MOL    H4046452   2.512   3.758   2.430 -2.0558  0.9889  0.1233
  567MOL    H4146453   2.547   3.593   2.464  1.4951  0.3096  0.3530
  567MOL    C4246454   2.380   3.543   2.638 -0.1841 -0.4427 -0.0071
  567MOL    O4346455   2.499   3.473   2.653  0.0780 -0.0623 -1.0953
  567MOL    H4446456   2.298   3.499   2.581  0.5127 -0.8394 -0.7061
  567MOL    H4546457   2.333   3.556   2.736  0.2025  2.2974 -0.1470
  567MOL    C4646458   2.570   3.521   2.761 -0.3788  0.5682 -0.2188
  567MOL    O4746459   2.507   3.480   2.880 -0.1789 -0.4630  0.7803
  567MOL    H4846460   2.565   3.629   2.761  1.5674  0.6857  1.5285
  567MOL    H4946461   2.674   3.489   2.761 -0.9706 -1.5382  1.7088
  567MOL    C5046462   2.566   3.513   3.000  0.4466 -0.6585 -0.3254
  567MOL    O5146463   2.528   3.423   3.094  0.1159  0.1356 -0.8188
  567MOL    H5246464   2.512   3.596   3.048 -0.6947 -1.9985  0.7522
  567MOL    H5346465   2.672   3.538   3.001  0.4231 -0.5722  0.2672
  567MOL    C5446466   2.606   3.312   3.090  0.1646  0.1184  0.0740
  567MOL    O5546467   2.734   3.339   3.145  0.5318  0.6366 -0.1942
  567MOL    H5646468   2.605   3.265   2.991  1.8808  0.8334 -0.3017
  567MOL    H5746469   2.561   3.238   3.155  0.2860  0.4473  0.5302
  567MOL    C5846470   2.813   3.231   3.130 -0.6707 -0.1448  0.2160
  567MOL    O5946471   2.868   3.205   3.009  0.1772 -0.5049 -0.0404
  567MOL    H6046472   2.760   3.140   3.158  1.0796 -2.2573 -2.9775
  567MOL    H6146473   2.892   3.218   3.205 -1.2896 -2.9183  0.4431
  567MOL    C6246474   2.950   3.306   2.965 -0.0069  0.1195 -0.1350
  567MOL    O6346475   3.070   3.288   3.023 -0.1517 -0.3343 -0.0681
  567MOL    H6446476   2.899   3.401   2.981 -2.5394 -1.4205  1.2313
  567MOL    H6546477   2.960   3.301   2.856 -1.8608 -0.1690 -0.2985
  567MOL    C6646478   3.137   3.178   2.976  0.2551  0.1162  0.1973
  567MOL    O6746479   3.189   3.210   2.847 -0.1743 -0.1467 -0.2787
  567MOL    H6846480   3.080   3.085   2.980 -0.6580  0.5944 -1.2652
  567MOL    H6946481   3.224   3.168   3.041 -0.2085  1.4455  1.0485
  567MOL    C7046482   3.289   3.122   2.798 -0.1342 -0.1608  0.3977
  567MOL    O7146483   3.251   2.985   2.786 -0.0316  0.0381 -0.5370
  567MOL    H7246484   3.384   3.142   2.847 -1.3188 -0.2755  2.7938
  567MOL    H7346485   3.302   3.154   2.694 -3.0869  1.1027  0.3753
  567MOL    C7446486   3.146   2.970   2.692  0.3457 -0.0208  0.1372
  567MOL    O7546487   3.190   2.974   2.558 -0.0555  0.4556  0.1985
  567MOL    H7646488   3.071   3.048   2.706  0.8411  0.5338 -0.2724
  567MOL    H7746489   3.092   2.877   2.710 -0.5020  0.0757 -1.7810
  567MOL    C7846490   3.081   2.969   2.469 -0.8156 -0.5086  0.5517
  567MOL    O7946491   3.066   2.836   2.425  0.4237 -0.6346 -0.3972
  567MOL    H8046492   3.093   3.042   2.389  1.4223 -0.2761  1.0588
  567MOL    H8146493   2.984   2.994   2.514 -0.6916  1.9987 -0.5016
  567MOL    H8246494   3.026   2.788   2.495 -1.2080 -1.5365 -1.9032
  568MOL     C146495   6.853   3.844   2.223  0.2986 -0.1734 -0.1904
  568MOL     O246496   6.962   3.775   2.259  0.3653  0.1639  0.9643
  568MOL     H346497   6.842   3.859   2.115 -1.6237  0.8431  0.1103
  568MOL     H446498   6.771   3.797   2.277 -1.3688  0.7939 -1.8186
  568MOL     H546499   6.863   3.946   2.260  0.6473 -0.8941  1.7453
  568MOL     C646500   6.973   3.760   2.398 -0.4111 -0.5437  0.8652
  568MOL     O746501   6.881   3.674   2.464 -0.8814 -0.5898  0.4997
  568MOL     H846502   6.965   3.859   2.442  1.0059  0.6840 -1.5680
  568MOL     H946503   7.075   3.725   2.410  0.2682  0.0178 -2.8594
  568MOL    C1046504   6.918   3.542   2.438 -0.1281  0.1065  0.4402
  568MOL    O1146505   7.023   3.504   2.518 -0.0873  0.4323 -0.2856
  568MOL    H1246506   6.933   3.525   2.331 -0.0142 -0.5001  0.5477
  568MOL    H1346507   6.829   3.482   2.457  0.8544 -0.5739  3.0587
  568MOL    C1446508   6.992   3.532   2.654  0.5538 -0.0812 -0.2983
  568MOL    O1546509   6.894   3.437   2.694 -0.6771 -0.0802 -0.1554
  568MOL    H1646510   6.952   3.630   2.678  0.6468 -0.1122 -0.0203
  568MOL    H1746511   7.082   3.512   2.712  0.3629 -1.1155 -0.3418
  568MOL    C1846512   6.843   3.455   2.823 -0.1066  0.0134 -0.2942
  568MOL    O1946513   6.797   3.326   2.873  0.2287 -0.5561  0.3482
  568MOL    H2046514   6.763   3.528   2.812  0.4519  0.3775 -2.1779
  568MOL    H2146515   6.913   3.486   2.900  1.4151 -1.0702 -1.2185
  568MOL    C2246516   6.690   3.274   2.789 -0.1867 -0.0595  0.0207
  568MOL    O2346517   6.579   3.359   2.811  0.9230 -0.1647  0.2129
  568MOL    H2446518   6.666   3.175   2.827  0.5932 -1.1319 -2.1828
  568MOL    H2546519   6.712   3.272   2.682 -0.5319  1.2968 -0.0878
  568MOL    C2646520   6.518   3.335   2.930 -0.3983  0.1930 -0.0794
  568MOL    O2746521   6.433   3.440   2.966  0.5188  0.3039  0.9049
  568MOL    H2846522   6.572   3.297   3.017  1.1689  2.5044 -0.0001
  568MOL    H2946523   6.463   3.242   2.918 -0.9850  0.5004  0.2074
  568MOL    C3046524   6.495   3.542   3.035  0.0553  0.0910  0.3997
  568MOL    O3146525   6.523   3.501   3.167 -0.5151 -0.2300 -0.7379
  568MOL    H3246526   6.407   3.607   3.044 -0.3905 -0.4680  0.1369
  568MOL    H3346527   6.574   3.593   2.981 -2.9553  1.9580 -2.4653
  568MOL    C3446528   6.579   3.604   3.241 -0.2592  0.7763 -0.0172
  568MOL    O3546529   6.694   3.650   3.190  0.2110 -0.0617 -0.4487
  568MOL    H3646530   6.596   3.571   3.344 -0.6895  0.7437  0.0454
  568MOL    H3746531   6.509   3.688   3.235 -1.3374 -0.0051  1.2951
  568MOL    C3846532   6.802   3.560   3.199 -0.1293  0.0177 -0.1646
  568MOL    O3946533   6.920   3.613   3.147  0.9732  0.0599  0.0150
  568MOL    H4046534   6.780   3.466   3.148 -0.8364  0.2711 -0.3197
  568MOL    H4146535   6.820   3.534   3.304  0.9571 -1.1480 -0.6214
  568MOL    C4246536   6.967   3.710   3.234  0.1470  0.6688 -0.4759
  568MOL    O4346537   7.046   3.650   3.335  0.1688  0.2362 -0.3006
  568MOL    H4446538   6.880   3.754   3.283  0.6362 -0.4195  1.4315
  568MOL    H4546539   7.026   3.789   3.188 -0.3617  0.9569 -0.6401
  568MOL    C4646540   7.171   3.617   3.291  0.0273  0.0987 -0.4777
  568MOL    O4746541   7.254   3.728   3.299 -0.1523 -1.1862  0.1687
  568MOL    H4846542   7.170   3.586   3.187  1.3135  1.8158 -1.0306
  568MOL    H4946543   7.208   3.530   3.345 -1.2986 -0.0765  0.1622
  568MOL    C5046544   7.353   3.724   3.402  0.0078 -0.0053 -0.3080
  568MOL    O5146545   7.437   3.833   3.368  0.1587 -0.5537  0.6592
  568MOL    H5246546   7.409   3.630   3.402  1.5119  0.8691 -2.0258
  568MOL    H5346547   7.313   3.733   3.503 -0.8456 -2.7758 -0.3539
  568MOL    C5446548   7.516   3.814   3.254  0.2891 -0.4124  0.0768
  568MOL    O5546549   7.615   3.713   3.276 -0.4518  0.4130 -0.0464
  568MOL    H5646550   7.558   3.909   3.220 -1.0579  0.0095 -0.4461
  568MOL    H5746551   7.458   3.777   3.169  0.4743  0.3984 -0.4097
  568MOL    C5846552   7.713   3.718   3.178  0.3908  0.2763  0.6874
  568MOL    O5946553   7.662   3.691   3.054  0.4467  0.3437 -0.4301
  568MOL    H6046554   0.010   3.647   3.197 -0.5276  0.0732  4.1777
  568MOL    H6146555   7.757   3.817   3.177  0.0546  0.4274 -1.0455
  568MOL    C6246556   7.636   3.556   3.035  0.3530  0.4277  0.1576
  568MOL    O6346557   7.751   3.483   3.021 -0.0429  0.0714 -0.0701
  568MOL    H6446558   7.577   3.533   2.946  0.4581 -1.2515  0.4941
  568MOL    H6546559   7.574   3.523   3.119 -0.9572  1.5546 -0.3587
  568MOL    C6646560   0.026   3.505   2.897  0.2399 -0.7766  0.5793
  568MOL    O6746561   0.151   3.449   2.882 -0.5599 -0.0120  0.0874
  568MOL    H6846562   0.039   3.612   2.879  0.8522 -0.8592  0.5401
  568MOL    H6946563   7.745   3.461   2.821 -1.0102  0.3814  0.9399
  568MOL    C7046564   0.242   3.510   2.966 -0.6602  0.8316  0.2100
  568MOL    O7146565   0.271   3.637   2.917  0.0722 -0.2894  0.1176
  568MOL    H7246566   0.334   3.451   2.965 -0.6411  0.8299  1.3620
  568MOL    H7346567   0.206   3.513   3.069  0.3188 -0.4570  0.6130
  568MOL    C7446568   0.334   3.638   2.789 -0.4971 -0.2506 -0.0064
  568MOL    O7546569   0.420   3.745   2.773 -0.2841 -0.1675  0.0371
  568MOL    H7646570   0.254   3.635   2.715 -2.1325  1.1917  1.6524
  568MOL    H7746571   0.390   3.549   2.760 -0.6797  0.2165 -1.8170
  568MOL    C7846572   0.508   3.737   2.875  0.1296 -0.1448 -0.4777
  568MOL    O7946573   0.624   3.811   2.842 -0.1128 -0.3725 -0.1824
  568MOL    H8046574   0.541   3.635   2.896  0.9661  0.1802 -0.1686
  568MOL    H8146575   0.471   3.784   2.967 -0.2035 -1.3738  0.0203
  568MOL    H8246576   0.583   3.892   2.816  0.3220  0.2956  1.1519
  569MOL     C146577   0.273   0.507   4.260 -0.1024 -1.4771  0.6375
  569MOL     O246578   0.304   0.460   4.130  0.4071 -0.2582 -0.6291
  569MOL     H346579   0.360   0.558   4.301  1.5749 -2.6308 -1.3887
  569MOL     H446580   0.188   0.575   4.264 -0.4588 -1.6322 -2.5437
  569MOL     H546581   0.248   0.426   4.328 -0.5131 -2.6733 -0.8934
  569MOL     C646582   0.194   0.424   4.058 -0.2750  0.7268  0.2763
  569MOL     O746583   0.103   0.532   4.036  0.1661 -0.4190  0.1331
  569MOL     H846584   0.151   0.340   4.113  0.1015  0.9035  0.8422
  569MOL     H946585   0.221   0.378   3.963  0.9395  0.6492  0.6577
  569MOL    C1046586   7.784   0.514   3.944 -0.7319 -0.1792 -0.6426
  569MOL    O1146587   7.676   0.455   4.011  0.2630 -0.0341 -0.3251
  569MOL    H1246588   0.036   0.452   3.862 -1.7728 -0.9950 -0.4916
  569MOL    H1346589   7.748   0.611   3.910  1.2777  1.0177  0.5553
  569MOL    C1446590   7.621   0.529   4.113  0.4441 -0.6823 -0.7377
  569MOL    O1546591   7.528   0.633   4.082 -0.4676  0.7405 -0.4314
  569MOL    H1646592   7.692   0.575   4.181  1.2116 -1.0324 -1.2962
  569MOL    H1746593   7.556   0.467   4.176 -0.8106 -0.0072 -1.3702
  569MOL    C1846594   7.417   0.594   4.004  0.3958  0.6329 -0.2701
  569MOL    O1946595   7.314   0.690   3.993 -0.6460  0.2704  0.3668
  569MOL    H2046596   7.371   0.504   4.045 -0.9382  0.6229 -1.7405
  569MOL    H2146597   7.461   0.577   3.905 -1.2883 -0.0978 -0.9150
  569MOL    C2246598   7.219   0.674   3.895  0.8135 -0.1437 -0.5265
  569MOL    O2346599   7.256   0.694   3.762  0.0216 -0.2160 -0.6600
  569MOL    H2446600   7.132   0.740   3.899  0.1444 -1.1025  1.1354
  569MOL    H2546601   7.181   0.572   3.899 -0.8688  0.2351 -4.0558
  569MOL    C2646602   7.319   0.820   3.736 -0.4720  0.1056 -0.4421
  569MOL    O2746603   7.403   0.805   3.628  0.4411 -0.2158  0.0535
  569MOL    H2846604   7.376   0.850   3.824 -1.4152 -1.5565  0.7601
  569MOL    H2946605   7.247   0.899   3.715 -0.3828  0.3065 -0.0012
  569MOL    C3046606   7.516   0.721   3.645  0.3157  0.0222  0.1114
  569MOL    O3146607   7.604   0.757   3.740 -0.0977  0.4101 -0.1387
  569MOL    H3246608   7.575   0.714   3.553  1.5460 -0.4332  0.9257
  569MOL    H3346609   7.491   0.616   3.662 -1.0954  0.9010  3.8107
  569MOL    C3446610   7.664   0.882   3.722  0.0740 -0.3062  0.0601
  569MOL    O3546611   7.729   0.911   3.840 -0.0635  0.5841  0.2491
  569MOL    H3646612   7.585   0.953   3.701  0.8445  0.4083 -0.4798
  569MOL    H3746613   7.730   0.883   3.635  0.6543  0.3642  0.4964
  569MOL    C3846614   0.065   0.976   3.830 -0.3583  0.4962 -0.0279
  569MOL    O3946615   0.047   1.106   3.795 -0.0395  0.2160  0.4303
  569MOL    H4046616   0.132   0.924   3.762  0.0938  1.0569 -0.0132
  569MOL    H4146617   0.102   0.970   3.932  0.0076 -1.4649 -0.2601
  569MOL    C4246618   0.168   1.176   3.808 -0.3668 -0.3794 -0.1289
  569MOL    O4346619   0.226   1.181   3.936  0.0628  0.3293 -0.6259
  569MOL    H4446620   0.153   1.277   3.769  0.6683 -0.0297  0.3795
  569MOL    H4546621   0.237   1.129   3.738 -2.7236 -2.7781 -0.9277
  569MOL    C4646622   0.164   1.278   4.016 -0.3028  0.6961  0.8399
  569MOL    O4746623   0.160   1.407   3.972  0.3862  0.1205 -0.2891
  569MOL    H4846624   0.216   1.279   4.112  1.0750 -3.6408  0.2879
  569MOL    H4946625   0.066   1.235   4.035 -0.3501 -0.5657 -2.0036
  569MOL    C5046626   0.284   1.464   3.941  0.0085 -0.7220  0.0400
  569MOL    O5146627   0.348   1.514   4.058  0.4860  0.2996  0.1691
  569MOL    H5246628   0.267   1.544   3.869 -1.0734 -2.3170 -1.5290
  569MOL    H5346629   0.342   1.391   3.884  0.5164 -0.8252  0.6843
  569MOL    C5446630   0.273   1.615   4.127  0.7239  0.6457  0.4217
  569MOL    O5546631   0.275   1.590   4.263  0.1954  0.0182  0.4348
  569MOL    H5646632   0.166   1.601   4.107  0.8193  0.6523 -0.1084
  569MOL    H5746633   0.305   1.713   4.093 -2.8466  1.4516 -0.9016
  569MOL    C5846634   0.236   1.701   4.335 -0.2617  0.6922 -0.4723
  569MOL    O5946635   0.340   1.795   4.331 -0.3364 -0.0529  0.2151
  569MOL    H6046636   0.207   1.673   4.436  3.5446  2.1854  1.1106
  569MOL    H6146637   0.153   1.759   4.295 -1.9369 -0.2374  1.5302
  569MOL    C6246638   0.437   1.768   4.429 -0.6601 -0.2215 -0.2998
  569MOL    O6346639   0.392   1.811   4.555 -0.5528  0.1008 -0.3898
  569MOL    H6446640   0.526   1.820   4.395 -0.5583  0.0991  0.4409
  569MOL    H6546641   0.479   1.668   4.429  0.3401  0.1945  0.4739
  569MOL    C6646642   0.381   1.946   4.561  0.1748 -0.6890 -0.1808
  569MOL    O6746643   0.496   2.019   4.600  0.0961 -0.0543  0.1556
  569MOL    H6846644   0.298   1.974   4.626  0.1549 -0.7496 -0.1799
  569MOL    H6946645   0.364   1.988   4.461 -1.2293  1.0834  0.7801
  569MOL    C7046646   0.503   2.029   4.741  0.7327  0.3150 -0.2168
  569MOL    O7146647   0.411   2.123   4.792  0.3624  0.2433  0.1361
  569MOL    H7246648   0.607   2.058   4.753  0.6478 -0.8815  4.1397
  569MOL    H7346649   0.478   1.935   4.791 -1.7953  0.3380 -1.3283
  569MOL    C7446650   0.426   2.133   4.933  0.1093 -0.6220  0.3132
  569MOL    O7546651   0.375   2.013   4.994  0.0048 -0.6852  0.0454
  569MOL    H7646652   0.373   2.217   4.977  1.8854  0.5631  0.2226
  569MOL    H7746653   0.532   2.145   4.957  0.0846  0.6656 -0.1892
  569MOL    C7846654   0.235   1.991   4.983 -0.5193 -0.0368 -0.5488
  569MOL    O7946655   0.198   1.875   5.053 -0.0824  0.2551  0.3194
  569MOL    H8046656   0.214   1.987   4.876 -0.4225  1.1523 -0.6164
  569MOL    H8146657   0.172   2.073   5.017 -0.5512 -0.0521 -0.5721
  569MOL    H8246658   0.103   1.871   5.055 -0.0699  0.5478  1.3062
  570MOL     C146659   6.558   1.181   4.677 -0.0998 -0.1493 -0.0832
  570MOL     O246660   6.483   1.069   4.633  0.0649 -0.4421  0.2309
  570MOL     H346661   6.626   1.162   4.760  1.2936 -0.0004 -1.1671
  570MOL     H446662   6.620   1.233   4.605 -0.8514  2.7173  1.2792
  570MOL     H546663   6.487   1.255   4.714 -1.0982 -1.3041  0.3547
  570MOL     C646664   6.396   1.092   4.523 -0.0227 -0.8500 -0.2088
  570MOL     O746665   6.446   1.043   4.407 -0.2591  0.1216 -0.5939
  570MOL     H846666   6.358   1.194   4.518  0.6499 -0.6490 -1.1957
  570MOL     H946667   6.310   1.031   4.552 -1.1286  0.9129  0.3393
  570MOL    C1046668   6.466   0.906   4.417 -0.3741  0.7235  0.0522
  570MOL    O1146669   6.349   0.829   4.380  0.0657  0.7913  0.2794
  570MOL    H1246670   6.490   0.862   4.514 -0.7256  1.5682  0.5226
  570MOL    H1346671   6.552   0.891   4.352  0.3654  1.2875  0.8876
  570MOL    C1446672   6.302   0.858   4.256 -0.1717  0.0184  0.6405
  570MOL    O1546673   6.384   0.802   4.153  0.0178  0.4236 -0.2280
  570MOL    H1646674   6.303   0.966   4.242 -0.0471 -0.0662 -0.0251
  570MOL    H1746675   6.198   0.828   4.251  0.0229 -0.2809 -2.4677
  570MOL    C1846676   6.348   0.669   4.128  0.5075 -0.0734 -0.1470
  570MOL    O1946677   6.466   0.590   4.110  0.4803 -0.1249  0.2438
  570MOL    H2046678   6.296   0.678   4.032  2.0660  1.3538 -0.8725
  570MOL    H2146679   6.288   0.610   4.197  0.7152 -0.1416 -0.0251
  570MOL    C2246680   6.520   0.542   4.232  0.6810  0.1778 -0.9600
  570MOL    O2346681   6.464   0.421   4.269 -0.1661 -0.1235  0.6731
  570MOL    H2446682   6.505   0.622   4.305 -1.5206 -0.2170 -0.9515
  570MOL    H2546683   6.628   0.536   4.221  0.6628  0.0082 -1.0467
  570MOL    C2646684   6.510   0.319   4.182 -0.6453 -0.0591 -0.3260
  570MOL    O2746685   6.639   0.285   4.213  0.1187 -0.2364  0.2365
  570MOL    H2846686   6.505   0.347   4.077  0.4739 -2.3904 -1.0101
  570MOL    H2946687   6.447   0.231   4.199 -1.5475  0.3382 -1.4990
  570MOL    C3046688   6.652   0.250   4.345 -0.4387 -0.1611 -0.1538
  570MOL    O3146689   6.785   0.200   4.369  0.1789 -0.3388 -0.1193
  570MOL    H3246690   6.577   0.176   4.373  0.0376 -0.3011  0.7387
  570MOL    H3346691   6.632   0.331   4.415 -1.4635 -0.1311 -0.4740
  570MOL    C3446692   6.807   0.075   4.313  0.0899 -0.0696 -0.0587
  570MOL    O3546693   6.938   0.044   4.296 -0.6517 -0.5796  0.6594
  570MOL    H3646694   6.762   0.070   4.214  1.3586 -0.5074 -0.6192
  570MOL    H3746695   6.757   7.777   4.364 -2.6344  0.3743 -1.9032
  570MOL    C3846696   6.980   7.758   4.410  0.6702 -0.2106 -0.1849
  570MOL    O3946697   6.930   7.628   4.409 -0.2959  0.0660  0.3751
  570MOL    H4046698   6.955   0.025   4.503 -0.7690 -0.8633 -0.2074
  570MOL    H4146699   7.088   7.750   4.417  0.6156 -1.7993 -0.8326
  570MOL    C4246700   6.971   7.546   4.301 -0.0215  0.1468  0.1268
  570MOL    O4346701   6.969   7.412   4.343  0.4763  0.3317 -0.2078
  570MOL    H4446702   7.070   7.568   4.262 -0.1696 -1.7951 -1.4508
  570MOL    H4546703   6.905   7.568   4.216  2.3312  0.6127 -1.6293
  570MOL    C4646704   7.074   7.388   4.432  0.0036  0.2926  0.0265
  570MOL    O4746705   7.189   7.390   4.366  0.2121 -0.3949  0.2646
  570MOL    H4846706   7.053   7.290   4.474 -0.7024  0.3836 -0.0979
  570MOL    H4946707   7.074   7.462   4.512  0.3914 -0.0698  0.3596
  570MOL    C5046708   7.301   7.387   4.453  0.1038  0.3102 -0.3021
  570MOL    O5146709   7.324   7.498   4.530 -0.0224 -0.1360 -0.1074
  570MOL    H5246710   7.392   7.360   4.399  0.5157  1.2368 -0.0855
  570MOL    H5346711   7.283   7.302   4.518 -0.9630  0.8286  0.0802
  570MOL    C5446712   7.380   7.600   4.453 -0.3506 -0.3136 -0.0629
  570MOL    O5546713   7.508   7.583   4.415  0.0444 -0.1354 -0.0875
  570MOL    H5646714   7.375   7.697   4.504  1.1570 -1.1611  1.7635
  570MOL    H5746715   7.307   7.604   4.372  0.0985 -3.3936 -0.6498
  570MOL    C5846716   7.593   7.583   4.519  0.7328 -0.7490  0.4415
  570MOL    O5946717   7.720   7.533   4.475 -0.7179  0.1538 -0.1593
  570MOL    H6046718   7.574   7.537   4.617  0.4171 -0.3799  0.5544
  570MOL    H6146719   7.620   7.686   4.541 -0.0728 -0.6673  1.0773
  570MOL    C6246720   7.718   7.389   4.470  0.0827  0.5365 -0.2390
  570MOL    O6346721   7.758   7.336   4.594  0.5628 -0.0934 -0.2711
  570MOL    H6446722   0.012   7.360   4.399 -0.6121  0.3991 -0.9570
  570MOL    H6546723   7.622   7.349   4.438  0.0738  0.7213 -0.4427
  570MOL    C6646724   7.750   7.193   4.589 -0.0464 -0.6127  0.3019
  570MOL    O6746725   0.054   7.141   4.491 -0.3478  0.0207 -0.1967
  570MOL    H6846726   7.647   7.157   4.578 -0.2534 -0.8005  2.6212
  570MOL    H6946727   7.783   7.157   4.687  3.1705  0.5767 -0.3107
  570MOL    C7046728   0.187   7.160   4.530 -0.6431 -0.2648 -0.3984
  570MOL    O7146729   0.218   7.073   4.638  0.1165  0.1990 -0.8807
  570MOL    H7246730   0.204   7.263   4.563 -0.6403 -1.3465  3.1442
  570MOL    H7346731   0.265   7.147   4.455  0.6897 -0.1027  0.9333
  570MOL    C7446732   0.209   6.943   4.600  0.6753 -0.5169  0.3369
  570MOL    O7546733   0.183   6.856   4.707  0.6465  0.3208  0.0791
  570MOL    H7646734   0.312   6.923   4.570  0.5230 -0.9619  0.1099
  570MOL    H7746735   0.131   6.919   4.528  0.3337  1.1292  0.1317
  570MOL    C7846736   0.073   6.896   4.786 -0.1073  0.1164 -0.0609
  570MOL    O7946737   0.049   6.833   4.910 -0.0933  0.4002  0.4772
  570MOL    H8046738   7.774   6.885   4.716  0.1599 -2.7759  0.0273
  570MOL    H8146739   0.087   7.000   4.816  1.6929 -0.2623  0.4700
  570MOL    H8246740   7.779   6.759   4.887  0.0403  0.2746  0.5693
  571MOL     C146741   1.236   6.642   3.823  0.0137 -0.1692  0.1712
  571MOL     O246742   1.143   6.635   3.712 -0.1658  0.4035 -0.3025
  571MOL     H346743   1.188   6.686   3.910  1.4179  2.0235 -0.1375
  571MOL     H446744   1.289   6.547   3.836 -0.0849 -0.2398  0.0595
  571MOL     H546745   1.310   6.717   3.796  1.1230 -1.3135 -0.0014
  571MOL     C646746   1.194   6.562   3.611 -0.7479 -0.5889  0.4069
  571MOL     O746747   1.189   6.428   3.636 -0.5149 -0.0914  0.4447
  571MOL     H846748   1.295   6.595   3.586 -1.8627  1.1183 -1.9870
  571MOL     H946749   1.137   6.581   3.520 -1.7171  2.2466  1.5670
  571MOL    C1046750   1.058   6.384   3.666 -0.1575 -0.1486 -0.1111
  571MOL    O1146751   1.060   6.245   3.646 -0.0080 -0.1193  0.0743
  571MOL    H1246752   0.981   6.426   3.602 -2.7281 -0.6029  2.5603
  571MOL    H1346753   1.026   6.408   3.768  0.6929 -1.2753  0.4377
  571MOL    C1446754   1.063   6.203   3.509  0.0432  0.1919 -0.0499
  571MOL    O1546755   0.952   6.239   3.434 -0.1908  0.1264  0.1972
  571MOL    H1646756   1.095   6.100   3.495  0.9443  0.7973 -2.6786
  571MOL    H1746757   1.147   6.248   3.456  0.6253 -1.7068 -0.7736
  571MOL    C1846758   0.839   6.165   3.460  0.0510  0.6974 -0.3882
  571MOL    O1946759   0.759   6.162   3.348  0.6217 -0.3363  0.5927
  571MOL    H2046760   0.797   6.217   3.547 -2.8998 -1.9865 -0.1177
  571MOL    H2146761   0.860   6.064   3.493  1.5170  2.1271  3.3641
  571MOL    C2246762   0.825   6.094   3.238  0.1262 -0.1839 -0.2212
  571MOL    O2346763   0.816   5.955   3.262 -0.5846 -0.7368 -0.3189
  571MOL    H2446764   0.930   6.122   3.228  0.0807  0.6540  1.4436
  571MOL    H2546765   0.772   6.119   3.146  0.2228 -0.3216 -0.3154
  571MOL    C2646766   0.695   5.901   3.220  0.4367  0.2150  0.2341
  571MOL    O2746767   0.587   5.960   3.285  0.2304 -0.3520 -0.4854
  571MOL    H2846768   0.708   5.793   3.228  1.2165  0.0588 -2.8004
  571MOL    H2946769   0.690   5.913   3.112 -1.7104 -0.5212  0.2369
  571MOL    C3046770   0.571   5.917   3.417  0.2320  0.3054  0.8768
  571MOL    O3146771   0.503   5.797   3.413 -0.9368  0.3293  0.1050
  571MOL    H3246772   0.511   5.987   3.475 -0.9975 -0.6704  0.8004
  571MOL    H3346773   0.667   5.914   3.469 -1.0014  0.9543  3.2855
  571MOL    C3446774   0.470   5.741   3.536 -0.5539  0.4111 -0.1301
  571MOL    O3546775   0.365   5.806   3.595 -0.2000  0.2874 -0.1639
  571MOL    H3646776   0.553   5.736   3.606 -0.6237 -1.3881 -0.1534
  571MOL    H3746777   0.449   5.636   3.513  2.8703 -0.6331  1.2673
  571MOL    C3846778   0.314   5.733   3.701  0.4508 -0.1818 -0.4603
  571MOL    O3946779   0.277   5.598   3.671 -0.0402  0.2734  0.0656
  571MOL    H4046780   0.219   5.786   3.711 -0.1466 -1.2790 -0.2465
  571MOL    H4146781   0.378   5.747   3.788 -1.9397 -0.2473  1.3496
  571MOL    C4246782   0.193   5.543   3.758 -0.4200  0.4784 -0.7169
  571MOL    O4346783   0.264   5.543   3.882 -0.2972 -0.1293 -0.0906
  571MOL    H4446784   0.177   5.441   3.724  0.8182  0.2064 -0.5287
  571MOL    H4546785   0.100   5.599   3.771 -0.1428  0.4207  1.9063
  571MOL    C4646786   0.189   5.525   3.995  0.2406  0.6841 -0.4495
  571MOL    O4746787   0.109   5.412   3.987 -0.3674 -0.1379  0.2346
  571MOL    H4846788   0.121   5.606   4.019 -0.9013 -0.3912 -0.0108
  571MOL    H4946789   0.255   5.519   4.081  0.3258 -0.3544 -0.5806
  571MOL    C5046790   0.177   5.295   4.019  0.2350  0.5774 -0.1066
  571MOL    O5146791   0.201   5.278   4.155  0.1289  0.0514  0.1593
  571MOL    H5246792   0.275   5.294   3.970 -0.1738  2.6863 -1.0323
  571MOL    H5346793   0.123   5.208   3.980  0.7912  0.5413 -0.8275
  571MOL    C5446794   0.084   5.274   4.226 -0.5968 -0.2889 -0.5461
  571MOL    O5546795   0.010   5.159   4.199 -0.3534  0.1559 -0.0839
  571MOL    H5646796   0.032   5.370   4.227  0.9002  0.5334  0.6901
  571MOL    H5746797   0.113   5.277   4.331 -1.0864 -0.7522 -0.3960
  571MOL    C5846798   7.682   5.147   4.288 -0.4071  0.3480 -0.3623
  571MOL    O5946799   7.607   5.028   4.280  0.1073 -0.3785  0.1265
  571MOL    H6046800   7.613   5.232   4.284 -0.2848  0.5721  1.6909
  571MOL    H6146801   7.716   5.136   4.391  1.1380 -1.1274 -1.0120
  571MOL    C6246802   7.554   5.011   4.154  0.5123  1.0998  0.2372
  571MOL    O6346803   7.420   5.041   4.156  0.2819 -0.1505  0.3234
  571MOL    H6446804   7.568   4.907   4.125  0.0285  0.7433  1.2765
  571MOL    H6546805   7.584   5.078   4.073 -2.5371  1.9603 -0.2415
  571MOL    C6646806   7.352   4.984   4.266 -0.7105 -0.4801  0.8044
  571MOL    O6746807   7.225   4.939   4.232 -0.0601 -0.7057  0.0474
  571MOL    H6846808   7.351   5.055   4.348  0.3449  0.2714  0.1795
  571MOL    H6946809   7.407   4.904   4.316 -0.3324 -0.0541  1.0713
  571MOL    C7046810   7.144   5.043   4.182 -0.4982 -0.0667  0.2706
  571MOL    O7146811   7.097   5.136   4.274 -0.7516 -0.0282 -0.4463
  571MOL    H7246812   7.060   4.989   4.137 -2.4742  1.9011  1.4840
  571MOL    H7346813   7.185   5.099   4.098  0.2110 -0.5302  0.3056
  571MOL    C7446814   7.001   5.095   4.370 -0.0324 -0.5420  0.0100
  571MOL    O7546815   6.874   5.103   4.308  0.1797  0.1889 -0.2710
  571MOL    H7646816   7.003   5.164   4.455  2.0714  1.1550 -1.3696
  571MOL    H7746817   7.019   4.991   4.397  2.2616 -0.5502 -1.4544
  571MOL    C7846818   6.831   5.229   4.292 -0.8078  0.4009 -0.5893
  571MOL    O7946819   6.717   5.229   4.202 -0.2147 -0.4190 -0.5380
  571MOL    H8046820   6.912   5.288   4.249 -0.5329 -0.3241 -1.0834
  571MOL    H8146821   6.802   5.262   4.392  0.4472 -0.0940 -0.0518
  571MOL    H8246822   6.651   5.176   4.244  0.0880 -0.5021 -0.1645
  572MOL     C146823   4.730   2.594   2.753 -0.2921  0.6542 -0.3206
  572MOL     O246824   4.622   2.689   2.773  1.0386 -0.2304  0.6205
  572MOL     H346825   4.776   2.555   2.843 -1.3703  0.2562  0.0685
  572MOL     H446826   4.689   2.516   2.689 -0.8837  1.0693 -0.4561
  572MOL     H546827   4.801   2.641   2.685 -2.2775  1.4757 -1.8997
  572MOL     C646828   4.519   2.635   2.849  0.8167  0.0672 -0.4502
  572MOL     O746829   4.469   2.516   2.793 -0.7167 -0.2901  0.1342
  572MOL     H846830   4.437   2.706   2.859  0.9413 -0.1266  2.1539
  572MOL     H946831   4.547   2.604   2.950  2.3039  0.2246 -0.8003
  572MOL    C1046832   4.419   2.536   2.661  0.1781  0.2691  0.7904
  572MOL    O1146833   4.307   2.614   2.664  0.2746 -0.3009 -0.1228
  572MOL    H1246834   4.389   2.435   2.631 -0.5883  1.3486 -2.2237
  572MOL    H1346835   4.500   2.573   2.598 -0.3256 -1.5863 -1.0361
  572MOL    C1446836   4.256   2.640   2.536  0.5357 -0.0350  0.0571
  572MOL    O1546837   4.209   2.521   2.476  0.1017  0.3432  0.0732
  572MOL    H1646838   4.334   2.680   2.471  0.6656 -0.7473 -0.2252
  572MOL    H1746839   4.180   2.717   2.550  1.8092  0.9496  1.9419
  572MOL    C1846840   4.097   2.475   2.537 -0.0105  0.4297  0.1113
  572MOL    O1946841   3.987   2.558   2.528 -0.1844 -0.4818 -1.1604
  572MOL    H2046842   4.115   2.467   2.645  0.3007  0.8027  0.0905
  572MOL    H2146843   4.074   2.374   2.504  0.6048  0.6636 -1.0578
  572MOL    C2246844   3.943   2.567   2.392 -0.3983  0.2197 -0.8229
  572MOL    O2346845   3.814   2.607   2.391  0.3947  0.2932 -0.1498
  572MOL    H2446846   3.952   2.476   2.334  0.5630 -0.3260  0.1588
  572MOL    H2546847   3.995   2.655   2.353 -0.4955  0.1655 -1.0725
  572MOL    C2646848   3.720   2.506   2.433 -0.2329  0.2291  0.9123
  572MOL    O2746849   3.729   2.404   2.331  0.1613  0.3215 -0.1659
  572MOL    H2846850   3.620   2.546   2.421 -0.3030 -0.6649 -1.9985
  572MOL    H2946851   3.738   2.474   2.536  3.1706  1.1216  0.6779
  572MOL    C3046852   3.669   2.287   2.379  0.1590 -0.5436  0.7168
  572MOL    O3146853   3.534   2.289   2.409  0.7348  0.1419  0.6345
  572MOL    H3246854   3.724   2.242   2.462  1.9053 -1.7467 -1.0571
  572MOL    H3346855   3.681   2.215   2.299  2.6522  0.0876  0.4541
  572MOL    C3446856   3.456   2.320   2.296 -0.4114 -0.2836 -0.1475
  572MOL    O3546857   3.414   2.203   2.220  0.8517  0.0504  0.5047
  572MOL    H3646858   3.505   2.385   2.223 -0.1228  0.8536  1.0524
  572MOL    H3746859   3.374   2.383   2.331  0.3800 -0.7389  2.6588
  572MOL    C3846860   3.330   2.122   2.301  0.4185 -0.9057 -0.0143
  572MOL    O3946861   3.296   2.004   2.242  0.3809 -0.4329 -0.3229
  572MOL    H4046862   3.236   2.176   2.315  0.6142 -0.6887  0.4596
  572MOL    H4146863   3.386   2.092   2.389  1.0956 -1.0816 -0.5021
  572MOL    C4246864   3.202   2.014   2.138  0.1667  0.6237 -0.0265
  572MOL    O4346865   3.176   1.889   2.076 -0.5262  0.3646  0.1060
  572MOL    H4446866   3.251   2.062   2.053  2.0003 -0.2795  0.5056
  572MOL    H4546867   3.109   2.069   2.154  0.9588  2.1769 -0.6493
  572MOL    C4646868   3.103   1.802   2.156 -0.8655 -0.2814 -0.3736
  572MOL    O4746869   3.190   1.725   2.242 -0.1099  0.0840 -0.3760
  572MOL    H4846870   3.045   1.736   2.092 -2.0507  0.0948  0.3027
  572MOL    H4946871   3.046   1.849   2.237 -0.6421 -0.6566  0.0090
  572MOL    C5046872   3.281   1.646   2.179 -0.0201 -0.0877  0.5185
  572MOL    O5146873   3.225   1.553   2.092 -0.1872 -0.1073  0.1011
  572MOL    H5246874   3.359   1.611   2.247  0.7875  1.4974  0.4295
  572MOL    H5346875   3.342   1.718   2.124  2.0197 -0.0068  2.7826
  572MOL    C5446876   3.322   1.473   2.037  0.1582 -0.4624 -0.6942
  572MOL    O5546877   3.395   1.538   1.940 -0.0644  0.2522 -0.1352
  572MOL    H5646878   3.271   1.387   1.994 -1.5791 -1.0780  2.4328
  572MOL    H5746879   3.383   1.429   2.115  1.2845  0.2404 -1.1653
  572MOL    C5846880   3.325   1.569   1.819  0.4173  0.8789 -0.3612
  572MOL    O5946881   3.292   1.450   1.754 -0.3124 -0.8276 -0.4117
  572MOL    H6046882   3.380   1.639   1.756  0.3959  2.0200  0.8415
  572MOL    H6146883   3.228   1.619   1.828 -1.0110 -1.8613 -0.1609
  572MOL    C6246884   3.410   1.388   1.705  0.7131  0.3382  0.3955
  572MOL    O6346885   3.390   1.265   1.644  0.4430  0.0484 -0.2149
  572MOL    H6446886   3.488   1.381   1.781 -0.0062  0.1487  1.1255
  572MOL    H6546887   3.450   1.445   1.621  0.8966  0.0073  0.2597
  572MOL    C6646888   3.364   1.165   1.740 -0.1297 -0.7845  0.3016
  572MOL    O6746889   3.483   1.108   1.791  0.2592 -0.0153 -0.7976
  572MOL    H6846890   3.315   1.085   1.685 -0.3192  0.2398 -1.0223
  572MOL    H6946891   3.299   1.204   1.818 -0.6118  2.0214 -1.4335
  572MOL    C7046892   3.566   1.060   1.699 -0.0305  0.5577  0.0572
  572MOL    O7146893   3.523   0.932   1.650  0.0141  0.5231 -0.0219
  572MOL    H7246894   3.668   1.053   1.737  0.3936 -1.3029 -1.3268
  572MOL    H7346895   3.569   1.125   1.611 -1.1412  1.1022  0.4141
  572MOL    C7446896   3.533   0.833   1.747  0.4921 -0.9908  0.5330
  572MOL    O7546897   3.669   0.797   1.759  0.2311 -0.0044 -0.7140
  572MOL    H7646898   3.477   0.743   1.722  0.1821 -0.2278 -1.6403
  572MOL    H7746899   3.490   0.862   1.843  1.1217 -0.5651  0.6872
  572MOL    C7846900   3.703   0.722   1.648  0.2531  0.3167 -0.4888
  572MOL    O7946901   3.845   0.730   1.634 -0.0734 -0.4853 -0.6417
  572MOL    H8046902   3.656   0.757   1.556 -1.2475 -3.2777 -1.2109
  572MOL    H8146903   3.683   0.617   1.671 -2.6623  0.8038 -0.6113
  572MOL    H8246904   3.883   0.656   1.678  1.4245  1.1432  0.8723
  573MOL     C146905   6.448   0.820   2.438 -0.8163 -0.0251 -0.2144
  573MOL     O246906   6.390   0.928   2.502 -0.4638  0.1649 -0.0539
  573MOL     H346907   6.460   0.731   2.501 -0.4386 -0.1814 -0.5037
  573MOL     H446908   6.378   0.785   2.362 -1.2647 -1.5776  0.8760
  573MOL     H546909   6.540   0.852   2.390 -0.4779 -1.9501 -0.8903
  573MOL     C646910   6.472   0.984   2.600  0.4387 -0.4528  0.3556
  573MOL     O746911   6.453   0.924   2.719  0.7030  0.1159  0.1871
  573MOL     H846912   6.456   1.090   2.617 -2.0278 -0.4740 -1.5139
  573MOL     H946913   6.578   0.971   2.580  1.0484  0.9470  2.4732
  573MOL    C1046914   6.330   0.969   2.779 -0.6175 -0.1039  0.4721
  573MOL    O1146915   6.332   0.955   2.921 -0.4251  0.5097  0.1872
  573MOL    H1246916   6.251   0.907   2.737  1.3301 -2.0413 -0.4557
  573MOL    H1346917   6.308   1.073   2.754 -1.4093 -0.2840  0.4215
  573MOL    C1446918   6.415   1.044   2.980  0.4462  0.3844  0.1825
  573MOL    O1546919   6.360   1.172   2.986 -0.2690  0.4382 -0.1018
  573MOL    H1646920   6.511   1.059   2.931  0.6731 -2.8884 -0.4885
  573MOL    H1746921   6.427   1.003   3.081  2.0872  0.0051 -0.1468
  573MOL    C1846922   6.444   1.264   3.042 -0.0832  0.0894 -1.0197
  573MOL    O1946923   6.519   1.327   2.948  0.4538 -0.4611  0.7742
  573MOL    H2046924   6.508   1.229   3.123 -0.4492  1.1789 -0.2519
  573MOL    H2146925   6.385   1.342   3.091 -1.4310 -1.1107 -0.6929
  573MOL    C2246926   6.444   1.381   2.846  0.6570 -0.4069 -0.2974
  573MOL    O2346927   6.440   1.306   2.732 -0.0701  0.0841 -0.0564
  573MOL    H2446928   6.489   1.474   2.812  3.5485 -1.7277 -0.1957
  573MOL    H2546929   6.341   1.401   2.876  0.4358  0.0125 -1.3221
  573MOL    C2646930   6.357   1.358   2.632  0.5735 -0.3473 -0.0435
  573MOL    O2746931   6.226   1.355   2.676  0.3658  0.2938  0.1309
  573MOL    H2846932   6.365   1.277   2.560  0.2617 -0.9383  0.5861
  573MOL    H2946933   6.385   1.456   2.593 -1.4944  0.9576  1.6845
  573MOL    C3046934   6.142   1.359   2.565 -0.7782  0.1891 -0.5583
  573MOL    O3146935   6.123   1.236   2.507  0.3570 -0.2964  0.4866
  573MOL    H3246936   6.178   1.427   2.487 -2.0955  2.4427  0.7669
  573MOL    H3346937   6.041   1.397   2.582 -1.0255 -0.8535  0.2811
  573MOL    C3446938   6.038   1.152   2.582  0.2164 -0.0737 -0.0783
  573MOL    O3546939   5.902   1.192   2.595  0.1027  0.9171  0.6502
  573MOL    H3646940   6.088   1.143   2.679  0.0060 -4.0507 -0.2506
  573MOL    H3746941   6.045   1.047   2.553 -1.0416 -0.4382  0.8693
  573MOL    C3846942   5.837   1.203   2.471  0.3172 -0.2137 -0.3679
  573MOL    O3946943   5.783   1.076   2.433 -0.2328  0.0293  1.2339
  573MOL    H4046944   5.903   1.225   2.387 -0.1563 -0.3198 -0.7653
  573MOL    H4146945   5.750   1.268   2.483 -1.4677 -2.4309 -0.9993
  573MOL    C4246946   5.665   1.045   2.499  0.3815 -1.2065 -0.3123
  573MOL    O4346947   5.545   1.105   2.446 -0.3882 -0.4843 -0.1702
  573MOL    H4446948   5.674   1.071   2.604 -2.4238 -1.2774 -0.0317
  573MOL    H4546949   5.658   0.936   2.500 -2.3756 -1.0441  0.2077
  573MOL    C4646950   5.515   1.063   2.325  0.5937 -0.2969 -0.6947
  573MOL    O4746951   5.570   1.139   2.222 -0.0356 -0.1597 -0.4629
  573MOL    H4846952   5.408   1.082   2.326  0.9171  1.5521  0.0256
  573MOL    H4946953   5.543   0.960   2.304  1.3563 -0.3917  0.7336
  573MOL    C5046954   5.528   1.277   2.229  0.0258 -0.5914  0.2631
  573MOL    O5146955   5.548   1.328   2.097  0.0316  0.4865 -0.3380
  573MOL    H5246956   5.593   1.337   2.293 -0.4332  0.7153 -0.4790
  573MOL    H5346957   5.424   1.290   2.259 -0.3648  2.6504 -2.1753
  573MOL    C5446958   5.440   1.299   2.017 -0.2475  0.3162 -0.0076
  573MOL    O5546959   5.332   1.384   2.051  0.2916 -0.1111 -0.5088
  573MOL    H5646960   5.416   1.194   2.032  0.9799 -0.0194 -0.3000
  573MOL    H5746961   5.468   1.300   1.912 -0.1981  2.2503 -0.0015
  573MOL    C5846962   5.206   1.332   2.060  0.4101  0.0608 -0.6371
  573MOL    O5946963   5.189   1.241   2.161 -0.4569 -0.4112 -0.8139
  573MOL    H6046964   5.184   1.272   1.971 -2.3930 -1.0439  0.7560
  573MOL    H6146965   5.117   1.395   2.064  0.2157 -0.1968 -0.8098
  573MOL    C6246966   5.175   1.314   2.283 -0.1163  0.1747  0.2599
  573MOL    O6346967   5.043   1.359   2.301 -0.1173  0.1510  0.6106
  573MOL    H6446968   5.227   1.410   2.285  0.2065 -0.0099  1.1274
  573MOL    H6546969   5.209   1.246   2.361  0.2286 -0.3898 -0.3782
  573MOL    C6646970   4.968   1.261   2.365 -0.0718 -0.5183 -0.2516
  573MOL    O6746971   4.978   1.259   2.503 -0.3243  0.6814  0.3179
  573MOL    H6846972   4.996   1.161   2.333  1.2723 -0.4720  0.6939
  573MOL    H6946973   4.866   1.284   2.335 -0.6038 -1.6806  0.6612
  573MOL    C7046974   4.892   1.347   2.564 -0.2496  0.6478 -0.6222
  573MOL    O7146975   4.759   1.317   2.538  0.3182 -0.0687  0.3155
  573MOL    H7246976   4.910   1.447   2.525  0.7540  0.1920 -1.3599
  573MOL    H7346977   4.919   1.356   2.669  0.6537 -1.1832 -0.6660
  573MOL    C7446978   4.669   1.413   2.575 -0.0418  0.4810 -0.6214
  573MOL    O7546979   4.531   1.380   2.551  0.4708  0.2642 -0.1207
  573MOL    H7646980   4.688   1.502   2.515  1.6855  0.1349 -0.5975
  573MOL    H7746981   4.686   1.443   2.679  1.9631 -0.2835 -0.7190
  573MOL    C7846982   4.494   1.266   2.613 -0.9022  0.4339  0.0449
  573MOL    O7946983   4.366   1.225   2.583  0.1702 -0.4500  0.1727
  573MOL    H8046984   4.511   1.276   2.720  0.7423 -0.3782 -0.1272
  573MOL    H8146985   4.556   1.182   2.583 -0.6574 -0.3040  2.4729
  573MOL    H8246986   4.308   1.297   2.606  0.8245  0.2158 -0.2740
  574MOL     C146987   5.616   1.406   3.648  0.4005  0.1182  0.1088
  574MOL     O246988   5.543   1.441   3.530  0.0150 -0.0637  0.2101
  574MOL     H346989   5.724   1.419   3.642  0.6319 -1.5499  0.2436
  574MOL     H446990   5.593   1.458   3.741  1.6166 -0.5394  0.7843
  574MOL     H546991   5.613   1.298   3.665 -1.7161  0.0515 -0.5594
  574MOL     C646992   5.565   1.570   3.491 -0.0626 -0.7598  0.4320
  574MOL     O746993   5.698   1.604   3.468 -0.1264  0.0640 -0.2468
  574MOL     H846994   5.528   1.644   3.561  2.2418  0.2318  0.6606
  574MOL     H946995   5.524   1.590   3.392  0.6516 -0.6135  0.1600
  574MOL    C1046996   5.761   1.528   3.374 -0.1444 -0.0889 -0.6056
  574MOL    O1146997   5.842   1.602   3.296 -0.0742 -0.3494  0.2537
  574MOL    H1246998   5.682   1.475   3.320 -0.4423 -1.7671  1.4088
  574MOL    H1346999   5.816   1.443   3.415  2.2807  1.9610  0.4663
  574MOL    C1447000   5.955   1.656   3.357 -0.1521  0.0727  0.0330
  574MOL    O1547001   6.067   1.637   3.278 -0.2269 -0.2721 -0.0115
  574MOL    H1647002   5.976   1.628   3.460  0.4025 -1.2900 -0.4427
  574MOL    H1747003   5.931   1.761   3.371  0.2078  0.2802 -0.8313
  574MOL    C1847004   6.106   1.498   3.268 -0.6431 -0.5670 -0.3320
  574MOL    O1947005   6.164   1.453   3.381  0.5183  0.1756 -0.0049
  574MOL    H2047006   6.180   1.498   3.188  1.5817  1.9368  1.6221
  574MOL    H2147007   6.022   1.435   3.239 -0.6479 -0.0317 -1.5404
  574MOL    C2247008   6.300   1.482   3.383  0.2332  0.2317  0.0062
  574MOL    O2347009   6.367   1.420   3.492 -0.1692 -0.3273 -0.0724
  574MOL    H2447010   6.297   1.589   3.400 -0.6655 -0.0292  1.6172
  574MOL    H2547011   6.350   1.441   3.295  0.4756 -1.7302  1.0240
  574MOL    C2647012   6.372   1.282   3.474 -0.0402 -0.2050 -0.2302
  574MOL    O2747013   6.466   1.235   3.381  0.1248 -0.3944  0.3967
  574MOL    H2847014   6.276   1.240   3.443 -1.6355  2.5955  0.7627
  574MOL    H2947015   6.380   1.235   3.572 -1.5280  0.0569  0.0379
  574MOL    C3047016   6.598   1.284   3.403  0.6789 -0.5534 -0.5722
  574MOL    O3147017   6.681   1.256   3.295  0.0326  0.0720 -0.3858
  574MOL    H3247018   6.647   1.247   3.493 -0.2242  1.1661  0.6259
  574MOL    H3347019   6.593   1.391   3.422 -1.6885 -0.4274 -1.6577
  574MOL    C3447020   6.708   1.122   3.288  0.6086 -0.1063 -0.7762
  574MOL    O3547021   6.814   1.099   3.208 -0.3773 -0.8823 -0.0418
  574MOL    H3647022   6.618   1.065   3.263  1.0744 -0.5218 -1.5323
  574MOL    H3747023   6.742   1.088   3.386  0.4740 -0.0723 -0.7176
  574MOL    C3847024   6.798   1.128   3.074  0.2181  0.4033 -0.0123
  574MOL    O3947025   6.730   1.031   3.002 -0.4889 -0.4639 -0.7719
  574MOL    H4047026   6.893   1.152   3.025  0.1767 -1.6862 -1.1752
  574MOL    H4147027   6.747   1.223   3.059 -1.6531 -0.7788 -1.3223
  574MOL    C4247028   6.800   0.909   3.006 -0.1428  0.4087  0.4335
  574MOL    O4347029   6.923   0.921   2.945 -0.4070  0.3404  0.3450
  574MOL    H4447030   6.739   0.827   2.968 -0.8928 -0.4513  3.3087
  574MOL    H4547031   6.820   0.890   3.112  1.3029 -0.3797  0.0270
  574MOL    C4647032   7.004   0.819   2.987  0.0707 -0.3289 -0.0222
  574MOL    O4747033   7.116   0.814   2.903  0.4395 -0.1927  0.5838
  574MOL    H4847034   6.944   0.729   2.982  0.5049 -0.5977 -0.4242
  574MOL    H4947035   7.045   0.846   3.085 -0.7949 -1.5965  0.6918
  574MOL    C5047036   7.207   0.713   2.936 -0.0646  0.7278  0.3316
  574MOL    O5147037   7.149   0.584   2.918 -0.0091 -0.6548 -0.0517
  574MOL    H5247038   7.254   0.729   3.034 -0.5954 -0.9732  0.8873
  574MOL    H5347039   7.292   0.726   2.870 -0.4765 -0.7214 -0.5103
  574MOL    C5447040   7.136   0.555   2.783 -0.6103 -0.0210  0.4615
  574MOL    O5547041   7.258   0.504   2.736 -0.4181 -0.6710 -0.4351
  574MOL    H5647042   7.089   0.633   2.723 -2.7163 -1.7060 -0.1250
  574MOL    H5747043   7.067   0.473   2.766 -0.5798  0.3736 -1.7359
  574MOL    C5847044   7.288   0.381   2.787 -0.0668  0.2833  0.4468
  574MOL    O5947045   7.211   0.287   2.728  0.3137  0.1517 -0.0684
  574MOL    H6047046   7.283   0.375   2.896  0.6214 -3.0322  0.3307
  574MOL    H6147047   7.390   0.354   2.761 -0.1355 -0.5582  1.0446
  574MOL    C6247048   7.264   0.239   2.607 -0.1663 -0.3572 -0.0950
  574MOL    O6347049   7.372   0.142   2.633  0.4496 -0.2798  0.2787
  574MOL    H6447050   7.284   0.320   2.537 -1.7539  2.8689  3.0130
  574MOL    H6547051   7.187   0.178   2.560 -1.8316  1.7002 -0.1025
  574MOL    C6647052   7.323   0.023   2.677 -0.6463 -0.1974 -0.1483
  574MOL    O6747053   7.325   7.709   2.574 -0.2232  0.0063  0.0890
  574MOL    H6847054   7.235   0.024   2.742 -1.5264 -2.7889 -1.2395
  574MOL    H6947055   7.400   7.782   2.750  0.4048  1.6444 -0.6207
  574MOL    C7047056   7.243   7.598   2.605 -0.1996  0.1605  0.1443
  574MOL    O7147057   7.284   7.532   2.712 -0.1209 -0.2963  0.9136
  574MOL    H7247058   7.222   7.532   2.520  1.1037 -0.8699  0.5985
  574MOL    H7347059   7.146   7.646   2.611  0.4589  1.5458 -0.0038
  574MOL    C7447060   7.403   7.463   2.676  0.9740  0.0338  0.2730
  574MOL    O7547061   7.454   7.377   2.768 -0.2003  0.1888  0.3045
  574MOL    H7647062   7.486   7.530   2.655 -0.6963  2.1085  0.1122
  574MOL    H7747063   7.399   7.416   2.578 -1.9818  0.3442  0.2003
  574MOL    C7847064   7.510   7.440   2.887  0.1442  0.1145 -0.1633
  574MOL    O7947065   7.561   7.344   2.975 -0.0328 -0.7952 -0.3074
  574MOL    H8047066   7.432   7.484   2.949  1.2907  0.2314  1.2317
  574MOL    H8147067   7.586   7.515   2.865  0.8085  0.0629  1.8088
  574MOL    H8247068   7.646   7.321   2.940  0.5762  0.3778  0.3544
  575MOL     C147069   4.457   3.582   7.537 -0.2463  0.0876  1.5203
  575MOL     O247070   4.353   3.515   7.599  0.4189  0.2480 -0.6424
  575MOL     H347071   4.450   3.561   7.430  1.2002 -1.9204  1.7812
  575MOL     H447072   4.452   3.690   7.553  0.0954  0.1186  1.4360
  575MOL     H547073   4.556   3.555   7.575 -1.2322 -2.9212  2.0568
  575MOL     C647074   4.343   3.545   7.724  0.3180  0.6230 -0.4948
  575MOL     O747075   4.252   3.461   0.008  0.1577 -0.0529 -0.6118
  575MOL     H847076   4.300   3.644   7.742  0.8291  0.5482  1.1483
  575MOL     H947077   4.436   3.545   7.780 -0.3151  0.2424  0.5647
  575MOL    C1047078   4.302   3.334   0.030  0.2482 -0.5689 -0.3175
  575MOL    O1147079   4.391   3.333   0.138  0.3782 -0.2111 -0.1624
  575MOL    H1247080   4.332   3.280   7.724  2.1203  0.9212 -0.6206
  575MOL    H1347081   4.219   3.272   0.063 -1.1707  1.9804  1.0534
  575MOL    C1447082   4.396   3.220   0.205 -0.2464  0.2949  0.2362
  575MOL    O1547083   4.442   3.131   0.110  0.4444  0.3352 -0.1337
  575MOL    H1647084   4.308   3.177   0.253  1.2019 -0.4912  2.2557
  575MOL    H1747085   4.470   3.234   0.283  0.9260 -1.2456 -0.5785
  575MOL    C1847086   4.456   2.998   0.153  0.5630 -0.0851 -0.1334
  575MOL    O1947087   4.329   2.932   0.175  0.2899 -0.1034 -0.1451
  575MOL    H2047088   4.508   2.984   0.247  0.7700  1.5309  0.0069
  575MOL    H2147089   4.517   2.945   0.079  0.0656  2.1467 -2.2193
  575MOL    C2247090   4.248   2.932   0.058  0.2410 -0.3413 -0.2832
  575MOL    O2347091   4.131   2.851   0.067  0.0861 -0.2512  0.2512
  575MOL    H2447092   4.309   2.891   7.761 -0.5338 -1.9059 -0.0776
  575MOL    H2547093   4.224   3.037   0.040  0.3106 -0.3156 -0.2256
  575MOL    C2647094   4.023   2.911   0.130 -0.3115 -0.2079  0.8772
  575MOL    O2747095   3.959   3.010   0.049  0.6124 -0.7652 -0.1168
  575MOL    H2847096   4.053   2.965   0.220 -1.0366  0.0947  0.9380
  575MOL    H2947097   3.951   2.835   0.159  0.1836 -0.6387  0.9828
  575MOL    C3047098   3.954   2.971   7.693 -0.4905  0.1740 -0.3452
  575MOL    O3147099   4.066   3.009   7.620  0.3653  0.0814 -0.5783
  575MOL    H3247100   3.870   3.014   7.639  0.5553 -0.1193 -2.2633
  575MOL    H3347101   3.943   2.863   7.684  1.2401 -0.0595  0.0119
  575MOL    C3447102   4.074   3.150   7.607  0.8600 -0.3973 -0.2573
  575MOL    O3547103   4.189   3.185   7.543  0.7061  0.0104  0.1373
  575MOL    H3647104   4.076   3.205   7.701  1.9665  1.0901 -1.1324
  575MOL    H3747105   3.993   3.181   7.541  0.1709  0.1780  0.8508
  575MOL    C3847106   4.200   3.161   7.407 -0.0006 -0.0303  0.6648
  575MOL    O3947107   4.168   3.274   7.333 -0.6754 -0.2483  0.6919
  575MOL    H4047108   4.132   3.081   7.379  0.9880 -0.2792 -1.1387
  575MOL    H4147109   4.294   3.110   7.382  0.2607  1.4860 -1.5744
  575MOL    C4247110   4.271   3.361   7.313 -0.0769  0.2423 -0.2816
  575MOL    O4347111   4.233   3.482   7.270  1.0158 -0.1720  0.3868
  575MOL    H4447112   4.344   3.312   7.249  1.1739 -0.8071  1.8975
  575MOL    H4547113   4.325   3.376   7.407 -4.8897 -0.7923  2.8265
  575MOL    C4647114   4.138   3.538   7.362 -0.1494  0.5911 -0.0866
  575MOL    O4747115   4.083   3.645   7.298 -0.2533 -0.2600  0.2853
  575MOL    H4847116   4.182   3.569   7.456  0.9968  3.1618 -1.4165
  575MOL    H4947117   4.057   3.466   7.376 -0.6502  1.5713  2.2774
  575MOL    C5047118   4.167   3.754   7.270  0.3888  0.4512 -0.6030
  575MOL    O5147119   4.101   3.868   7.308  0.5974 -0.8724  0.1917
  575MOL    H5247120   4.199   3.763   7.167  1.1032  0.2494 -0.4033
  575MOL    H5347121   4.255   3.749   7.335 -0.1639 -0.2009  0.1101
  575MOL    C5447122   4.001   3.904   7.218  0.1613 -0.4445 -0.3852
  575MOL    O5547123   3.924   4.007   7.266  0.7074  0.2155 -0.2696
  575MOL    H5647124   3.940   3.816   7.197 -1.2960  1.1141 -2.9132
  575MOL    H5747125   4.037   3.954   7.128 -1.9783  2.7225  0.4550
  575MOL    C5847126   3.864   3.980   7.388 -0.2284  0.1707  0.4095
  575MOL    O5947127   3.724   3.995   7.379 -0.4085 -0.1517  0.0181
  575MOL    H6047128   3.905   4.048   7.463 -2.8022  1.1626  0.9582
  575MOL    H6147129   3.885   3.881   7.428  0.1969  0.4302  0.8393
  575MOL    C6247130   3.665   3.900   7.299 -0.6742  0.1133 -0.1960
  575MOL    O6347131   3.634   3.789   7.368  0.3210  0.3350  0.7663
  575MOL    H6447132   3.721   3.887   7.206  0.2686  1.1964  0.2001
  575MOL    H6547133   3.580   3.956   7.262 -1.0023 -0.1295  0.1802
  575MOL    C6647134   3.503   3.788   7.425 -0.3529 -0.0485  0.5325
  575MOL    O6747135   3.405   3.794   7.322 -0.3487 -0.4788 -0.0954
  575MOL    H6847136   3.493   3.879   7.484  0.9808 -0.0853  0.8191
  575MOL    H6947137   3.478   3.704   7.489  0.1921 -1.2920 -0.8645
  575MOL    C7047138   3.380   3.673   7.257  0.4685 -0.0637  0.2466
  575MOL    O7147139   3.319   3.582   7.347  0.0214 -0.0434 -0.0999
  575MOL    H7247140   3.465   3.631   7.203  0.2892 -2.6891  1.9342
  575MOL    H7347141   3.317   3.706   7.174  1.4071  1.7417  0.2472
  575MOL    C7447142   3.185   3.626   7.379 -0.1709 -0.3088  0.4239
  575MOL    O7547143   3.098   3.536   7.319  0.4926  0.0571 -0.1888
  575MOL    H7647144   3.153   3.724   7.344  1.5434 -0.1053 -0.6447
  575MOL    H7747145   3.178   3.624   7.488  0.8948  0.4529  0.5134
  575MOL    C7847146   3.068   3.425   7.397  0.3393  0.2019  0.0003
  575MOL    O7947147   3.009   3.321   7.318  0.1540 -0.0399  0.2653
  575MOL    H8047148   3.001   3.454   7.478  0.1639 -1.2297  0.3808
  575MOL    H8147149   3.163   3.391   7.439  0.1664 -1.3990 -0.8441
  575MOL    H8247150   3.078   3.264   7.288 -0.5436  0.3147 -2.0955
  576MOL     C147151   3.436   2.516   1.856 -0.3067  0.1454 -0.3047
  576MOL     O247152   3.461   2.432   1.969  0.5422 -0.0752 -0.2058
  576MOL     H347153   3.528   2.531   1.800  0.1233  0.7115  0.5408
  576MOL     H447154   3.372   2.470   1.781 -2.4133  1.8355  0.3929
  576MOL     H547155   3.384   2.603   1.896 -1.8868 -2.1065  2.8010
  576MOL     C647156   3.514   2.312   1.923  0.3579  0.8017 -1.4219
  576MOL     O747157   3.637   2.330   1.858 -0.1755 -0.3353  0.0001
  576MOL     H847158   3.444   2.269   1.852  1.6932 -2.2273 -0.9693
  576MOL     H947159   3.520   2.236   2.000  1.8171  1.8246 -0.4938
  576MOL    C1047160   3.746   2.364   1.944 -0.2662 -0.4426  0.8987
  576MOL    O1147161   3.798   2.255   2.018  1.2267  0.3324  0.7099
  576MOL    H1247162   3.707   2.443   2.008  2.1530  3.2600 -2.0023
  576MOL    H1347163   3.818   2.414   1.880 -0.9788  0.5806  0.8957
  576MOL    C1447164   3.845   2.149   1.943 -0.8229 -0.3451  0.1288
  576MOL    O1547165   3.975   2.173   1.908 -0.2852 -0.1077  0.2858
  576MOL    H1647166   3.781   2.130   1.857 -0.0965 -0.0980 -0.4678
  576MOL    H1747167   3.833   2.061   2.005  3.9435 -1.6847 -0.6585
  576MOL    C1847168   4.040   2.056   1.866  0.1823 -0.1161  0.2044
  576MOL    O1947169   4.093   1.974   1.968 -0.3550  0.7699  0.2389
  576MOL    H2047170   4.126   2.090   1.808  0.8595 -2.9792 -0.5243
  576MOL    H2147171   3.966   2.015   1.798  0.3320 -1.9695  1.1323
  576MOL    C2247172   4.175   2.037   2.061 -0.0821 -0.3834  0.4518
  576MOL    O2347173   4.286   2.082   1.985 -0.6719 -0.5983 -0.3713
  576MOL    H2447174   4.198   1.956   2.130 -0.7822 -0.4337  0.6298
  576MOL    H2547175   4.118   2.114   2.113 -1.1864 -1.5368  0.9614
  576MOL    C2647176   4.406   2.088   2.056 -0.4822  0.7473  0.1722
  576MOL    O2747177   4.440   1.954   2.084 -0.6295  0.5389 -0.1228
  576MOL    H2847178   4.383   2.148   2.143  0.8980  0.8882  0.4404
  576MOL    H2947179   4.476   2.140   1.990  1.3171  0.6654  1.9931
  576MOL    C3047180   4.575   1.917   2.042  0.4197  0.1297 -0.5199
  576MOL    O3147181   4.580   1.901   1.905  0.4864  0.1782 -0.6791
  576MOL    H3247182   4.610   1.828   2.094 -1.2570 -0.6798 -0.7406
  576MOL    H3347183   4.636   1.998   2.081 -0.5069  0.2951  0.6198
  576MOL    C3447184   4.512   1.787   1.860  0.2928 -0.0195  0.6018
  576MOL    O3547185   4.550   1.769   1.724 -0.1381 -0.0996  0.8361
  576MOL    H3647186   4.407   1.816   1.864  1.2124  3.7011  0.1003
  576MOL    H3747187   4.531   1.703   1.925 -0.1975  0.1751  1.0035
  576MOL    C3847188   4.686   1.743   1.699 -0.0290  0.0560  0.5320
  576MOL    O3947189   4.721   1.607   1.726 -0.5295  0.8077 -0.2543
  576MOL    H4047190   4.748   1.814   1.753 -0.4124  2.1779 -1.7232
  576MOL    H4147191   4.699   1.774   1.595  1.4203 -0.1589  0.6456
  576MOL    C4247192   4.699   1.528   1.615  0.5656  0.4474  0.5474
  576MOL    O4347193   4.789   1.537   1.521  0.3371 -0.4256  0.5619
  576MOL    H4447194   4.602   1.554   1.571  1.0972 -0.3645 -1.1613
  576MOL    H4547195   4.698   1.428   1.657  2.1032 -0.2751 -1.0716
  576MOL    C4647196   4.917   1.467   1.553 -0.0786 -1.2434 -0.5785
  576MOL    O4747197   4.903   1.330   1.563  0.1719 -0.5135 -0.3788
  576MOL    H4847198   4.957   1.511   1.645 -0.9133  1.2885 -1.3787
  576MOL    H4947199   5.000   1.484   1.485  1.3599 -0.4439  1.3323
  576MOL    C5047200   4.891   1.260   1.439  0.3906 -0.0696  0.4362
  576MOL    O5147201   5.011   1.219   1.386 -0.3728  0.5111 -0.5854
  576MOL    H5247202   4.842   1.324   1.365  1.8831  1.5073  0.8004
  576MOL    H5347203   4.820   1.180   1.460  1.9473 -1.4145  0.6152
  576MOL    C5447204   5.053   1.102   1.445 -0.3456  0.4688 -0.1334
  576MOL    O5547205   4.986   0.984   1.397 -0.3528 -0.5617  0.0814
  576MOL    H5647206   5.041   1.125   1.551 -3.1127 -1.3773  0.0087
  576MOL    H5747207   5.160   1.093   1.428 -0.0587  0.5904  1.5183
  576MOL    C5847208   4.989   0.878   1.493  0.0528  0.1796  0.6976
  576MOL    O5947209   4.957   0.909   1.624 -0.0730 -0.0973 -0.5300
  576MOL    H6047210   5.093   0.847   1.495  0.9689  2.7572 -2.4703
  576MOL    H6147211   4.924   0.793   1.473 -0.9242  1.0027  0.3109
  576MOL    C6247212   4.820   0.912   1.657  0.0572  0.1618 -0.1708
  576MOL    O6347213   4.761   0.790   1.671  0.0853 -0.7311  0.3086
  576MOL    H6447214   4.759   0.975   1.592 -2.3954  0.2757  2.1568
  576MOL    H6547215   4.813   0.963   1.753 -2.4024  0.6150 -0.5595
  576MOL    C6647216   4.826   0.704   1.751  0.3124  0.3910 -0.4578
  576MOL    O6747217   4.767   0.576   1.734 -0.4538 -0.0405  0.0040
  576MOL    H6847218   4.819   0.734   1.856 -1.3814 -0.3079 -0.3498
  576MOL    H6947219   4.930   0.695   1.720  0.0749 -0.6630 -0.9827
  576MOL    C7047220   4.637   0.571   1.782  0.8075 -0.3423 -0.0833
  576MOL    O7147221   4.634   0.566   1.922  0.2594  0.2286 -0.0700
  576MOL    H7247222   4.575   0.488   1.748 -0.9781  0.0747  2.0309
  576MOL    H7347223   4.581   0.656   1.743 -1.3270 -1.6048  0.1179
  576MOL    C7447224   4.653   0.439   1.978  0.3596 -0.1468  0.0145
  576MOL    O7547225   4.613   0.433   2.113 -0.0639 -1.0011  0.1334
  576MOL    H7647226   4.753   0.397   1.964  1.2536  2.3089 -1.1927
  576MOL    H7747227   4.574   0.376   1.938  1.2254 -1.6207  0.5725
  576MOL    C7847228   4.710   0.479   2.205  0.1024  0.3859 -0.2977
  576MOL    O7947229   4.652   0.508   2.331 -0.0341 -0.6046  0.1156
  576MOL    H8047230   4.757   0.569   2.166 -2.6500  1.5316 -1.0766
  576MOL    H8147231   4.785   0.401   2.218  0.2164  0.4630 -0.4941
  576MOL    H8247232   4.577   0.561   2.313 -0.3112 -1.9011 -2.8081
  577MOL     C147233   3.504   4.422   2.847 -0.5879 -0.5101 -0.6530
  577MOL     O247234   3.630   4.365   2.814  0.3506 -0.0419 -0.3726
  577MOL     H347235   3.451   4.436   2.753 -0.2060 -0.9458 -0.9393
  577MOL     H447236   3.459   4.341   2.904  1.5536 -0.0556  1.7980
  577MOL     H547237   3.504   4.510   2.912 -1.3041 -1.1828  0.2681
  577MOL     C647238   3.724   4.353   2.920  0.1653 -1.1509  1.0927
  577MOL     O747239   3.699   4.252   3.008 -0.0490  0.4826  0.1509
  577MOL     H847240   3.722   4.451   2.967  0.0322 -0.1001 -1.0369
  577MOL     H947241   3.828   4.349   2.885 -0.5834 -0.4486 -1.3142
  577MOL    C1047242   3.701   4.119   2.964 -0.6913 -0.2200  0.1579
  577MOL    O1147243   3.829   4.069   2.945  0.4001  0.3300  0.0925
  577MOL    H1247244   3.645   4.099   2.872  1.1829 -2.0525 -0.6267
  577MOL    H1347245   3.654   4.062   3.044 -1.6781  0.6123  0.1801
  577MOL    C1447246   3.904   4.061   3.063  0.1060  0.5236  0.4566
  577MOL    O1547247   4.041   4.072   3.041 -0.1257 -0.2297 -0.2068
  577MOL    H1647248   3.887   3.965   3.111 -1.3855  1.1236  1.1708
  577MOL    H1747249   3.872   4.140   3.132  1.7009 -0.4037  2.2793
  577MOL    C1847250   4.080   4.198   2.991 -0.0544 -0.8894 -0.0703
  577MOL    O1947251   4.053   4.299   3.083 -0.3530  0.1482 -0.2793
  577MOL    H2047252   4.025   4.216   2.899 -1.7376 -0.6905  0.9393
  577MOL    H2147253   4.186   4.209   2.971 -0.5763  0.5956 -2.1602
  577MOL    C2247254   4.145   4.294   3.190  0.3356 -0.3347 -0.2073
  577MOL    O2347255   4.262   4.358   3.155  0.3589 -0.3419 -0.1946
  577MOL    H2447256   4.176   4.198   3.230  1.3387  0.1786  0.2604
  577MOL    H2547257   4.106   4.336   3.283 -0.8211 -0.7946 -0.4705
  577MOL    C2647258   4.258   4.486   3.129 -0.6958  0.7721  1.0757
  577MOL    O2747259   4.267   4.562   3.247  0.1738  0.5562  0.3847
  577MOL    H2847260   4.167   4.521   3.079 -0.7399  1.7587  1.8128
  577MOL    H2947261   4.348   4.509   3.071 -0.4645 -0.6894  0.8576
  577MOL    C3047262   4.390   4.577   3.314  0.7471  0.1439  0.1804
  577MOL    O3147263   4.467   4.674   3.246 -0.2288  0.1574 -0.3114
  577MOL    H3247264   4.439   4.479   3.318  0.7697  0.1258 -0.5059
  577MOL    H3347265   4.366   4.606   3.416 -0.0518  0.2477 -0.0339
  577MOL    C3447266   4.436   4.803   3.271  0.0132  0.2861 -0.0718
  577MOL    O3547267   4.437   4.836   3.412 -0.1075  0.0000 -0.0891
  577MOL    H3647268   4.344   4.824   3.217  0.4478  1.2624 -0.4440
  577MOL    H3747269   4.510   4.867   3.224  1.2992  0.1584  1.7099
  577MOL    C3847270   4.429   4.972   3.429 -0.7304 -0.7773  0.2237
  577MOL    O3947271   4.554   5.026   3.409  0.2310 -0.3621  0.3205
  577MOL    H4047272   4.397   4.987   3.532  0.2604  0.9978  0.2848
  577MOL    H4147273   4.361   5.016   3.356 -0.1994  0.1936  0.3058
  577MOL    C4247274   4.642   4.999   3.514 -0.1803  0.3523 -0.0391
  577MOL    O4347275   4.611   5.080   3.625 -0.0810  0.6900  0.5151
  577MOL    H4447276   4.744   5.024   3.486  0.6282  1.4594  3.6076
  577MOL    H4547277   4.647   4.891   3.532  3.8501  0.7542  1.7473
  577MOL    C4647278   4.636   5.216   3.598 -0.8389 -0.4472 -0.3414
  577MOL    O4747279   4.779   5.231   3.599 -0.0513 -0.2668  0.1649
  577MOL    H4847280   4.589   5.267   3.683 -2.2566  1.1566 -2.0476
  577MOL    H4947281   4.581   5.250   3.510 -1.3393  1.2929  0.6035
  577MOL    C5047282   4.838   5.200   3.720  0.4033  0.5674  0.1171
  577MOL    O5147283   4.785   5.283   3.820 -0.4132  0.3755 -0.2165
  577MOL    H5247284   4.946   5.202   3.703  0.7047 -0.2660  1.8454
  577MOL    H5347285   4.813   5.098   3.747  3.0146 -0.2662 -0.4135
  577MOL    C5447286   4.857   5.399   3.834 -0.3129  0.1325  0.5632
  577MOL    O5547287   4.818   5.466   3.950  0.2294 -0.4254  0.3421
  577MOL    H5647288   4.849   5.462   3.745  4.1658 -0.7785 -0.6122
  577MOL    H5747289   4.962   5.372   3.847 -0.6880 -1.2914  0.6768
  577MOL    C5847290   4.679   5.491   3.934  0.3341 -0.5214 -0.2992
  577MOL    O5947291   4.654   5.603   3.859 -0.2760 -0.2506 -0.2783
  577MOL    H6047292   4.641   5.514   4.033 -2.1037 -1.4579 -0.9635
  577MOL    H6147293   4.620   5.401   3.915 -0.6774 -0.8174  3.8803
  577MOL    C6247294   4.518   5.646   3.868  0.9187 -0.0635 -0.4880
  577MOL    O6347295   4.424   5.544   3.841  0.6199 -0.5538  0.2474
  577MOL    H6447296   4.508   5.737   3.809  3.0502 -0.2834 -1.2160
  577MOL    H6547297   4.508   5.668   3.974  0.0996 -1.7618 -0.1949
  577MOL    C6647298   4.418   5.518   3.707 -0.2268 -0.4167 -0.5314
  577MOL    O6747299   4.361   5.623   3.637 -0.3388 -0.6092 -0.7468
  577MOL    H6847300   4.356   5.428   3.697 -0.5466 -0.1152 -1.3065
  577MOL    H6947301   4.512   5.497   3.655 -1.5873 -2.2868 -2.3443
  577MOL    C7047302   4.224   5.641   3.658 -0.3909 -0.2861  0.2488
  577MOL    O7147303   4.153   5.561   3.566  0.5922  0.4400  0.4301
  577MOL    H7247304   4.208   5.746   3.633 -0.9670 -0.3357  0.3947
  577MOL    H7347305   4.193   5.620   3.760  0.8042  1.5787  1.0214
  577MOL    C7447306   4.014   5.565   3.573  0.3502  0.4573 -0.9072
  577MOL    O7547307   3.956   5.503   3.687 -0.6064  0.1474 -0.2224
  577MOL    H7647308   3.983   5.530   3.474 -0.0683  0.2355 -0.6973
  577MOL    H7747309   3.988   5.670   3.569 -0.8757  0.2937  1.8222
  577MOL    C7847310   3.988   5.365   3.681 -0.2637 -0.1647  0.4326
  577MOL    O7947311   3.956   5.290   3.791  0.1396  0.0270  0.0253
  577MOL    H8047312   4.097   5.365   3.672 -0.3477  1.5365 -0.6529
  577MOL    H8147313   3.943   5.307   3.601  1.5856 -1.4602  0.2757
  577MOL    H8247314   3.861   5.286   3.795  0.1859 -2.2984 -0.1043
  578MOL     C147315   3.865   4.822   7.506 -0.5881  0.1510 -0.3485
  578MOL     O247316   3.940   4.808   7.624  1.3421  0.5037  0.1699
  578MOL     H347317   3.913   4.800   7.411 -0.9712  1.4791 -0.8629
  578MOL     H447318   3.784   4.749   7.499  0.0670 -0.6798  0.5786
  578MOL     H547319   3.821   4.922   7.500 -0.7878 -0.0453 -2.5686
  578MOL     C647320   4.052   4.890   7.615 -0.5777  0.2263 -0.0691
  578MOL     O747321   4.016   5.017   7.578 -0.2776  0.0739  0.4460
  578MOL     H847322   4.123   4.853   7.541 -0.1586  0.2804  0.3023
  578MOL     H947323   4.103   4.886   7.711 -1.6870 -1.1845  0.4720
  578MOL    C1047324   4.026   5.105   7.686 -0.1240 -0.1060  0.3386
  578MOL    O1147325   4.156   5.116   7.723 -1.0096  0.5055  0.6975
  578MOL    H1247326   3.972   5.073   7.775 -0.4561  0.4509  0.3395
  578MOL    H1347327   3.987   5.202   7.653 -0.2660 -0.8827 -1.8976
  578MOL    C1447328   4.235   5.193   7.628 -0.1500 -0.2385 -1.0114
  578MOL    O1547329   4.203   5.330   7.646 -0.2230  0.0307  0.0287
  578MOL    H1647330   4.221   5.184   7.521  1.4113  1.8148 -1.4264
  578MOL    H1747331   4.341   5.177   7.646  0.2104  1.7530 -1.2022
  578MOL    C1847332   4.284   5.399   7.744  0.0154 -0.0346  0.4322
  578MOL    O1947333   4.405   5.427   7.684 -0.7691  0.7483 -0.3487
  578MOL    H2047334   4.303   5.333   0.045  2.8979  0.8081  0.4933
  578MOL    H2147335   4.222   5.482   7.777 -3.1699 -2.1690  0.0734
  578MOL    C2247336   4.398   5.534   7.595 -0.2800 -0.2518  0.2955
  578MOL    O2347337   4.513   5.619   7.612 -0.4345 -0.3077  0.5245
  578MOL    H2447338   4.306   5.593   7.592  0.6408  1.1243 -4.1010
  578MOL    H2547339   4.394   5.489   7.496  1.2065 -1.1517  0.6428
  578MOL    C2647340   4.508   5.700   7.723 -0.3468 -0.5621  0.0984
  578MOL    O2747341   4.413   5.799   7.713 -0.0275 -1.0367 -0.5274
  578MOL    H2847342   4.612   5.731   7.732  0.5945 -3.1185 -1.6284
  578MOL    H2947343   4.483   5.640   0.027  0.6577  0.7680  1.3413
  578MOL    C3047344   4.444   5.880   7.608  0.2084  0.1853  0.3650
  578MOL    O3147345   4.340   5.965   7.585 -0.3933  0.1317  0.7176
  578MOL    H3247346   4.463   5.826   7.515 -2.6181 -0.0574 -0.1088
  578MOL    H3347347   4.538   5.932   7.629  1.0619 -0.8882 -0.6960
  578MOL    C3447348   4.254   5.915   7.480 -0.1831  0.6109  0.1411
  578MOL    O3547349   4.309   5.938   7.355 -0.0379 -0.0311 -0.1409
  578MOL    H3647350   4.150   5.946   7.491 -1.1054 -1.8785 -1.2480
  578MOL    H3747351   4.251   5.807   7.488  0.5440  0.5869  0.1913
  578MOL    C3847352   4.348   6.072   7.334 -0.2279 -0.2295  0.4542
  578MOL    O3947353   4.389   6.078   7.198  0.0838 -0.3826 -0.0449
  578MOL    H4047354   4.424   6.103   7.405 -0.6320 -1.8312  1.6044
  578MOL    H4147355   4.273   6.150   7.328  1.2806  1.2490  0.4673
  578MOL    C4247356   4.517   6.016   7.173  0.3713  0.6315  0.2506
  578MOL    O4347357   4.624   6.087   7.224  0.0807 -0.3445  0.0234
  578MOL    H4447358   4.519   6.005   7.064  1.4494  3.4491 -0.0762
  578MOL    H4547359   4.523   5.918   7.218 -0.2286  0.6473  0.3668
  578MOL    C4647360   4.684   6.168   7.133  0.0176  0.1610 -0.1285
  578MOL    O4747361   4.767   6.098   7.044 -0.4036  0.8537 -0.3533
  578MOL    H4847362   4.738   6.242   7.193  0.2778 -0.1180 -0.0135
  578MOL    H4947363   4.616   6.214   7.062 -0.5964 -0.4476  0.0657
  578MOL    C5047364   4.884   6.060   7.107 -0.1853  0.0577  0.6099
  578MOL    O5147365   4.958   6.170   7.123 -0.1792 -0.2302  0.3541
  578MOL    H5247366   4.928   5.992   7.035 -1.0792  1.9036 -1.7282
  578MOL    H5347367   4.858   6.006   7.198  2.2338 -0.6448  0.9080
  578MOL    C5447368   5.078   6.138   7.184 -0.1602 -0.2261  0.2076
  578MOL    O5547369   5.060   6.114   7.324 -0.1553  0.0388  0.1947
  578MOL    H5647370   5.143   6.225   7.170 -1.7240  1.3298  2.3200
  578MOL    H5747371   5.127   6.056   7.131  0.9070  0.1936  0.5268
  578MOL    C5847372   4.993   6.220   7.392  0.1628  0.0870  0.4734
  578MOL    O5947373   5.035   6.227   7.525 -0.1401 -0.0162  0.2426
  578MOL    H6047374   4.885   6.217   7.383  0.1571  1.6721 -0.2951
  578MOL    H6147375   5.034   6.313   7.351 -0.7542 -0.0940 -0.8559
  578MOL    C6247376   4.992   6.127   7.609  0.8503 -0.2106  0.5728
  578MOL    O6347377   4.854   6.125   7.623  0.1533 -0.1605  0.1997
  578MOL    H6447378   5.032   6.128   7.710 -0.6917  0.2675  1.1877
  578MOL    H6547379   5.035   6.034   7.572 -0.2829 -0.1141 -1.0686
  578MOL    C6647380   4.806   6.226   7.698 -0.1435 -0.3104 -0.3399
  578MOL    O6747381   4.850   6.206   0.051 -0.1949  0.5725 -0.1640
  578MOL    H6847382   4.699   6.239   7.685 -0.3987 -0.5172  1.4796
  578MOL    H6947383   4.845   6.323   7.665  1.3731 -0.5846  0.6070
  578MOL    C7047384   4.777   6.099   0.105 -0.0460 -0.1765  0.7796
  578MOL    O7147385   4.646   6.136   0.139  0.1259  0.3533 -0.1647
  578MOL    H7247386   4.833   6.059   0.189 -0.2446  2.1892  2.0710
  578MOL    H7347387   4.760   6.019   0.033  0.5847  0.6476 -0.3107
  578MOL    C7447388   4.626   6.168   0.268  0.0092 -0.0086 -0.6586
  578MOL    O7547389   4.636   6.053   0.351  1.0455  0.3376  0.3484
  578MOL    H7647390   4.526   6.209   0.282 -0.2492 -0.9430  0.2919
  578MOL    H7747391   4.691   6.249   0.302 -0.1419 -0.1557 -0.0246
  578MOL    C7847392   4.531   5.961   0.342  0.0956 -0.0636 -0.2061
  578MOL    O7947393   4.579   5.837   0.395  0.2545 -0.2551 -0.1648
  578MOL    H8047394   4.496   5.953   0.240 -0.1946 -1.0773 -0.0299
  578MOL    H8147395   4.448   5.990   0.406 -0.8997  0.3933 -1.6813
  578MOL    H8247396   4.597   5.856   0.486  3.1334  1.6223 -1.0672
  579MOL     C147397   5.035   0.526   2.096  0.6863  0.3220 -0.8204
  579MOL     O247398   5.084   0.397   2.132  0.7669 -0.0141 -0.6633
  579MOL     H347399   5.108   0.585   2.043 -0.4011  0.1558 -2.5373
  579MOL     H447400   4.941   0.507   2.043 -1.0617  1.5045  1.7331
  579MOL     H547401   5.015   0.582   2.188  1.2936 -0.8683  0.0527
  579MOL     C647402   5.141   0.331   2.024  1.7071  0.1317 -0.1222
  579MOL     O747403   5.055   0.324   1.916  0.3529 -0.1031 -0.2542
  579MOL     H847404   5.184   0.236   2.055 -1.1174 -1.7192 -1.6322
  579MOL     H947405   5.234   0.382   1.999  2.2280 -0.5966  0.3027
  579MOL    C1047406   5.113   0.252   1.808  0.2777  0.0276 -0.4915
  579MOL    O1147407   5.195   0.331   1.725 -0.1535 -0.2861  0.1611
  579MOL    H1247408   5.019   0.221   1.761 -1.4904  0.5631  2.5218
  579MOL    H1347409   5.174   0.164   1.828  0.1711 -0.5782 -2.6972
  579MOL    C1447410   5.166   0.316   1.590  0.3253 -0.3919 -0.3121
  579MOL    O1547411   5.035   0.338   1.555  0.3412 -0.1149 -1.0691
  579MOL    H1647412   5.200   0.222   1.546 -0.9266 -1.5028  1.0506
  579MOL    H1747413   5.238   0.384   1.544 -0.5167  0.6476 -0.0992
  579MOL    C1847414   5.002   0.472   1.539  0.4726 -0.3397  0.1808
  579MOL    O1947415   5.049   0.516   1.418 -0.5499 -0.1400 -0.6423
  579MOL    H2047416   5.058   0.534   1.610  2.7594 -2.2136  0.0642
  579MOL    H2147417   4.898   0.502   1.544  0.1255 -1.3465 -0.7913
  579MOL    C2247418   4.960   0.480   1.313 -0.4007 -0.7007 -0.4957
  579MOL    O2347419   4.844   0.555   1.307  0.3307 -0.0083 -0.2169
  579MOL    H2447420   4.921   0.381   1.339  1.4180 -1.1207  0.7521
  579MOL    H2547421   5.010   0.460   1.218 -1.6027 -2.0583 -0.8594
  579MOL    C2647422   4.869   0.671   1.238  0.4696 -0.1447 -0.3975
  579MOL    O2747423   4.871   0.642   1.103  0.0258 -0.2163  0.0718
  579MOL    H2847424   4.965   0.716   1.263 -0.7278  1.0088  2.2103
  579MOL    H2947425   4.794   0.745   1.263 -0.1208 -0.2343 -1.8341
  579MOL    C3047426   4.744   0.609   1.057  0.0180  0.3448  0.6400
  579MOL    O3147427   4.751   0.580   0.915  0.2889  0.1354 -0.1007
  579MOL    H3247428   4.684   0.696   1.082  0.8989  1.2579 -0.3995
  579MOL    H3347429   4.708   0.521   1.110  1.3227 -2.0325 -2.2672
  579MOL    C3447430   4.780   0.450   0.888  0.0492  0.1616  0.5072
  579MOL    O3547431   4.813   0.431   0.750  0.4350  0.5583 -0.4997
  579MOL    H3647432   4.693   0.389   0.909 -0.4504 -0.1053 -2.0725
  579MOL    H3747433   4.877   0.427   0.933  1.2627  2.5807 -0.7198
  579MOL    C3847434   4.698   0.436   0.669 -1.3222  0.1517 -0.2302
  579MOL    O3947435   4.624   0.326   0.696  0.1373  0.1749  0.0965
  579MOL    H4047436   4.741   0.435   0.569 -0.0412 -1.3159  0.3113
  579MOL    H4147437   4.648   0.532   0.681  0.4214  1.0703 -0.2082
  579MOL    C4247438   4.519   0.328   0.601  1.0419  0.0947  0.3576
  579MOL    O4347439   4.411   0.411   0.638  0.7239  0.5198  0.2113
  579MOL    H4447440   4.485   0.225   0.592  3.9583 -0.7858 -1.1277
  579MOL    H4547441   4.557   0.353   0.502  1.4825  0.0303  0.5107
  579MOL    C4647442   4.348   0.370   0.757 -0.1161  0.2627 -0.2501
  579MOL    O4747443   4.254   0.466   0.792  0.7677 -0.0058 -0.1033
  579MOL    H4847444   4.414   0.359   0.843 -1.1453 -1.7978  0.2967
  579MOL    H4947445   4.295   0.276   0.749 -1.0208  0.7094  0.4119
  579MOL    C5047446   4.143   0.466   0.704  0.9464 -0.0715  1.1497
  579MOL    O5147447   4.070   0.350   0.717 -0.3147 -0.2399 -0.4029
  579MOL    H5247448   4.170   0.477   0.599  0.6340  0.5031  1.1296
  579MOL    H5347449   4.084   0.556   0.723  0.3008 -0.0054 -0.9780
  579MOL    C5447450   3.979   0.366   0.817 -1.0716  0.0896  0.0599
  579MOL    O5547451   3.877   0.438   0.766  0.1101  0.4635 -0.5373
  579MOL    H5647452   4.030   0.413   0.900 -0.6802  0.1332 -0.2040
  579MOL    H5747453   3.943   0.277   0.869 -0.7528  0.0435  0.2076
  579MOL    C5847454   3.773   0.471   0.860  0.5065 -0.0123  0.0162
  579MOL    O5947455   3.820   0.525   0.985  0.0859  0.0691 -0.3707
  579MOL    H6047456   3.720   0.379   0.883  0.9625 -0.5421 -0.9981
  579MOL    H6147457   3.704   0.537   0.807  0.0177 -1.7926 -1.6035
  579MOL    C6247458   3.844   0.665   0.976  0.3806 -0.6781  0.0428
  579MOL    O6347459   3.734   0.742   0.979  0.1393  0.2905  0.0579
  579MOL    H6447460   3.917   0.667   0.895 -0.3805  1.1558 -0.6119
  579MOL    H6547461   3.909   0.697   1.058  2.7636 -1.1104 -1.6185
  579MOL    C6647462   3.749   0.865   0.915  0.0835 -0.0163  0.5667
  579MOL    O6747463   3.765   0.843   0.780  0.0878 -0.2339  0.1967
  579MOL    H6847464   3.840   0.905   0.959 -0.0425  1.1257 -0.1844
  579MOL    H6947465   3.668   0.937   0.930  0.4647  0.8776 -1.4757
  579MOL    C7047466   3.794   0.956   0.711  0.3689  0.6855 -0.1864
  579MOL    O7147467   3.918   1.006   0.744 -0.6541  0.1284 -0.1128
  579MOL    H7247468   3.716   1.028   0.732  0.6236  1.0101 -0.3469
  579MOL    H7347469   3.783   0.931   0.605  0.0408  1.7936 -0.4159
  579MOL    C7447470   4.023   0.942   0.670 -0.1730 -0.8312  0.5031
  579MOL    O7547471   4.032   0.994   0.541 -0.4913  0.3053 -0.2074
  579MOL    H7647472   4.008   0.835   0.665  0.5199 -0.9314  0.4862
  579MOL    H7747473   4.122   0.950   0.716  0.1979  0.5143 -0.4791
  579MOL    C7847474   4.070   1.127   0.532  0.6818  0.2036 -0.3484
  579MOL    O7947475   4.095   1.164   0.402 -0.3159  0.3260 -0.4853
  579MOL    H8047476   4.154   1.156   0.595  1.6557  0.2763 -1.6654
  579MOL    H8147477   3.984   1.186   0.566  1.3284  0.3544  1.0611
  579MOL    H8247478   4.178   1.128   0.373 -0.5597  1.1082 -2.1938
  580MOL     C147479   1.462   5.206   0.766  0.0355  0.6160 -0.3464
  580MOL     O247480   1.454   5.144   0.642  0.0333  0.4897 -0.3214
  580MOL     H347481   1.486   5.136   0.846  0.8913  0.1136 -1.0436
  580MOL     H447482   1.538   5.283   0.753  1.0864 -0.3502  0.0684
  580MOL     H547483   1.366   5.249   0.795 -0.1691 -0.9064  1.2990
  580MOL     C647484   1.371   5.032   0.648 -0.6660  0.6880  0.6157
  580MOL     O747485   1.238   5.051   0.639  0.2243  0.1195 -0.4487
  580MOL     H847486   1.386   4.961   0.730  2.2671  1.2952  0.6316
  580MOL     H947487   1.397   4.982   0.555 -2.0665 -0.4944  0.8328
  580MOL    C1047488   1.157   5.046   0.750 -0.3579  0.2010  0.1053
  580MOL    O1147489   1.114   4.913   0.774 -0.0088 -0.6908 -0.1521
  580MOL    H1247490   1.069   5.107   0.731 -1.0833 -1.2455 -1.3093
  580MOL    H1347491   1.200   5.077   0.845 -1.3615  2.8505 -0.2531
  580MOL    C1447492   0.981   4.884   0.734 -0.6190 -0.3768 -0.0598
  580MOL    O1547493   0.883   4.931   0.825  0.0461  0.2864 -0.6378
  580MOL    H1647494   0.981   4.775   0.735  2.8541 -0.4552 -1.1767
  580MOL    H1747495   0.966   4.919   0.632  2.6078  0.5022 -0.2767
  580MOL    C1847496   0.750   4.915   0.783 -0.7433 -0.0415 -0.2025
  580MOL    O1947497   0.722   4.980   0.659 -0.0847  0.1457 -0.0362
  580MOL    H2047498   0.682   4.956   0.857 -1.9013 -1.6302 -0.3551
  580MOL    H2147499   0.706   4.815   0.784 -1.2091  0.0594 -3.5228
  580MOL    C2247500   0.590   5.019   0.648 -0.0204  0.0677 -0.9279
  580MOL    O2347501   0.499   4.916   0.640 -0.1871 -0.4128  0.2329
  580MOL    H2447502   0.586   5.091   0.567 -0.9157 -1.2469 -2.0595
  580MOL    H2547503   0.571   5.076   0.739 -0.6454  0.4796 -1.3244
  580MOL    C2647504   0.380   4.959   0.580  0.5664 -0.0151 -0.1385
  580MOL    O2747505   0.399   4.964   0.439 -0.0686 -0.1835  0.2792
  580MOL    H2847506   0.340   5.056   0.609  3.1350  1.2708 -0.7848
  580MOL    H2947507   0.293   4.899   0.608 -0.6190  1.5927 -0.3291
  580MOL    C3047508   0.378   4.839   0.388 -0.4428 -0.2231  0.4668
  580MOL    O3147509   0.245   4.803   0.376  0.0521 -0.1961 -0.1573
  580MOL    H3247510   0.426   4.766   0.453  0.2917 -1.5063 -1.4661
  580MOL    H3347511   0.425   4.840   0.290 -0.6361  0.0373  0.3784
  580MOL    C3447512   0.228   4.724   0.263  0.0692 -0.6289  0.4816
  580MOL    O3547513   0.194   4.802   0.149  0.3453 -0.0231 -0.2375
  580MOL    H3647514   0.144   4.656   0.277  0.6876 -1.5679 -0.3625
  580MOL    H3747515   0.315   4.661   0.249 -0.0118 -0.8176  0.8302
  580MOL    C3847516   0.073   4.866   0.156 -0.1134  0.0633 -0.2124
  580MOL    O3947517   7.749   4.786   0.123 -0.3046 -0.4887 -0.5420
  580MOL    H4047518   0.072   4.951   0.088  0.8389 -0.0743 -0.3959
  580MOL    H4147519   0.068   4.915   0.254  1.1944  0.4023 -0.3122
  580MOL    C4247520   7.736   4.740   7.772 -0.2963  0.3533 -0.5506
  580MOL    O4347521   7.728   4.850   7.690 -0.0767 -0.2554 -0.3132
  580MOL    H4447522   7.647   4.677   7.765 -0.9339  0.9397  1.6639
  580MOL    H4547523   0.048   4.689   7.756  0.9133  1.2465  3.3054
  580MOL    C4647524   7.692   4.811   7.560  0.2454 -0.6418 -0.1027
  580MOL    O4747525   7.568   4.741   7.558 -0.1527  0.4670  0.5814
  580MOL    H4847526   7.770   4.743   7.525  1.9086  0.6577  0.9807
  580MOL    H4947527   7.684   4.899   7.495  0.8637  0.1226  0.8253
  580MOL    C5047528   7.454   4.818   7.579 -0.3300  0.3832 -0.0421
  580MOL    O5147529   7.340   4.743   7.579 -0.1051 -0.0320  0.2805
  580MOL    H5247530   7.437   4.887   7.497 -0.2148  0.5841  0.1009
  580MOL    H5347531   7.455   4.877   7.671 -1.8229 -0.7363  0.7278
  580MOL    C5447532   7.316   4.695   7.439  0.3023  0.3387  0.0106
  580MOL    O5547533   7.203   4.617   7.445 -0.1301  0.1957  0.4380
  580MOL    H5647534   7.396   4.633   7.398 -0.0730  0.5828 -1.0941
  580MOL    H5747535   7.306   4.768   7.358 -2.2154  0.5184  0.4350
  580MOL    C5847536   7.084   4.688   7.468 -0.2916 -0.0326  0.3609
  580MOL    O5947537   7.013   4.631   7.568 -0.0534 -0.0957  0.4018
  580MOL    H6047538   7.019   4.686   7.381 -0.5661 -1.8553  0.5830
  580MOL    H6147539   7.092   4.791   7.503  0.1118  0.3896 -0.9522
  580MOL    C6247540   7.078   4.646   7.692  0.5360 -0.0636 -0.2700
  580MOL    O6347541   6.982   4.620   0.007 -0.7858  0.4274  0.0981
  580MOL    H6447542   7.109   4.750   7.705  1.3092  0.0103 -2.4932
  580MOL    H6547543   7.168   4.590   7.719 -0.4697 -0.5962  2.0504
  580MOL    C6647544   6.953   4.480   0.025  0.5117 -0.1156  0.2092
  580MOL    O6747545   6.885   4.454   0.145  0.7638 -0.2230  0.7759
  580MOL    H6847546   7.048   4.426   0.023 -0.2370 -1.4351 -0.8375
  580MOL    H6947547   6.910   4.424   7.726  0.0123  0.9033 -0.2255
  580MOL    C7047548   6.744   4.453   0.109 -0.1725 -0.1629 -0.9341
  580MOL    O7147549   6.690   4.340   0.048  0.1988  0.4044  0.2261
  580MOL    H7247550   6.727   4.544   0.051 -0.1337  0.4689  0.0487
  580MOL    H7347551   6.685   4.472   0.199  0.1343  1.1901 -0.9973
  580MOL    C7447552   6.705   4.225   0.122 -0.2956 -0.0243  0.5817
  580MOL    O7547553   6.641   4.117   0.060 -0.5983 -0.1741  0.0794
  580MOL    H7647554   6.668   4.234   0.225 -2.1965 -0.8720 -0.0079
  580MOL    H7747555   6.808   4.192   0.137 -0.0699  0.6182  0.4567
  580MOL    C7847556   6.502   4.126   0.070 -0.5320 -0.0117 -0.5314
  580MOL    O7947557   6.442   4.025   7.778 -0.1853 -0.1965 -0.3168
  580MOL    H8047558   6.477   4.213   0.009 -1.7837 -0.3790 -0.5555
  580MOL    H8147559   6.461   4.137   0.170 -1.6125 -0.6380 -0.8933
  580MOL    H8247560   6.454   3.937   0.026  2.9239 -1.0201 -3.4884
  581MOL     C147561   1.522   3.503   7.403 -0.3274  0.4795  0.6010
  581MOL     O247562   1.587   3.429   7.302  0.0588 -0.2667 -0.0828
  581MOL     H347563   1.428   3.552   7.378 -0.3183  0.7535  1.0864
  581MOL     H447564   1.482   3.425   7.469 -0.2514  1.7214  2.1548
  581MOL     H547565   1.585   3.565   7.467  0.0350 -1.0245  1.7358
  581MOL     C647566   1.716   3.394   7.340 -0.5794  0.2303 -0.2137
  581MOL     O747567   1.808   3.491   7.339 -0.3475  0.2553 -0.3296
  581MOL     H847568   1.759   3.303   7.299  0.0357  0.7135 -0.6490
  581MOL     H947569   1.715   3.367   7.445  0.3391 -0.1927 -0.3046
  581MOL    C1047570   1.815   3.554   7.215 -0.7155 -0.5349 -0.2155
  581MOL    O1147571   1.903   3.493   7.132  0.4293 -0.0877  0.1793
  581MOL    H1247572   1.850   3.655   7.237 -0.0532 -0.7987 -0.0626
  581MOL    H1347573   1.719   3.576   7.168 -0.9043  1.8270  1.1911
  581MOL    C1447574   1.855   3.468   7.002 -0.0128 -0.1794  0.2511
  581MOL    O1547575   1.868   3.584   6.923 -0.7027  0.2978 -0.0525
  581MOL    H1647576   1.756   3.421   7.003 -0.5424  0.9030 -0.4828
  581MOL    H1747577   1.925   3.401   6.953 -0.1930 -1.1495  1.2978
  581MOL    C1847578   2.000   3.635   6.924 -0.1007 -0.3222 -0.6825
  581MOL    O1947579   2.060   3.654   6.797  0.1657  0.6776 -0.2593
  581MOL    H2047580   2.064   3.568   6.982 -0.4531  0.2097  0.3492
  581MOL    H2147581   2.004   3.729   6.979  2.9405  1.0288 -3.0674
  581MOL    C2247582   2.069   3.532   6.726 -0.0600  0.7557 -0.3409
  581MOL    O2347583   2.156   3.433   6.774 -0.2883 -0.6498  0.0998
  581MOL    H2447584   2.098   3.567   6.628  1.0036 -0.2131 -0.3882
  581MOL    H2547585   1.974   3.482   6.710  1.1770 -1.6111 -0.5662
  581MOL    C2647586   2.285   3.477   6.791 -0.1999  0.1874 -0.3586
  581MOL    O2747587   2.345   3.468   6.668 -0.2799 -0.0038  0.2856
  581MOL    H2847588   2.330   3.398   6.852 -2.3695 -0.8875 -0.1020
  581MOL    H2947589   2.303   3.573   6.839 -2.3033 -1.6404  4.3885
  581MOL    C3047590   2.482   3.494   6.664  0.4148 -0.2444  0.4100
  581MOL    O3147591   2.519   3.633   6.671 -0.1673  0.5332  0.2502
  581MOL    H3247592   2.531   3.454   6.576 -0.7028 -1.1598  0.1966
  581MOL    H3347593   2.522   3.420   6.734  0.6767 -2.0647 -1.6258
  581MOL    C3447594   2.459   3.715   6.574 -0.1131  0.3090 -0.5006
  581MOL    O3547595   2.516   3.843   6.569 -0.3456 -0.1114  0.0981
  581MOL    H3647596   2.350   3.719   6.585 -0.1375  0.6084 -0.8434
  581MOL    H3747597   2.480   3.662   6.481 -1.3225 -1.5016  0.2297
  581MOL    C3847598   2.462   3.931   6.658  0.7852 -0.2496 -0.5950
  581MOL    O3947599   2.333   3.968   6.622  0.1389  0.3748 -0.5472
  581MOL    H4047600   2.526   4.018   6.665 -0.6475  0.7026  1.3949
  581MOL    H4147601   2.463   3.888   6.759 -2.1404 -0.7054 -0.7196
  581MOL    C4247602   2.287   4.075   6.695  0.1824  0.2144 -1.1540
  581MOL    O4347603   2.254   4.039   6.824  0.0019  0.5519  0.0634
  581MOL    H4447604   2.200   4.117   6.644  2.1442  4.1272 -1.3875
  581MOL    H4547605   2.357   4.157   6.702 -0.9366  1.0426  0.5620
  581MOL    C4647606   2.147   3.948   6.820 -0.0995 -0.4499  0.6620
  581MOL    O4747607   2.029   4.019   6.802  0.1765 -0.0652 -0.3314
  581MOL    H4847608   2.151   3.890   6.913  1.7629 -2.6190 -0.7144
  581MOL    H4947609   2.160   3.878   6.738  0.9504 -0.9199  1.2222
  581MOL    C5047610   1.976   4.071   6.917  0.0809  0.7112  0.5747
  581MOL    O5147611   1.902   3.965   6.987 -0.0616  0.1601  0.1229
  581MOL    H5247612   1.908   4.153   6.897  0.5743  0.9438 -0.1482
  581MOL    H5347613   2.057   4.104   6.983  0.0084 -3.8509  3.1832
  581MOL    C5447614   1.769   3.939   6.938  0.4333  0.1687 -0.1252
  581MOL    O5547615   1.676   4.008   7.017  0.0561  0.2266  0.7371
  581MOL    H5647616   1.745   3.833   6.949  3.4696 -0.6218 -0.6626
  581MOL    H5747617   1.760   3.960   6.831 -0.4053 -1.2020 -0.3359
  581MOL    C5847618   1.537   3.968   6.997 -0.3976  0.1272  1.7799
  581MOL    O5947619   1.479   4.032   6.896  0.0975  0.2100  0.5932
  581MOL    H6047620   1.489   3.975   7.094  1.6816  0.0187  2.8447
  581MOL    H6147621   1.538   3.862   6.971 -0.5961  0.1407  1.7120
  581MOL    C6247622   1.470   4.169   6.920 -0.0830 -0.6284 -0.2941
  581MOL    O6347623   1.385   4.196   7.029  0.0526  0.0019 -0.3354
  581MOL    H6447624   1.425   4.222   6.836  0.7597  1.8488  0.7905
  581MOL    H6547625   1.567   4.211   6.943  0.0542 -1.2249  0.2160
  581MOL    C6647626   1.257   4.165   6.998  0.4890 -0.1707 -0.3271
  581MOL    O6747627   1.198   4.284   6.957  0.4039 -0.4078 -0.2029
  581MOL    H6847628   1.215   4.120   7.088 -0.8443 -0.6649 -1.1845
  581MOL    H6947629   1.255   4.078   6.933  0.1789 -1.1740  1.0085
  581MOL    C7047630   1.060   4.279   6.936  0.1172 -0.5356  0.3812
  581MOL    O7147631   1.029   4.197   6.826 -0.6122 -0.0234 -0.0703
  581MOL    H7247632   1.011   4.377   6.929  2.8977  0.7853 -1.2040
  581MOL    H7347633   1.020   4.235   7.028  1.9475  1.4553  2.2031
  581MOL    C7447634   1.070   4.258   6.710 -0.1187 -1.0987  0.0593
  581MOL    O7547635   1.104   4.156   6.617 -0.2556 -0.1905 -0.3052
  581MOL    H7647636   1.154   4.326   6.727  0.1224 -1.8143  1.8860
  581MOL    H7747637   0.989   4.312   6.662 -0.6533  0.5978  2.7404
  581MOL    C7847638   1.234   4.115   6.623  0.7535  0.2151 -0.2395
  581MOL    O7947639   1.328   4.210   6.578 -0.0573  0.1601 -0.0332
  581MOL    H8047640   1.237   4.045   6.540  0.5133 -1.0840  0.8423
  581MOL    H8147641   1.263   4.054   6.708 -1.9465 -0.0176  0.5836
  581MOL    H8247642   1.302   4.236   6.491  1.7639  1.1398 -0.3078
  582MOL     C147643   2.635   6.378   7.372  0.3216 -0.2322  0.0806
  582MOL     O247644   2.552   6.295   7.299  0.3971  0.3490  0.0541
  582MOL     H347645   2.660   6.349   7.474 -0.3972 -1.2371 -0.0238
  582MOL     H447646   2.725   6.382   7.311 -0.5311  0.8799 -1.1327
  582MOL     H547647   2.612   6.485   7.366 -0.8516 -0.5139 -0.5960
  582MOL     C647648   2.614   6.176   7.264  0.0828 -0.1161  0.3020
  582MOL     O747649   2.609   6.081   7.367  0.3091 -0.2633  0.2331
  582MOL     H847650   2.718   6.194   7.238 -0.4114  3.2230  0.4226
  582MOL     H947651   2.564   6.141   7.174 -2.1250  4.5525 -0.4113
  582MOL    C1047652   2.479   6.029   7.381  0.8356  0.1482  0.6239
  582MOL    O1147653   2.461   5.982   7.506 -0.4781 -0.2971  0.2348
  582MOL    H1247654   2.478   5.947   7.309  0.1737  2.3680 -2.0124
  582MOL    H1347655   2.406   6.109   7.364  0.7683  0.4011  2.0922
  582MOL    C1447656   2.492   6.067   7.611 -0.4219  0.1387  0.2244
  582MOL    O1547657   2.434   6.198   7.603  0.0379 -0.1570 -0.2317
  582MOL    H1647658   2.601   6.077   7.611 -0.3306 -0.7989  2.1405
  582MOL    H1747659   2.462   6.016   7.702  0.7495 -0.3571  0.3506
  582MOL    C1847660   2.300   6.207   7.589 -0.5210  0.2879 -0.3461
  582MOL    O1947661   2.260   6.249   7.464  0.4346  0.0503 -0.2119
  582MOL    H2047662   2.253   6.270   7.665 -2.6306 -0.6459 -0.8281
  582MOL    H2147663   2.260   6.110   7.619 -2.0637  0.4252 -1.8562
  582MOL    C2247664   2.275   6.385   7.444  0.3281  0.8060 -1.2543
  582MOL    O2347665   2.175   6.466   7.506  0.2498  0.7530 -0.0663
  582MOL    H2447666   2.286   6.419   7.341  0.5728  1.2948 -1.0712
  582MOL    H2547667   2.373   6.406   7.488  0.4324 -1.2005 -0.4699
  582MOL    C2647668   2.051   6.450   7.436 -0.2346 -0.9176  0.6641
  582MOL    O2747669   2.057   6.529   7.316 -0.1905  0.5024 -0.0160
  582MOL    H2847670   1.959   6.476   7.489 -0.9324  0.1687 -1.0109
  582MOL    H2947671   2.054   6.346   7.404  2.8854 -0.6788  0.0490
  582MOL    C3047672   1.938   6.521   7.244  0.1211  0.2487  0.2200
  582MOL    O3147673   1.830   6.583   7.306 -0.3381 -0.2826 -0.5551
  582MOL    H3247674   1.914   6.422   7.205 -0.3586 -0.8962  3.2090
  582MOL    H3347675   1.948   6.585   7.157 -0.9712  0.7926  0.4838
  582MOL    C3447676   1.847   6.717   7.321  0.7363  0.1370  0.2931
  582MOL    O3547677   1.773   6.788   7.219 -0.0157 -0.4175 -0.0059
  582MOL    H3647678   1.951   6.749   7.322  0.4225  1.2494 -1.4180
  582MOL    H3747679   1.818   6.753   7.420  1.2539  4.4475 -1.0392
  582MOL    C3847680   1.636   6.759   7.239 -0.0414  0.1743 -0.3247
  582MOL    O3947681   1.553   6.813   7.134  0.1368 -0.3023  0.4948
  582MOL    H4047682   1.603   6.779   7.341  0.1915  0.8577 -0.3830
  582MOL    H4147683   1.628   6.652   7.219  2.9247 -0.7139  2.6607
  582MOL    C4247684   1.600   6.771   7.007  0.0136  0.1007 -0.2490
  582MOL    O4347685   1.591   6.635   6.978  0.1016 -0.4688  0.1670
  582MOL    H4447686   1.701   6.808   6.994  0.0452  0.1764  0.2114
  582MOL    H4547687   1.542   6.820   6.928  2.2539  0.9739 -1.4071
  582MOL    C4647688   1.459   6.584   6.982  0.0652 -0.4479  0.2967
  582MOL    O4747689   1.374   6.629   6.884 -0.5660 -0.1368 -0.0472
  582MOL    H4847690   1.398   6.606   7.070 -1.6264 -0.8358 -0.7616
  582MOL    H4947691   1.460   6.475   6.990 -2.0601 -0.5748 -0.8122
  582MOL    C5047692   1.404   6.579   6.750 -0.2450  0.3963 -0.2119
  582MOL    O5147693   1.414   6.443   6.737 -0.4170  0.4251 -0.2286
  582MOL    H5247694   1.503   6.613   6.721 -0.1309 -2.6488 -3.7242
  582MOL    H5347695   1.327   6.623   6.687 -2.4218 -1.5193  1.0203
  582MOL    C5447696   1.284   6.394   6.746  0.5204  0.5443  0.4757
  582MOL    O5547697   1.210   6.412   6.626  0.4124  0.1786  0.5781
  582MOL    H5647698   1.228   6.425   6.835  1.1442 -1.5861  1.6433
  582MOL    H5747699   1.298   6.286   6.759  1.6611  0.3673 -1.9036
  582MOL    C5847700   1.258   6.335   6.523  0.3330  0.4959  0.1151
  582MOL    O5947701   1.203   6.202   6.534 -0.5192  0.0624  1.0791
  582MOL    H6047702   1.365   6.341   6.503  0.4889  0.5411  0.9556
  582MOL    H6147703   1.199   6.360   6.435 -0.4129 -2.2245 -0.2361
  582MOL    C6247704   1.245   6.126   6.421 -0.5877 -0.1044 -1.0565
  582MOL    O6347705   1.383   6.121   6.404 -0.3044  0.0835  0.0797
  582MOL    H6447706   1.191   6.158   6.333 -1.7369  2.0540  0.3887
  582MOL    H6547707   1.218   6.022   6.442 -1.1443  0.3866  0.7363
  582MOL    C6647708   1.451   6.070   6.511 -0.7578  0.5826 -0.1040
  582MOL    O6747709   1.422   5.933   6.527  0.2020  0.2899  0.0619
  582MOL    H6847710   1.430   6.121   6.605  0.1827  1.7929 -0.5395
  582MOL    H6947711   1.557   6.085   6.489 -0.2041 -2.0543  0.6057
  582MOL    C7047712   1.500   5.873   6.630 -0.1199  0.2798 -0.5882
  582MOL    O7147713   1.454   5.917   6.758  0.0564  0.0257  0.5910
  582MOL    H7247714   1.607   5.881   6.611 -0.3735 -0.9556 -2.7244
  582MOL    H7347715   1.471   5.768   6.624  2.6837 -0.7375  2.1813
  582MOL    C7447716   1.316   5.912   6.785  0.1819  0.7559 -0.2542
  582MOL    O7547717   1.297   5.945   6.917  0.1162 -0.5819  0.0582
  582MOL    H7647718   1.296   5.805   6.772 -3.3281  1.3821 -0.3620
  582MOL    H7747719   1.266   5.968   6.707 -0.5391  0.5547  0.0662
  582MOL    C7847720   1.317   6.076   6.938 -0.0217 -0.2296 -0.4956
  582MOL    O7947721   1.305   6.116   7.077  0.0767 -0.2332  0.4134
  582MOL    H8047722   1.240   6.123   6.876 -1.4365  0.0282  1.3945
  582MOL    H8147723   1.409   6.118   6.898 -0.2888  0.1746 -0.6888
  582MOL    H8247724   1.379   6.084   7.127 -0.3681 -3.7175 -0.9711
  583MOL     C147725   2.503   3.712   4.218  0.3397  0.1715 -0.1092
  583MOL     O247726   2.531   3.662   4.088 -0.2924  0.7689 -0.2778
  583MOL     H347727   2.589   3.702   4.285 -0.6142  1.5688  1.3226
  583MOL     H447728   2.474   3.816   4.204 -0.0500  0.3397  1.9065
  583MOL     H547729   2.414   3.665   4.260 -0.9765  2.0258 -0.7905
  583MOL     C647730   2.417   3.651   4.011  0.2157 -0.0279 -0.3517
  583MOL     O747731   2.351   3.773   4.009  0.3276 -0.1454  0.1237
  583MOL     H847732   2.350   3.572   4.045 -0.0367  0.7255  0.9218
  583MOL     H947733   2.436   3.619   3.908  1.3701 -1.4511  0.2796
  583MOL    C1047734   2.415   3.860   3.922  0.5731  0.6061  0.0119
  583MOL    O1147735   2.328   3.959   3.873  0.0164 -0.1437  0.5454
  583MOL    H1247736   2.456   3.818   3.830  0.8961  1.4411 -0.2285
  583MOL    H1347737   2.500   3.909   3.967  1.0773 -1.4752  1.4144
  583MOL    C1447738   2.232   3.915   3.782 -0.3907  0.1444  0.0668
  583MOL    O1547739   2.282   3.909   3.654  0.1564 -0.4103 -0.1419
  583MOL    H1647740   2.147   3.982   3.773 -0.5380 -0.1599 -0.8064
  583MOL    H1747741   2.185   3.823   3.816  0.7323  0.1020  1.5697
  583MOL    C1847742   2.177   3.869   3.563  0.2208 -0.2239  0.0511
  583MOL    O1947743   2.119   3.743   3.597  0.7680 -0.3030  0.3402
  583MOL    H2047744   2.228   3.862   3.467 -2.5862 -0.8695 -1.4488
  583MOL    H2147745   2.106   3.952   3.569  1.0936  0.4629  1.1252
  583MOL    C2247746   2.208   3.632   3.589 -0.6676 -0.3530  0.1344
  583MOL    O2347747   2.141   3.513   3.624 -0.2663 -0.0613  0.0304
  583MOL    H2447748   2.299   3.645   3.646 -0.4470 -1.0046 -0.0687
  583MOL    H2547749   2.245   3.638   3.487 -1.9541 -1.5339 -0.4197
  583MOL    C2647750   2.110   3.497   3.757 -0.2492  0.2477  0.0619
  583MOL    O2747751   2.225   3.482   3.828 -0.1221 -0.2681 -0.4987
  583MOL    H2847752   2.044   3.410   3.759  1.8056 -1.3806 -0.9155
  583MOL    H2947753   2.042   3.578   3.784 -1.4808 -0.2557 -1.4943
  583MOL    C3047754   2.276   3.363   3.798  0.0388  0.1067 -0.3112
  583MOL    O3147755   2.226   3.261   3.872 -0.1825 -0.8761  0.1935
  583MOL    H3247756   2.380   3.369   3.833  0.1375 -0.6691 -0.4590
  583MOL    H3347757   2.287   3.354   3.689 -0.4524  0.2015 -0.3676
  583MOL    C3447758   2.182   3.148   3.798 -0.0689  0.1293  0.1797
  583MOL    O3547759   2.276   3.056   3.786 -0.5618 -0.4007 -0.2064
  583MOL    H3647760   2.152   3.186   3.701  2.6474  0.7945 -0.4464
  583MOL    H3747761   2.092   3.105   3.842 -1.3156 -0.2094 -2.6060
  583MOL    C3847762   2.229   2.944   3.712  0.3415  0.5254  0.1346
  583MOL    O3947763   2.335   2.848   3.713  0.7647 -0.0909 -0.1163
  583MOL    H4047764   2.201   2.969   3.609  2.0702 -1.2686 -0.8124
  583MOL    H4147765   2.152   2.900   3.774  0.7512 -1.0836 -0.4637
  583MOL    C4247766   2.427   2.871   3.622  0.4567  0.7642  0.3400
  583MOL    O4347767   2.387   2.858   3.488 -0.4430 -0.6241  0.5015
  583MOL    H4447768   2.515   2.814   3.651 -0.4583 -0.2864  1.1273
  583MOL    H4547769   2.458   2.972   3.645  2.5092  0.0373  0.8819
  583MOL    C4647770   2.336   2.729   3.453 -0.7224  0.0128  0.6141
  583MOL    O4747771   2.445   2.638   3.466  1.0211 -0.1780 -0.4462
  583MOL    H4847772   2.298   2.716   3.352 -1.4110  0.8893  0.7554
  583MOL    H4947773   2.256   2.707   3.524 -1.7813  0.7282 -0.3300
  583MOL    C5047774   2.523   2.637   3.354  0.9651  0.0930  0.3006
  583MOL    O5147775   2.465   2.572   3.242  0.0786 -0.3562  0.1026
  583MOL    H5247776   2.614   2.587   3.385  2.1621  0.9490 -1.7142
  583MOL    H5347777   2.545   2.739   3.324 -1.1972  0.5084  0.0048
  583MOL    C5447778   2.445   2.441   3.277  0.7301 -0.1070  0.0425
  583MOL    O5547779   2.561   2.368   3.302  0.2065 -0.4229 -0.7216
  583MOL    H5647780   2.382   2.397   3.199 -0.3584 -0.4922  1.1127
  583MOL    H5747781   2.386   2.447   3.369  0.3521  1.5395 -0.2927
  583MOL    C5847782   2.628   2.334   3.181 -0.2585  0.3017 -0.3219
  583MOL    O5947783   2.550   2.240   3.106  1.2616  0.0306  0.1915
  583MOL    H6047784   2.725   2.288   3.198 -1.0489 -1.3940 -0.2465
  583MOL    H6147785   2.642   2.426   3.125 -1.2740  0.4828 -0.2866
  583MOL    C6247786   2.612   2.182   2.994 -0.1059 -0.2874  0.1901
  583MOL    O6347787   2.663   2.281   2.911  0.1318  0.8029  0.3951
  583MOL    H6447788   2.538   2.117   2.947 -0.8304 -1.2453  2.6215
  583MOL    H6547789   2.699   2.121   3.020  1.0190  0.6224 -1.3449
  583MOL    C6647790   2.716   2.226   2.799 -0.6079  0.3226 -0.3625
  583MOL    O6747791   2.615   2.171   2.718 -0.5500 -0.0047 -0.1111
  583MOL    H6847792   2.781   2.143   2.827 -0.0764  1.6304  2.3779
  583MOL    H6947793   2.789   2.284   2.743  0.8425  0.8242  1.9977
  583MOL    C7047794   2.546   2.264   2.645 -0.7693  0.0961  0.1202
  583MOL    O7147795   2.631   2.327   2.557  0.0322  0.2843  0.3361
  583MOL    H7247796   2.506   2.339   2.714 -2.0370 -1.4748  1.1291
  583MOL    H7347797   2.472   2.203   2.594  0.0964 -1.3949  0.6106
  583MOL    C7447798   2.672   2.250   2.449  0.0884  0.5023 -0.2381
  583MOL    O7547799   2.567   2.254   2.353 -0.2617 -0.0563 -0.7322
  583MOL    H7647800   2.693   2.149   2.484  0.2421  0.1130 -1.4139
  583MOL    H7747801   2.770   2.283   2.416 -0.0899  0.1472 -1.1455
  583MOL    C7847802   2.567   2.379   2.292  0.6445 -0.1399 -0.2996
  583MOL    O7947803   2.456   2.398   2.205 -0.1667 -0.1054 -0.0856
  583MOL    H8047804   2.660   2.397   2.237  0.9371  2.6055  1.0217
  583MOL    H8147805   2.553   2.464   2.358 -1.6423  1.9925 -3.4057
  583MOL    H8247806   2.380   2.396   2.260  0.0764 -2.0875  0.1908
  584MOL     C147807   5.172   1.506   7.281  0.0278 -0.3636  0.6479
  584MOL     O247808   5.114   1.580   7.390 -0.2973 -0.1246 -0.4834
  584MOL     H347809   5.207   1.408   7.314  2.6024  0.4494  0.4853
  584MOL     H447810   5.107   1.505   7.194  1.3018 -0.6053 -0.3176
  584MOL     H547811   5.259   1.555   7.238 -0.6013 -0.8596 -1.2686
  584MOL     C647812   5.099   1.716   7.349 -0.2478  1.0333  0.2588
  584MOL     O747813   5.221   1.778   7.319 -0.3558  0.2521  0.0727
  584MOL     H847814   5.038   1.779   7.415 -0.2517 -0.9441  2.2212
  584MOL     H947815   5.042   1.711   7.256  4.4574 -3.1058 -2.6802
  584MOL    C1047816   5.280   1.843   7.428  0.1117  0.2326 -0.6108
  584MOL    O1147817   5.210   1.958   7.446  0.1617 -0.2769  0.4579
  584MOL    H1247818   5.372   1.875   7.380  0.0942  0.9271 -0.1850
  584MOL    H1347819   5.299   1.790   7.521  2.3267  1.9633 -0.0373
  584MOL    C1447820   5.276   2.057   7.522 -0.0815 -0.3433  0.8797
  584MOL    O1547821   5.293   2.028   7.658  0.2329 -0.0241  0.5274
  584MOL    H1647822   5.218   2.149   7.514 -1.3439 -1.3136 -1.5403
  584MOL    H1747823   5.367   2.085   7.471 -1.6276  2.3520 -0.4808
  584MOL    C1847824   5.180   1.968   7.721  0.0885  0.3751 -0.0242
  584MOL    O1947825   5.206   1.916   0.067  0.0869  0.0030  0.1383
  584MOL    H2047826   5.121   1.884   7.684 -0.0825  0.5856 -0.2366
  584MOL    H2147827   5.100   2.042   7.721 -0.2425  0.0953  3.1653
  584MOL    C2247828   5.245   2.017   0.153  0.1281 -0.5536  0.3001
  584MOL    O2347829   5.145   2.101   0.205 -0.0458  0.5185 -0.2484
  584MOL    H2447830   5.321   2.080   0.107 -0.2390 -0.9754 -0.9213
  584MOL    H2547831   5.301   1.965   0.231  0.5474  2.3666  2.0144
  584MOL    C2647832   5.067   2.027   0.290 -0.3772  0.5829 -0.1214
  584MOL    O2747833   4.971   2.100   0.366  0.4782  0.0089  0.3769
  584MOL    H2847834   5.128   1.987   0.371  1.6542  2.7462 -0.5500
  584MOL    H2947835   5.008   1.950   0.240 -0.8018  1.0507 -0.3461
  584MOL    C3047836   5.028   2.202   0.439  0.0776 -1.0318  0.2589
  584MOL    O3147837   5.105   2.156   0.545 -0.0869  0.1881 -0.3284
  584MOL    H3247838   4.954   2.272   0.478  0.5475 -0.1539 -0.4101
  584MOL    H3347839   5.089   2.263   0.372  0.3164 -0.2830  1.1471
  584MOL    C3447840   5.038   2.104   0.655 -0.5942 -0.3092  0.5050
  584MOL    O3547841   5.099   2.130   0.772 -0.0642 -0.2038 -0.0400
  584MOL    H3647842   5.005   2.001   0.646 -0.8726 -0.1249 -0.6248
  584MOL    H3747843   4.945   2.159   0.673 -1.2907 -1.2597 -0.1209
  584MOL    C3847844   5.217   2.057   0.790 -0.2922 -0.2047 -0.3838
  584MOL    O3947845   5.257   2.068   0.929  0.1402  0.1635  0.1881
  584MOL    H4047846   5.288   2.073   0.710  0.2913 -0.8051  0.0149
  584MOL    H4147847   5.205   1.950   0.776 -1.0372 -0.1407 -0.2922
  584MOL    C4247848   5.287   2.200   0.964  0.6388  0.4733  0.4853
  584MOL    O4347849   5.421   2.227   0.937 -0.0002  0.3829  0.3520
  584MOL    H4447850   5.260   2.207   1.069  1.9131 -1.8888  0.9990
  584MOL    H4547851   5.229   2.269   0.901  3.2727  0.0677 -2.5042
  584MOL    C4647852   5.506   2.188   1.043  0.2420 -0.0190 -0.8056
  584MOL    O4747853   5.640   2.231   1.027  0.4181  0.1894 -0.7281
  584MOL    H4847854   5.498   2.080   1.054  1.4560  0.0609  1.0560
  584MOL    H4947855   5.477   2.231   1.139 -0.9117 -1.7209 -0.3724
  584MOL    C5047856   5.653   2.369   1.037 -0.4237  0.1193 -0.4951
  584MOL    O5147857   5.774   2.413   0.983  0.3188  0.3919 -0.4574
  584MOL    H5247858   5.665   2.371   1.145 -2.0192 -0.2375 -0.2873
  584MOL    H5347859   5.576   2.441   1.009  0.1205  0.5153 -0.9746
  584MOL    C5447860   5.793   2.386   0.849  0.8489  0.0396 -0.3167
  584MOL    O5547861   5.702   2.451   0.773  0.0321  0.1478 -0.3464
  584MOL    H5647862   5.782   2.278   0.841  0.1411  0.1639 -1.0351
  584MOL    H5747863   5.894   2.399   0.810  0.6135  0.5118 -0.7749
  584MOL    C5847864   5.700   2.400   0.639  0.0289  0.0530  0.0389
  584MOL    O5947865   5.813   2.434   0.566 -0.5618  0.4970 -0.1435
  584MOL    H6047866   5.614   2.441   0.585  0.2547  0.0662 -0.3113
  584MOL    H6147867   5.693   2.291   0.632  0.0078  0.0137  0.6580
  584MOL    C6247868   5.830   2.568   0.539 -0.2417 -0.0207 -0.7710
  584MOL    O6347869   5.738   2.613   0.444 -0.1032  0.3749 -0.1190
  584MOL    H6447870   5.931   2.590   0.506  0.7202 -0.1348  1.9393
  584MOL    H6547871   5.812   2.624   0.631 -3.6928 -2.2042 -0.0132
  584MOL    C6647872   5.776   2.576   0.313 -0.1056 -0.4000 -0.0383
  584MOL    O6747873   5.890   2.644   0.274 -0.1547 -0.3998 -0.5733
  584MOL    H6847874   5.698   2.598   0.240 -0.3487 -0.9747  0.0457
  584MOL    H6947875   5.797   2.469   0.316  0.5357 -0.2962 -0.7559
  584MOL    C7047876   5.867   2.781   0.225  0.4320  0.4944  0.2028
  584MOL    O7147877   5.786   2.787   0.113 -0.2830 -0.4626  0.0045
  584MOL    H7247878   5.968   2.816   0.204  0.4798 -0.6022 -1.5480
  584MOL    H7347879   5.832   2.839   0.310 -0.1327  0.5988 -0.0979
  584MOL    C7447880   5.854   2.778   7.778  0.8523  0.2061  0.2382
  584MOL    O7547881   5.947   2.880   7.753  0.1344  0.5242  0.5406
  584MOL    H7647882   5.773   2.780   7.705  0.7942  2.4215  0.3130
  584MOL    H7747883   5.907   2.683   7.784  2.1283  0.9102  0.4426
  584MOL    C7847884   5.889   3.003   7.744 -0.2885  0.2006  0.2588
  584MOL    O7947885   5.992   3.097   7.744 -0.7300 -0.6392 -0.0035
  584MOL    H8047886   5.831   3.006   0.052  0.5134 -0.5157  0.8024
  584MOL    H8147887   5.824   3.024   7.659 -0.6683 -1.0532  0.2276
  584MOL    H8247888   6.031   3.096   0.046  0.4710 -0.7510 -0.5473
  585MOL     C147889   3.520   7.393   4.842 -0.1446 -0.0483 -0.2467
  585MOL     O247890   3.590   7.332   4.953 -0.1269 -0.2705 -0.0285
  585MOL     H347891   3.539   7.500   4.835 -1.9505  0.1152 -3.5110
  585MOL     H447892   3.555   7.337   4.755  2.0095  2.3371 -0.9536
  585MOL     H547893   3.414   7.368   4.843  0.3055 -2.4161 -3.1060
  585MOL     C647894   3.536   7.353   5.079 -0.0402 -0.8549 -0.4659
  585MOL     O747895   3.620   7.303   5.180 -0.4008 -0.1598 -0.8328
  585MOL     H847896   3.435   7.312   5.076  0.0803 -1.0884 -5.0731
  585MOL     H947897   3.532   7.460   5.100 -0.9979 -1.4617  2.6752
  585MOL    C1047898   3.615   7.160   5.186 -0.1572  0.0368 -0.2569
  585MOL    O1147899   3.501   7.103   5.241  0.0984 -0.8240  0.5892
  585MOL    H1247900   3.709   7.134   5.235 -0.7548 -0.1200  0.8314
  585MOL    H1347901   3.633   7.116   5.088  0.3741  2.3291 -1.2314
  585MOL    C1447902   3.480   7.147   5.370 -0.1031 -0.2713 -1.0058
  585MOL    O1547903   3.563   7.079   5.459  0.1873 -0.1809 -0.1519
  585MOL    H1647904   3.376   7.130   5.400  0.0923  1.5639  0.8052
  585MOL    H1747905   3.499   7.254   5.378 -1.0732  0.0197 -2.4018
  585MOL    C1847906   3.503   6.967   5.521  0.5950 -0.1216  0.4384
  585MOL    O1947907   3.454   6.883   5.422 -0.0732  0.4858  0.3873
  585MOL    H2047908   3.414   6.999   5.575  1.9126  0.3016  2.3777
  585MOL    H2147909   3.566   6.920   5.597 -0.2567 -0.9566  0.6400
  585MOL    C2247910   3.548   6.805   5.358 -0.2786  1.0517  0.1777
  585MOL    O2347911   3.604   6.719   5.447 -0.0431  0.4174  0.4541
  585MOL    H2447912   3.628   6.875   5.333 -0.6690  1.5271  0.2451
  585MOL    H2547913   3.496   6.766   5.271 -1.0100 -1.0303  1.5138
  585MOL    C2647914   3.513   6.623   5.488  0.3486 -0.7876 -0.5080
  585MOL    O2747915   3.452   6.546   5.385 -0.4689 -0.0642  0.7989
  585MOL    H2847916   3.428   6.657   5.546  0.5067  0.2479 -0.8772
  585MOL    H2947917   3.562   6.553   5.555 -2.4498 -2.0363  0.3009
  585MOL    C3047918   3.555   6.471   5.329 -0.3475 -0.1929 -0.3581
  585MOL    O3147919   3.586   6.359   5.409  0.5007  0.1192  0.3647
  585MOL    H3247920   3.642   6.532   5.305 -2.6233  3.1712 -0.3894
  585MOL    H3347921   3.517   6.439   5.232  1.7572 -1.2399 -0.8849
  585MOL    C3447922   3.672   6.265   5.345 -0.4660  0.6712 -0.1048
  585MOL    O3547923   3.613   6.195   5.243 -0.0915 -0.4613 -0.2531
  585MOL    H3647924   3.724   6.209   5.423  0.9975  1.8339 -0.1984
  585MOL    H3747925   3.756   6.317   5.297 -0.3003  1.7560  1.3269
  585MOL    C3847926   3.509   6.099   5.293 -0.3136  0.0578  0.6537
  585MOL    O3947927   3.557   6.008   5.384 -0.2609  0.1832 -0.0019
  585MOL    H4047928   3.492   6.051   5.197  0.4002 -0.2047  0.6577
  585MOL    H4147929   3.435   6.166   5.338 -1.4575  1.0927 -2.6253
  585MOL    C4247930   3.652   5.924   5.328 -0.5941 -0.1444 -0.2058
  585MOL    O4347931   3.594   5.799   5.287 -0.3272  0.1665  0.2414
  585MOL    H4447932   3.730   5.898   5.401 -1.4725 -0.1265  0.7475
  585MOL    H4547933   3.703   5.973   5.245 -2.2063 -0.4378 -1.3711
  585MOL    C4647934   3.560   5.726   5.394  0.3604 -0.2451 -0.2401
  585MOL    O4747935   3.677   5.683   5.449  0.8137  0.3685  0.1284
  585MOL    H4847936   3.512   5.633   5.364  0.3051 -0.0775 -0.6817
  585MOL    H4947937   3.503   5.785   5.466  1.1333  1.1113 -0.7132
  585MOL    C5047938   3.664   5.623   5.574  0.8061  0.3222  0.2267
  585MOL    O5147939   3.648   5.720   5.669  0.1806  0.5158  0.1416
  585MOL    H5247940   3.751   5.560   5.591 -1.5762 -2.9673  0.9071
  585MOL    H5347941   3.581   5.551   5.575 -0.5892  1.9009  0.3956
  585MOL    C5447942   3.690   5.669   5.787 -0.3370 -0.2478  0.9236
  585MOL    O5547943   3.642   5.536   5.814 -0.7253  0.0055 -0.1517
  585MOL    H5647944   3.663   5.735   5.870 -1.6663  0.6307 -0.1963
  585MOL    H5747945   3.799   5.668   5.793 -0.3733 -0.9032  1.6326
  585MOL    C5847946   3.698   5.485   5.928 -0.5110 -0.3293  0.5269
  585MOL    O5947947   3.585   5.466   6.010 -0.5186  0.2174 -0.5166
  585MOL    H6047948   3.762   5.553   5.984 -0.9432  0.0745  0.5393
  585MOL    H6147949   3.743   5.392   5.895 -0.3869 -0.1409  0.1611
  585MOL    C6247950   3.614   5.399   6.123 -0.2804  0.2084  0.7120
  585MOL    O6347951   3.660   5.268   6.094 -0.5661 -0.1520 -0.0644
  585MOL    H6447952   3.529   5.393   6.190 -0.3800  2.1688  0.7860
  585MOL    H6547953   3.687   5.458   6.180  0.1170  0.5606 -0.1466
  585MOL    C6647954   3.716   5.198   6.204  1.0986 -0.0317  0.2072
  585MOL    O6747955   3.843   5.246   6.245  0.1356  0.1866  0.4257
  585MOL    H6847956   3.702   5.092   6.183 -0.9573  1.0483 -4.4898
  585MOL    H6947957   3.655   5.210   6.293  2.4057  0.3243  1.0768
  585MOL    C7047958   3.947   5.192   6.172 -0.8019  0.8711 -0.1257
  585MOL    O7147959   3.978   5.068   6.230  0.1538 -0.0474 -0.4741
  585MOL    H7247960   4.031   5.261   6.171 -0.3680  0.3457 -0.4390
  585MOL    H7347961   3.912   5.180   6.070  0.8291 -1.0948 -0.4988
  585MOL    C7447962   4.030   5.074   6.369  0.2714 -0.3526 -0.5363
  585MOL    O7547963   4.166   5.094   6.374  0.0213  0.0583 -0.0655
  585MOL    H7647964   4.022   4.974   6.412 -0.1245 -0.5134 -0.9861
  585MOL    H7747965   3.979   5.139   6.439 -1.9042  0.4970 -2.8424
  585MOL    C7847966   4.244   4.997   6.314 -0.7633  0.1837 -0.1881
  585MOL    O7947967   4.380   5.009   6.339 -0.3890 -0.4584  0.3893
  585MOL    H8047968   4.226   5.001   6.207  3.0854 -0.5159 -0.9438
  585MOL    H8147969   4.208   4.901   6.352 -0.0068  0.3488  0.9720
  585MOL    H8247970   4.411   4.949   6.405  0.2319 -0.6189 -0.0368
  586MOL     C147971   7.705   2.593   3.775 -0.4439 -0.7463 -0.4199
  586MOL     O247972   7.683   2.733   3.795 -0.7109  1.0458 -0.2921
  586MOL     H347973   7.613   2.536   3.786 -1.2128  0.3250 -1.3142
  586MOL     H447974   7.750   2.578   3.676 -0.3641  0.2552 -0.5392
  586MOL     H547975   7.777   2.559   3.850  0.7104  0.4765 -0.9652
  586MOL     C647976   7.634   2.766   3.923 -0.3789 -0.2002 -0.0367
  586MOL     O747977   7.733   2.751   4.018  0.2630  0.0388 -0.1439
  586MOL     H847978   7.546   2.710   3.953 -0.1188 -0.8311 -0.4380
  586MOL     H947979   7.611   2.872   3.921  2.9205  0.6243  1.9653
  586MOL    C1047980   7.687   2.761   4.147  0.4920 -0.0697 -0.0616
  586MOL    O1147981   7.654   2.894   4.180 -0.6545 -0.4922 -0.2738
  586MOL    H1247982   7.772   2.721   4.203  0.6163 -0.1080 -0.2800
  586MOL    H1347983   7.609   2.687   4.164  2.2612 -2.1328 -0.6833
  586MOL    C1447984   7.761   2.971   4.220 -0.2773  0.4689 -0.0593
  586MOL    O1547985   0.036   2.930   4.346 -0.1772 -0.3573 -0.1342
  586MOL    H1647986   7.717   3.070   4.222 -1.8988 -0.2520  1.2577
  586MOL    H1747987   0.050   2.962   4.139  2.8503  1.1009  2.5573
  586MOL    C1847988   7.737   2.943   4.457 -1.1271  0.1728 -0.3843
  586MOL    O1947989   7.732   3.071   4.498  0.3467  0.3101 -0.3157
  586MOL    H2047990   7.775   2.881   4.538 -1.6137 -0.0370 -0.3177
  586MOL    H2147991   7.637   2.910   4.431 -0.2826 -0.8364 -2.4574
  586MOL    C2247992   0.070   3.103   4.559  0.1063  0.0143  0.3455
  586MOL    O2347993   0.071   3.044   4.685  1.3249  0.9168  0.2115
  586MOL    H2447994   0.063   3.211   4.564  0.4578  0.0310  0.4891
  586MOL    H2547995   0.156   3.089   4.493  0.0381  1.5894 -0.0892
  586MOL    C2647996   0.182   3.074   4.771  0.1178  0.2260  0.2787
  586MOL    O2747997   0.199   3.216   4.794 -0.1467  0.4769 -0.6227
  586MOL    H2847998   0.273   3.032   4.728 -0.1823  1.1245 -1.2623
  586MOL    H2947999   0.162   3.036   4.871  0.1565 -1.3342 -0.2940
  586MOL    C3048000   0.325   3.271   4.755  0.2531 -0.0107  0.1734
  586MOL    O3148001   0.336   3.277   4.620 -0.1347 -0.0310 -0.1854
  586MOL    H3248002   0.399   3.207   4.802 -1.2046  0.0275  2.6272
  586MOL    H3348003   0.343   3.359   4.818  0.4828 -0.6195  0.9619
  586MOL    C3448004   0.274   3.382   4.559  0.0442  0.0496  0.0145
  586MOL    O3548005   0.350   3.497   4.591  0.1235 -0.0096 -0.1256
  586MOL    H3648006   0.171   3.387   4.593 -1.0118 -1.2585 -2.8289
  586MOL    H3748007   0.264   3.354   4.454 -3.7375  0.1847  0.2743
  586MOL    C3848008   0.287   3.613   4.552  0.4355 -0.2627  0.1691
  586MOL    O3948009   0.197   3.662   4.657 -0.6898  0.3409  0.1911
  586MOL    H4048010   0.233   3.588   4.460 -0.2810  1.1687  0.1973
  586MOL    H4148011   0.344   3.700   4.520  0.6658 -0.9417 -1.3113
  586MOL    C4248012   0.259   3.689   4.786  0.0990  0.4022  0.0080
  586MOL    O4348013   0.355   3.791   4.796 -0.5465 -0.3905 -0.2792
  586MOL    H4448014   0.307   3.597   4.819  0.7503  0.7812  0.1284
  586MOL    H4548015   0.187   3.700   4.867 -0.2543  0.4217 -0.3061
  586MOL    C4648016   0.309   3.917   4.765 -0.8173 -0.3943 -0.1204
  586MOL    O4748017   0.369   4.007   4.849 -0.0386  0.2265  0.3169
  586MOL    H4848018   0.202   3.928   4.782 -0.6454  1.7758 -0.2826
  586MOL    H4948019   0.333   3.942   4.662  5.3613  0.9574  1.4241
  586MOL    C5048020   0.353   4.142   4.810  0.6352 -0.3864  0.1319
  586MOL    O5148021   0.214   4.180   4.786 -0.2556 -0.0394  0.8767
  586MOL    H5248022   0.398   4.146   4.710 -1.0601  1.2379 -0.6078
  586MOL    H5348023   0.414   4.214   4.865  0.0159  0.5211 -0.3498
  586MOL    C5448024   0.150   4.204   4.909 -0.9730 -0.3802 -0.4198
  586MOL    O5548025   0.208   4.313   4.980  0.2795 -0.2086  0.6132
  586MOL    H5648026   0.154   4.115   4.971 -1.0938  0.7548  1.2543
  586MOL    H5748027   0.044   4.224   4.891 -0.5664  0.0922 -2.4134
  586MOL    C5848028   0.176   4.432   4.922  0.8185 -0.5656 -0.3336
  586MOL    O5948029   0.039   4.453   4.911 -0.5999  0.1342 -0.1737
  586MOL    H6048030   0.219   4.440   4.823 -2.6234  0.3719 -1.8185
  586MOL    H6148031   0.201   4.517   4.986  1.1860 -0.5083 -0.5533
  586MOL    C6248032   7.751   4.467   5.025  0.3629  0.0550 -0.3179
  586MOL    O6348033   7.763   4.590   5.075  0.4118 -0.4180 -0.4827
  586MOL    H6448034   7.783   4.397   5.101 -0.2777  2.8135  2.6076
  586MOL    H6548035   7.650   4.428   5.017  0.0742  0.5313  1.0038
  586MOL    C6648036   7.701   4.688   5.000  0.7901 -0.1247 -0.0341
  586MOL    O6748037   7.563   4.683   5.000  0.0921  0.3771  0.1789
  586MOL    H6848038   7.739   4.681   4.898 -1.1246 -0.1414 -0.7667
  586MOL    H6948039   7.728   4.782   5.047 -0.4440  0.0377  0.3852
  586MOL    C7048040   7.496   4.750   5.112  0.1506 -0.5259  1.1695
  586MOL    O7148041   7.540   4.877   5.140 -0.3606 -0.2626 -0.4703
  586MOL    H7248042   7.527   4.700   5.204  1.3573 -0.6344  0.7047
  586MOL    H7348043   7.389   4.747   5.090  0.3293 -0.2128  0.2480
  586MOL    C7448044   7.515   4.965   5.029 -0.3440  0.3626  0.0691
  586MOL    O7548045   7.382   5.004   5.018  0.6400  0.2383 -0.1473
  586MOL    H7648046   7.542   4.925   4.931 -0.3581  0.6786 -0.0646
  586MOL    H7748047   7.575   5.053   5.048  0.2437  0.3147 -1.4893
  586MOL    C7848048   7.341   5.068   5.132 -0.6700 -0.1124 -0.3018
  586MOL    O7948049   7.203   5.075   5.140 -0.0711 -0.9847 -0.1513
  586MOL    H8048050   7.385   5.168   5.139 -0.2219 -0.2602 -0.9032
  586MOL    H8148051   7.372   5.019   5.224 -1.5534 -2.1068 -1.0320
  586MOL    H8248052   7.170   4.995   5.103  0.3663 -0.5344 -1.5487
  587MOL     C148053   0.954   2.105   7.033 -0.3956  0.0490  0.5815
  587MOL     O248054   0.953   2.211   7.128 -0.1996 -0.0060 -0.3930
  587MOL     H348055   1.040   2.119   6.967 -0.6927  0.6980  0.3297
  587MOL     H448056   0.976   2.008   7.077 -0.6909  0.4948  1.7323
  587MOL     H548057   0.863   2.097   6.975  1.0101  2.0458 -2.0058
  587MOL     C648058   1.075   2.219   7.195 -0.3729  0.7055 -0.3848
  587MOL     O748059   1.164   2.291   7.116  0.5742 -0.1580 -0.9067
  587MOL     H848060   1.115   2.122   7.222 -0.8208 -0.0457 -2.3332
  587MOL     H948061   1.054   2.273   7.288  0.1613 -0.7161  0.5634
  587MOL    C1048062   1.155   2.428   7.126  0.3955  0.2297  0.6733
  587MOL    O1148063   1.199   2.465   7.259 -0.0608  0.9521  0.0604
  587MOL    H1248064   1.051   2.454   7.107  0.1237 -0.3419  1.3241
  587MOL    H1348065   1.212   2.471   7.044 -0.1542 -0.3233 -0.0083
  587MOL    C1448066   1.338   2.449   7.278 -0.2508 -0.3001  0.0938
  587MOL    O1548067   1.419   2.509   7.176  0.6472 -0.0398 -0.3881
  587MOL    H1648068   1.368   2.345   7.283  0.9568  0.1343  2.1315
  587MOL    H1748069   1.374   2.495   7.370  1.8307 -0.7750 -0.4558
  587MOL    C1848070   1.485   2.614   7.222 -0.0657 -0.5978 -0.0571
  587MOL    O1948071   1.591   2.575   7.308  0.4092  0.0282 -0.0124
  587MOL    H2048072   1.419   2.688   7.267 -0.4826 -1.0261  0.0282
  587MOL    H2148073   1.536   2.666   7.141  1.3788  0.0729  1.2471
  587MOL    C2248074   1.697   2.502   7.252 -0.6429 -0.8087 -0.6146
  587MOL    O2348075   1.775   2.583   7.171  0.2306  0.6814  0.1974
  587MOL    H2448076   1.666   2.418   7.190  0.8972 -1.9707  0.1588
  587MOL    H2548077   1.753   2.464   7.338 -0.9714 -1.4357 -0.6719
  587MOL    C2648078   1.844   2.681   7.243  0.3917 -0.1138  0.4314
  587MOL    O2748079   1.920   2.635   7.349 -0.2917  0.3327  0.5223
  587MOL    H2848080   1.771   2.757   7.272  0.4840  0.8230 -1.7543
  587MOL    H2948081   1.913   2.725   7.171  0.1455 -0.1323  0.1858
  587MOL    C3048082   2.031   2.560   7.310  0.0849  0.1137 -0.0047
  587MOL    O3148083   2.096   2.511   7.420  0.4809 -0.4947  0.1046
  587MOL    H3248084   2.097   2.631   7.261  1.8588 -0.5688  1.3548
  587MOL    H3348085   2.007   2.475   7.245  0.5710  0.2210 -0.3306
  587MOL    C3448086   2.020   2.409   7.481 -0.0022 -0.1862  0.1894
  587MOL    O3548087   2.046   2.287   7.416 -0.8189 -0.2227  0.5159
  587MOL    H3648088   1.914   2.432   7.493 -0.0154 -1.4377  2.8473
  587MOL    H3748089   2.062   2.388   7.579  3.4210 -0.6619 -1.3179
  587MOL    C3848090   2.184   2.251   7.414 -0.2359 -0.5680 -0.4598
  587MOL    O3948091   2.227   2.194   7.535 -0.1654  0.1023  0.6569
  587MOL    H4048092   2.251   2.331   7.383 -2.1604  1.5244  0.6161
  587MOL    H4148093   2.210   2.183   7.333 -0.7056 -3.5961  1.8277
  587MOL    C4248094   2.179   2.064   7.559  0.2166  0.3466 -0.2965
  587MOL    O4348095   2.242   1.973   7.476 -0.1371  0.2670 -0.3507
  587MOL    H4448096   2.071   2.059   7.547  0.6375 -3.7763 -3.3643
  587MOL    H4548097   2.193   2.041   7.665  0.2866 -0.0488 -0.3901
  587MOL    C4648098   2.380   1.958   7.511 -0.9123  0.4754 -0.8977
  587MOL    O4748099   2.397   1.876   7.629  0.1437  0.1292  1.0195
  587MOL    H4848100   2.427   2.057   7.516 -1.6838  0.7836  0.6071
  587MOL    H4948101   2.422   1.917   7.420 -0.3764  0.6533 -0.7333
  587MOL    C5048102   2.385   1.744   7.600 -0.4048 -1.1329 -1.1665
  587MOL    O5148103   2.506   1.700   7.550  0.2750  0.0305  0.0567
  587MOL    H5248104   2.302   1.724   7.533 -1.7778  0.9872 -0.1716
  587MOL    H5348105   2.365   1.704   7.699 -0.5990 -0.0532 -0.7554
  587MOL    C5448106   2.611   1.681   7.641 -0.9220 -0.3471  0.1157
  587MOL    O5548107   2.740   1.708   7.581 -0.4693 -0.1837 -0.0619
  587MOL    H5648108   2.603   1.576   7.670  1.2458 -0.4969  0.2498
  587MOL    H5748109   2.611   1.753   7.722  1.6110 -0.6818  0.4649
  587MOL    C5848110   2.779   1.618   7.490 -0.4835 -0.1747  0.0981
  587MOL    O5948111   2.805   1.500   7.560 -0.3280 -0.4381 -0.5381
  587MOL    H6048112   2.874   1.661   7.458 -0.3922  1.7549  2.8082
  587MOL    H6148113   2.713   1.612   7.403  0.8897 -3.8056 -0.7946
  587MOL    C6248114   2.870   1.404   7.486 -0.4982  0.5801  0.6738
  587MOL    O6348115   2.781   1.347   7.394 -0.7026  0.1998  0.1382
  587MOL    H6448116   2.902   1.333   7.562  1.1637  0.7985  0.1951
  587MOL    H6548117   2.954   1.436   7.425  1.9032 -1.6502  2.7233
  587MOL    C6648118   2.664   1.296   7.436  0.5029 -0.2732 -0.8091
  587MOL    O6748119   2.676   1.183   7.513 -0.6397 -0.1322 -0.0058
  587MOL    H6848120   2.593   1.283   7.354 -1.4822  2.3147  0.4217
  587MOL    H6948121   2.620   1.379   7.491  0.3966 -1.3209  0.7128
  587MOL    C7048122   2.694   1.067   7.440 -0.1485 -0.0724 -0.3170
  587MOL    O7148123   2.577   1.041   7.368 -0.7532 -0.2958 -0.0370
  587MOL    H7248124   2.705   0.978   7.501 -0.2578  0.2846  0.2301
  587MOL    H7348125   2.784   1.089   7.383  0.6767 -0.7724  0.6989
  587MOL    C7448126   2.589   0.938   7.271 -0.0205  1.0555 -0.0914
  587MOL    O7548127   2.675   0.965   7.163  0.1987 -0.5173  0.0944
  587MOL    H7648128   2.490   0.929   7.227  0.5493  4.0268 -2.2341
  587MOL    H7748129   2.612   0.844   7.321 -0.6124  0.3923 -1.0633
  587MOL    C7848130   2.646   1.073   7.081 -0.6512  0.6180  0.3501
  587MOL    O7948131   2.730   1.076   6.965 -0.4916 -0.0134 -0.2353
  587MOL    H8048132   2.658   1.162   7.143 -0.3164  0.6371  0.2572
  587MOL    H8148133   2.542   1.070   7.049 -1.0420 -2.7182  1.7501
  587MOL    H8248134   2.818   1.077   7.000 -1.0281 -0.3002  1.1389
  588MOL     C148135   0.858   7.633   0.102  0.6838 -0.6165  0.6021
  588MOL     O248136   0.949   7.640   0.211 -0.3990  0.1708 -0.1085
  588MOL     H348137   0.882   7.567   0.019  1.8565  1.0406 -0.4110
  588MOL     H448138   0.765   7.587   0.134  0.7359 -0.4619  0.9876
  588MOL     H548139   0.836   7.733   0.063 -2.0523 -0.4030  2.6043
  588MOL     C648140   1.073   7.698   0.171  0.0144  0.2722 -0.4951
  588MOL     O748141   1.061   0.046   0.138  0.4080 -0.2749 -0.2808
  588MOL     H848142   1.123   7.648   0.089 -0.2224  0.1905 -0.5897
  588MOL     H948143   1.138   7.685   0.258  0.1702 -0.9505 -0.7874
  588MOL    C1048144   1.059   0.129   0.243 -0.0015  0.1177  0.1914
  588MOL    O1148145   1.186   0.152   0.287 -0.0654  0.1146 -0.1280
  588MOL    H1248146   1.009   0.091   0.332  0.3283  1.4138  0.9535
  588MOL    H1348147   1.004   0.217   0.213  1.4147  1.2973  0.9673
  588MOL    C1448148   1.191   0.215   0.415  0.0764 -0.7603 -0.1150
  588MOL    O1548149   1.107   0.329   0.415  0.0537 -0.0020  0.1300
  588MOL    H1648150   1.297   0.228   0.433  0.7752 -0.2563 -4.1135
  588MOL    H1748151   1.159   0.146   0.493 -0.5111  2.5881  2.7284
  588MOL    C1848152   1.168   0.435   0.356  0.3526 -0.5123 -0.2081
  588MOL    O1948153   1.288   0.473   0.412 -0.2561 -0.3045 -0.9150
  588MOL    H2048154   1.090   0.510   0.362  0.4911 -0.1832 -2.1269
  588MOL    H2148155   1.202   0.422   0.253  3.8542  1.3593  0.6335
  588MOL    C2248156   1.276   0.524   0.544 -0.7282 -0.4678 -0.5577
  588MOL    O2348157   1.399   0.550   0.603 -0.6925  0.3270  0.3206
  588MOL    H2448158   1.211   0.464   0.608  0.3101 -0.5056  0.4929
  588MOL    H2548159   1.222   0.618   0.538 -0.1698 -0.2219 -1.8134
  588MOL    C2648160   1.476   0.428   0.625  0.2549  1.0457  0.6789
  588MOL    O2748161   1.390   0.342   0.693 -0.5555 -0.4124 -0.0555
  588MOL    H2848162   1.561   0.469   0.679  1.2011  1.8330 -1.3611
  588MOL    H2948163   1.508   0.380   0.533 -1.9732 -2.5176  1.6348
  588MOL    C3048164   1.433   0.312   0.822  0.2743  0.5276 -0.6344
  588MOL    O3148165   1.543   0.224   0.815  0.2336  0.2187 -0.1390
  588MOL    H3248166   1.351   0.264   0.875  0.6481  0.8137  0.2043
  588MOL    H3348167   1.464   0.389   0.893 -0.7238 -1.0574  1.5527
  588MOL    C3448168   1.501   0.096   0.792 -0.5962 -1.0107  0.6904
  588MOL    O3548169   1.468   0.033   0.911 -0.4636 -0.3174 -0.2133
  588MOL    H3648170   1.582   0.046   0.739 -1.1965 -2.1425  0.8260
  588MOL    H3748171   1.420   0.089   0.719 -0.4342  2.3201  0.1134
  588MOL    C3848172   1.402   7.698   0.890  0.0899  0.0260  0.1762
  588MOL    O3948173   1.275   7.726   0.839  0.2491  0.0964  0.0588
  588MOL    H4048174   1.387   7.652   0.988  4.5916 -0.5752  0.6930
  588MOL    H4148175   1.460   7.633   0.824 -0.5292 -0.2762 -0.0718
  588MOL    C4248176   1.189   0.006   0.928 -0.1192  0.3367 -0.5731
  588MOL    O4348177   1.084   7.706   0.956  0.6387  0.5182 -0.2570
  588MOL    H4448178   1.158   0.102   0.887 -0.9269 -0.8288 -2.8283
  588MOL    H4548179   1.246   0.022   1.019 -1.0409 -0.3968  0.1414
  588MOL    C4648180   0.979   7.717   0.876  0.7083 -0.1155  0.7496
  588MOL    O4748181   0.887   0.024   0.926 -0.3077 -0.5303 -0.1182
  588MOL    H4848182   0.934   7.618   0.869 -1.0159  0.8311 -2.3402
  588MOL    H4948183   1.006   7.755   0.778 -2.8322 -0.8592 -0.5937
  588MOL    C5048184   0.800   7.761   1.024 -0.3473 -0.1767 -0.3469
  588MOL    O5148185   0.723   7.662   0.967 -0.2523 -0.4864 -0.0585
  588MOL    H5248186   0.737   0.064   1.046  1.8008  0.7398  2.3849
  588MOL    H5348187   0.858   7.733   1.112 -0.6838 -2.8626 -0.9412
  588MOL    C5448188   0.620   7.606   1.045  0.6042 -0.5849 -0.0003
  588MOL    O5548189   0.504   7.687   1.048 -0.6264 -0.5004 -1.0047
  588MOL    H5648190   0.656   7.595   1.147  1.2327 -1.3440 -0.3018
  588MOL    H5748191   0.595   7.514   0.993 -1.3470 -0.6646  1.0284
  588MOL    C5848192   0.420   7.693   0.936  0.5027  0.0443  0.1380
  588MOL    O5948193   0.409   7.563   0.879 -0.4175  0.5249  0.4106
  588MOL    H6048194   0.467   7.757   0.861  2.3415 -2.3368 -0.8203
  588MOL    H6148195   0.323   7.721   0.977 -0.8723 -1.0837 -2.2089
  588MOL    C6248196   0.334   7.478   0.955  0.4466  0.1106 -0.0991
  588MOL    O6348197   0.199   7.506   0.960 -0.8007  0.0796 -0.2489
  588MOL    H6448198   0.374   7.454   1.053 -1.4568  2.1974  1.2314
  588MOL    H6548199   0.346   7.392   0.888  2.1882 -1.3810  2.0497
  588MOL    C6648200   0.136   7.474   1.080  0.0770 -0.6634 -0.5001
  588MOL    O6748201   0.144   7.342   1.121  0.6402 -0.1607  0.4575
  588MOL    H6848202   0.030   7.498   1.083  0.6849  2.1286  0.5128
  588MOL    H6948203   0.191   7.527   1.157 -1.3091 -2.0023  1.4746
  588MOL    C7048204   0.080   7.253   1.036  0.2731  0.1178  0.6603
  588MOL    O7148205   0.073   7.127   1.096  0.0757 -0.6280 -0.3199
  588MOL    H7248206   0.141   7.239   0.947  0.3235  0.7284  0.5968
  588MOL    H7348207   7.769   7.298   1.006  0.1975 -0.6250 -0.2379
  588MOL    C7448208   0.193   7.057   1.093  0.2503  0.5485 -0.0611
  588MOL    O7548209   0.216   6.994   0.970 -0.2967 -0.6406 -0.4592
  588MOL    H7648210   0.176   6.977   1.165  0.8282 -0.4241 -0.9877
  588MOL    H7748211   0.270   7.128   1.120 -0.8862  2.1273 -0.8635
  588MOL    C7848212   0.119   6.914   0.926  0.6368  0.3533 -0.2091
  588MOL    O7948213   0.142   6.874   0.791 -0.6101 -0.7223 -0.5272
  588MOL    H8048214   0.017   6.951   0.932  0.0803 -0.6106 -2.8620
  588MOL    H8148215   0.091   6.828   0.987  1.2328  0.3182  0.0154
  588MOL    H8248216   0.145   6.956   0.745  0.9008 -0.2775  0.3171
  589MOL     C148217   5.614   0.947   7.206 -0.4460 -0.0966  0.5697
  589MOL     O248218   5.565   1.032   7.100  0.1768  0.2990  0.0290
  589MOL     H348219   5.541   0.889   7.262  0.8140 -0.9018  1.4031
  589MOL     H448220   5.687   0.878   7.163 -0.5558 -0.3543  0.8007
  589MOL     H548221   5.668   1.016   7.270 -3.5439  0.1406  3.0358
  589MOL     C648222   5.538   0.957   6.984  0.0435 -0.1385  0.2570
  589MOL     O748223   5.652   0.899   6.922 -0.3836 -0.6664 -0.0425
  589MOL     H848224   5.509   1.032   6.910 -0.9823  0.4716  1.2625
  589MOL     H948225   5.454   0.889   6.997 -0.2365  0.4946  1.9250
  589MOL    C1048226   5.750   0.983   6.867  0.1549  0.5272  0.0362
  589MOL    O1148227   5.703   1.034   6.746 -0.4332  0.6820 -0.2846
  589MOL    H1248228   5.839   0.921   6.857 -0.0278  0.5110 -1.6261
  589MOL    H1348229   5.758   1.071   6.931  0.8977  2.0183 -2.0603
  589MOL    C1448230   5.664   0.940   6.655  0.0509 -0.3059  0.6569
  589MOL    O1548231   5.767   0.856   6.622 -0.3791  0.1248  0.2230
  589MOL    H1648232   5.628   0.991   6.565  1.3568  0.7580  0.7255
  589MOL    H1748233   5.576   0.889   6.694  0.2954 -0.5775  0.8577
  589MOL    C1848234   5.740   0.753   6.537 -0.0885  0.6593  0.1428
  589MOL    O1948235   5.703   0.780   6.398  0.4056  0.6842 -0.4616
  589MOL    H2048236   5.660   0.698   6.585  0.1186  0.4983  0.2997
  589MOL    H2148237   5.824   0.684   6.531  1.0953  1.9682  1.3886
  589MOL    C2248238   5.811   0.838   6.333 -0.2261  0.0314  1.0083
  589MOL    O2348239   5.901   0.742   6.286  0.1235 -0.4951  0.0190
  589MOL    H2448240   5.864   0.914   6.390  1.3172  0.0596 -0.4300
  589MOL    H2548241   5.763   0.876   6.243  1.0483 -1.1432 -0.1863
  589MOL    C2648242   5.986   0.787   6.181  0.3436 -0.2024 -0.7655
  589MOL    O2748243   6.044   0.910   6.214  0.0139 -0.5790  0.3746
  589MOL    H2848244   5.927   0.783   6.090  1.0460 -1.3950 -1.1891
  589MOL    H2948245   6.061   0.708   6.176  0.3473 -0.3610  1.3791
  589MOL    C3048246   6.140   0.941   6.125  0.6254  0.0707  0.0600
  589MOL    O3148247   6.089   0.994   6.005  0.5137  0.4103 -0.0872
  589MOL    H3248248   6.197   0.851   6.101 -1.6362 -0.8019 -2.2980
  589MOL    H3348249   6.205   1.011   6.178 -0.8469  2.4101 -1.1159
  589MOL    C3448250   6.182   1.025   5.901 -0.1010  0.3651  0.2563
  589MOL    O3548251   6.256   1.138   5.937  0.3572  0.2099  0.7759
  589MOL    H3648252   6.134   1.041   5.805 -2.3198 -2.8015  0.7756
  589MOL    H3748253   6.237   0.931   5.888 -0.3759  0.2286  0.0863
  589MOL    C3848254   6.189   1.256   5.943 -0.4317  0.2193 -0.2658
  589MOL    O3948255   6.262   1.373   5.952 -0.6325  0.1100 -0.2732
  589MOL    H4048256   6.143   1.251   6.042 -0.2343 -0.7581 -0.2243
  589MOL    H4148257   6.110   1.255   5.867 -1.5965  1.3065  0.8961
  589MOL    C4248258   6.334   1.407   5.839  0.5892 -0.0260  0.0801
  589MOL    O4348259   6.399   1.530   5.861 -0.2953 -0.0618 -0.1799
  589MOL    H4448260   6.270   1.424   5.753 -0.6417 -0.1922  0.9562
  589MOL    H4548261   6.396   1.323   5.808  1.8089  1.7431 -2.3858
  589MOL    C4648262   6.510   1.515   5.946  0.2677 -0.5121  0.4401
  589MOL    O4748263   6.595   1.631   5.941  0.1263 -0.4013 -0.1788
  589MOL    H4848264   6.559   1.420   5.925  0.9150  0.3003 -1.9673
  589MOL    H4948265   6.485   1.501   6.051  2.6395 -0.4448  1.0558
  589MOL    C5048266   6.691   1.617   5.840  1.2129  0.0276 -0.1061
  589MOL    O5148267   6.779   1.729   5.854 -0.1976 -0.7919  0.2582
  589MOL    H5248268   6.649   1.630   5.740 -1.8775  0.4172  1.2076
  589MOL    H5348269   6.752   1.527   5.852 -1.7170 -2.3007 -2.0792
  589MOL    C5448270   6.898   1.712   5.788 -0.2863 -0.5703  0.5632
  589MOL    O5548271   6.895   1.724   5.643 -0.2523 -0.9719 -0.2284
  589MOL    H5648272   6.948   1.619   5.813  2.3405  1.3578  2.9257
  589MOL    H5748273   6.952   1.796   5.832 -0.1213 -0.0305 -0.6668
  589MOL    C5848274   6.874   1.850   5.594 -0.4701 -0.4474 -0.0506
  589MOL    O5948275   6.995   1.922   5.602 -0.0502  0.6045  0.2331
  589MOL    H6048276   6.785   1.890   5.641 -0.8237 -0.5503 -0.6258
  589MOL    H6148277   6.850   1.836   5.488  1.1461  0.1034 -0.5162
  589MOL    C6248278   6.978   2.046   5.543  0.2255 -0.0540  0.2066
  589MOL    O6348279   6.883   2.124   5.606 -0.6220  0.1887 -0.3996
  589MOL    H6448280   6.946   2.040   5.439  3.0237 -0.2548 -0.6861
  589MOL    H6548281   7.071   2.103   5.539 -0.4408  0.9449 -2.2900
  589MOL    C6648282   6.926   2.183   5.725 -0.7687 -0.3430  0.3763
  589MOL    O6748283   6.832   2.264   5.785 -0.0029  0.1456  0.3094
  589MOL    H6848284   7.011   2.248   5.702  0.3671 -1.8938  0.0801
  589MOL    H6948285   6.967   2.107   5.792 -0.0074 -1.3426 -1.1810
  589MOL    C7048286   6.733   2.198   5.861  0.1035 -0.4175  0.9113
  589MOL    O7148287   6.779   2.162   5.996  0.5065  0.2277 -0.1094
  589MOL    H7248288   6.703   2.112   5.801  0.5359  0.5490 -0.7144
  589MOL    H7348289   6.640   2.252   5.880 -0.2176 -1.1399  1.4193
  589MOL    C7448290   6.745   2.255   6.095  0.0696 -0.6573  0.1305
  589MOL    O7548291   6.636   2.224   6.176  0.0117  0.3016 -0.1484
  589MOL    H7648292   6.719   2.349   6.046  0.3525 -0.1138  1.0132
  589MOL    H7748293   6.833   2.283   6.153  0.0638 -0.2856 -0.0422
  589MOL    C7848294   6.685   2.143   6.278 -0.9248  0.5886 -0.0678
  589MOL    O7948295   6.578   2.092   6.350  0.1528 -0.7425 -0.6104
  589MOL    H8048296   6.737   2.205   6.351 -1.8306  1.6502 -0.2961
  589MOL    H8148297   6.747   2.060   6.245 -1.4988 -0.5651  1.6947
  589MOL    H8248298   6.549   2.019   6.298 -1.4773  0.1338 -0.9569
  590MOL     C148299   5.950   0.087   3.306 -0.4119  0.1668 -0.1272
  590MOL     O248300   5.918   0.081   3.449 -0.5663  0.3324 -0.5505
  590MOL     H348301   5.887   0.013   3.257  0.4878 -0.1767 -0.7798
  590MOL     H448302   5.942   0.189   3.270 -0.5434  0.1250 -0.2156
  590MOL     H548303   6.052   0.053   3.287 -0.2022  0.6232  0.1692
  590MOL     C648304   6.010   0.149   3.522 -0.2996  0.7556 -0.3653
  590MOL     O748305   6.006   0.291   3.494 -0.0824  0.1537 -0.0316
  590MOL     H848306   6.109   0.109   3.497 -0.5172  0.0784 -0.1528
  590MOL     H948307   6.005   0.127   3.629  1.6599 -1.3593 -0.6581
  590MOL    C1048308   5.901   0.347   3.556  0.2026  0.8587  0.5025
  590MOL    O1148309   5.921   0.479   3.546 -0.2273  0.1145 -0.3366
  590MOL    H1248310   5.887   0.324   3.661  1.7453 -0.1133  0.4982
  590MOL    H1348311   5.811   0.320   3.500  1.5166  0.0310 -1.2686
  590MOL    C1448312   5.980   0.534   3.659  0.0984 -0.0123  0.1460
  590MOL    O1548313   5.879   0.564   3.756 -0.5534  0.0106 -0.6102
  590MOL    H1648314   6.048   0.616   3.636  0.5296 -0.4212 -0.0589
  590MOL    H1748315   6.047   0.456   3.695  0.4242  0.7587  1.2556
  590MOL    C1848316   5.784   0.648   3.708  0.1099 -0.1048 -0.4642
  590MOL    O1948317   5.826   0.775   3.667 -0.0879 -0.7839 -0.2261
  590MOL    H2048318   5.719   0.671   3.793  2.9559 -0.1358  1.7787
  590MOL    H2148319   5.722   0.599   3.633 -0.8850 -2.7163  1.9684
  590MOL    C2248320   5.728   0.843   3.591 -0.5700  0.3819 -0.3785
  590MOL    O2348321   5.766   0.973   3.552 -0.0395  0.0744  1.0687
  590MOL    H2448322   5.642   0.856   3.656  0.0996  0.6837  0.4629
  590MOL    H2548323   5.703   0.786   3.502  2.4396 -0.6548 -0.6222
  590MOL    C2648324   5.847   0.967   3.435  0.3679  0.6057 -0.3463
  590MOL    O2748325   5.766   0.956   3.323  0.2319  0.0822  0.0819
  590MOL    H2848326   5.920   0.886   3.433 -1.5444 -1.2173  1.2072
  590MOL    H2948327   5.915   1.051   3.422 -0.4821  0.9912 -2.5313
  590MOL    C3048328   5.702   1.077   3.297 -0.0487 -0.2708  0.6538
  590MOL    O3148329   5.790   1.181   3.259  0.7873  0.1313  0.2579
  590MOL    H3248330   5.642   1.111   3.382  0.4763  2.3412  0.0146
  590MOL    H3348331   5.631   1.065   3.215  0.7987 -0.8724  0.0014
  590MOL    C3448332   5.868   1.152   3.150  0.0745 -0.0053 -0.3730
  590MOL    O3548333   5.955   1.247   3.124  0.4419  0.2946  0.6614
  590MOL    H3648334   5.799   1.145   3.066 -0.9941  1.0901  0.3945
  590MOL    H3748335   5.920   1.057   3.160  0.4021  0.3385  1.3174
  590MOL    C3848336   6.039   1.222   3.021  0.9887  1.4093 -0.0214
  590MOL    O3948337   5.973   1.224   2.903  0.1042 -0.6295 -0.1064
  590MOL    H4048338   6.078   1.121   3.035  2.5836  2.0366  0.1364
  590MOL    H4148339   6.120   1.295   3.030 -0.6459  3.3184 -0.3036
  590MOL    C4248340   5.954   1.360   2.859 -0.0567  0.4596 -0.0916
  590MOL    O4348341   5.884   1.435   2.951 -0.5833  0.1389 -0.7990
  590MOL    H4448342   5.916   1.358   2.756  0.3641 -2.2498 -0.2304
  590MOL    H4548343   6.052   1.407   2.846  0.0466 -0.0767 -1.3478
  590MOL    C4648344   5.744   1.431   2.944  0.6814  0.0229  0.4385
  590MOL    O4748345   5.698   1.508   2.833 -0.2687  0.5116 -0.0326
  590MOL    H4848346   5.702   1.486   3.028 -1.2944  0.3277 -0.7275
  590MOL    H4948347   5.700   1.332   2.929  0.2588  0.5349 -2.0321
  590MOL    C5048348   5.563   1.532   2.836  0.4250  0.0242  1.1256
  590MOL    O5148349   5.496   1.416   2.806 -0.3459 -0.3569 -0.5997
  590MOL    H5248350   5.541   1.607   2.760  0.4365 -1.2966 -0.2040
  590MOL    H5348351   5.530   1.572   2.932  0.2332  0.9492  0.6794
  590MOL    C5448352   5.474   1.391   2.670 -0.1135 -0.4718 -0.1097
  590MOL    O5548353   5.350   1.426   2.622 -0.6338 -0.0300 -0.0932
  590MOL    H5648354   5.460   1.283   2.673 -1.6425 -0.2395  1.6729
  590MOL    H5748355   5.560   1.416   2.607  0.8294  2.2994  2.1601
  590MOL    C5848356   5.358   1.534   2.545 -0.6435 -0.4662  0.0245
  590MOL    O5948357   5.435   1.506   2.433  0.2370 -0.2285 -0.3347
  590MOL    H6048358   5.408   1.620   2.590  0.4822 -0.7870 -0.5834
  590MOL    H6148359   5.259   1.571   2.517 -0.5013 -0.2687 -0.2210
  590MOL    C6248360   5.450   1.620   2.352 -0.0021 -0.3017  0.0771
  590MOL    O6348361   5.319   1.672   2.315 -0.2362 -0.1527  0.5881
  590MOL    H6448362   5.501   1.598   2.258 -0.0521  0.8692 -0.2297
  590MOL    H6548363   5.504   1.696   2.408 -0.6191  1.9903 -2.3375
  590MOL    C6648364   5.313   1.786   2.233 -0.4520  0.3849 -0.0377
  590MOL    O6748365   5.332   1.898   2.307 -0.2798  0.4345 -0.0669
  590MOL    H6848366   5.222   1.780   2.172 -1.0932 -0.6192  1.0082
  590MOL    H6948367   5.397   1.779   2.164 -0.1524 -0.4300  0.4068
  590MOL    C7048368   5.210   1.950   2.345 -0.4198  0.3983 -0.3462
  590MOL    O7148369   5.219   2.085   2.375  0.4336  0.0333  0.2496
  590MOL    H7248370   5.166   1.890   2.425  3.7760 -0.7168  1.2543
  590MOL    H7348371   5.140   1.955   2.262  0.5570 -0.5962 -1.2380
  590MOL    C7448372   5.273   2.110   2.503  0.9342  0.0178 -0.6570
  590MOL    O7548373   5.180   2.058   2.600 -0.5506  0.0819  0.0153
  590MOL    H7648374   5.294   2.212   2.533  0.2148 -0.0849  0.2151
  590MOL    H7748375   5.364   2.050   2.511  0.4066 -0.7445 -0.2791
  590MOL    C7848376   5.061   2.138   2.601 -0.1922 -0.0203  0.4081
  590MOL    O7948377   4.973   2.084   2.691 -0.4661 -0.0056 -0.0040
  590MOL    H8048378   5.008   2.149   2.506 -1.2538 -0.3643  0.9492
  590MOL    H8148379   5.085   2.234   2.647  1.5696  0.1246 -0.7806
  590MOL    H8248380   4.888   2.086   2.651 -1.1724 -1.0334  1.4072
  591MOL     C148381   2.925   1.975   0.456  0.4403  0.1696 -0.6764
  591MOL     O248382   2.906   1.844   0.504 -0.7106  0.6682  0.0361
  591MOL     H348383   2.848   1.998   0.382  0.7305  3.2141 -0.0556
  591MOL     H448384   2.897   2.047   0.533  0.0972 -0.0547 -0.5885
  591MOL     H548385   3.026   1.995   0.421  0.8697  0.6026  0.7640
  591MOL     C648386   3.000   1.806   0.603 -0.0252 -0.3532  0.0618
  591MOL     O748387   2.976   1.868   0.728 -0.1207 -0.0796  0.3879
  591MOL     H848388   3.098   1.841   0.570 -1.6070  1.6455 -2.7569
  591MOL     H948389   3.004   1.699   0.620 -0.0046 -0.2101  0.9849
  591MOL    C1048390   2.859   1.829   0.789  0.2592  0.3554  0.2452
  591MOL    O1148391   2.808   1.926   0.873  0.7449 -0.2016  0.1767
  591MOL    H1248392   2.880   1.738   0.844  1.7719  1.3589  1.3742
  591MOL    H1348393   2.787   1.818   0.708  1.4739 -1.1822 -0.6480
  591MOL    C1448394   2.883   1.930   0.986 -0.1334  0.1149  0.1877
  591MOL    O1548395   2.863   1.820   1.067 -0.0316 -0.2029  0.3539
  591MOL    H1648396   2.867   2.026   1.036  2.5001  0.2842  0.7548
  591MOL    H1748397   2.991   1.926   0.971 -0.0673 -0.4209  0.7608
  591MOL    C1848398   2.733   1.812   1.114  0.6184 -0.2309  0.1769
  591MOL    O1948399   2.709   1.710   1.206  0.2052  0.1877  0.5502
  591MOL    H2048400   2.649   1.812   1.045  0.6328  1.6289  0.1403
  591MOL    H2148401   2.711   1.909   1.158  1.9542 -0.0233  0.4307
  591MOL    C2248402   2.666   1.595   1.142 -0.0607  0.1306 -0.8693
  591MOL    O2348403   2.711   1.474   1.200  0.1413  0.6060 -0.6126
  591MOL    H2448404   2.733   1.592   1.056  0.8586  1.0043 -0.1866
  591MOL    H2548405   2.559   1.600   1.124  0.1311 -2.2653 -3.0314
  591MOL    C2648406   2.641   1.455   1.319 -0.1332  0.0487  0.1408
  591MOL    O2748407   2.504   1.450   1.299  0.4226 -0.2470  0.0365
  591MOL    H2848408   2.661   1.544   1.378  1.8217 -1.5658  2.0209
  591MOL    H2948409   2.684   1.368   1.369  4.0088  1.7056 -0.3391
  591MOL    C3048410   2.466   1.334   1.234 -0.1766  0.1698  0.0381
  591MOL    O3148411   2.330   1.309   1.226 -0.1326 -0.1972  0.1155
  591MOL    H3248412   2.507   1.247   1.286  0.1658 -1.1569 -2.4019
  591MOL    H3348413   2.504   1.331   1.132  0.0248  1.0470  0.0849
  591MOL    C3448414   2.275   1.259   1.346  0.4442  0.8212  0.3089
  591MOL    O3548415   2.136   1.238   1.348 -0.1959 -0.6693  0.0573
  591MOL    H3648416   2.302   1.321   1.431  0.2092  1.8762 -0.3738
  591MOL    H3748417   2.313   1.160   1.371 -1.2313 -0.4083 -1.8168
  591MOL    C3848418   2.067   1.357   1.315  0.5181  0.4444  0.5841
  591MOL    O3948419   2.067   1.449   1.419  0.7000  0.1273  0.1645
  591MOL    H4048420   1.964   1.332   1.289  0.3388  0.4389  1.2789
  591MOL    H4148421   2.099   1.401   1.221 -1.8999  0.5815 -0.2018
  591MOL    C4248422   1.996   1.407   1.525  0.7846 -1.1013  0.3285
  591MOL    O4348423   1.868   1.439   1.509 -0.1029  0.4846 -0.4983
  591MOL    H4448424   2.039   1.467   1.605  0.0902 -0.6845  0.3998
  591MOL    H4548425   2.011   1.301   1.544 -1.7482 -1.6377 -0.3951
  591MOL    C4648426   1.805   1.496   1.617 -1.0186  0.0190 -0.8105
  591MOL    O4748427   1.866   1.618   1.661  0.2000  0.1318 -0.2888
  591MOL    H4848428   1.805   1.430   1.703  0.4376  0.2263 -0.6422
  591MOL    H4948429   1.701   1.514   1.589 -0.6563  3.2457 -0.3621
  591MOL    C5048430   1.872   1.724   1.567  0.5457 -0.3405 -0.3048
  591MOL    O5148431   1.740   1.777   1.539 -0.6833  0.0592  0.1017
  591MOL    H5248432   1.903   1.676   1.474 -0.0853 -2.6990  0.6482
  591MOL    H5348433   1.944   1.796   1.607  2.2584 -0.8864 -2.3388
  591MOL    C5448434   1.694   1.846   1.642  0.0581 -0.2282 -0.2115
  591MOL    O5548435   1.753   1.973   1.651  0.4542  0.1770  0.0117
  591MOL    H5648436   1.708   1.793   1.737 -1.5597  0.3504  0.3705
  591MOL    H5748437   1.590   1.856   1.613  0.4520  1.8985 -0.9816
  591MOL    C5848438   1.683   2.050   1.746 -0.4753 -0.9049 -0.3152
  591MOL    O5948439   1.556   2.086   1.700  0.0316 -0.0548 -0.5921
  591MOL    H6048440   1.754   2.126   1.780  1.0004 -3.2247  2.0163
  591MOL    H6148441   1.660   1.994   1.837 -3.9565 -1.4073 -1.4420
  591MOL    C6248442   1.565   2.178   1.596 -0.9701  0.5334  0.0793
  591MOL    O6348443   1.561   2.308   1.651  0.2876  0.2895  0.2602
  591MOL    H6448444   1.479   2.156   1.533  0.4502  2.0608 -2.5351
  591MOL    H6548445   1.643   2.174   1.519 -0.1864  2.3420  0.7472
  591MOL    C6648446   1.567   2.410   1.554 -0.0861 -0.2840 -0.0620
  591MOL    O6748447   1.683   2.401   1.478 -0.1178 -0.1296 -0.5633
  591MOL    H6848448   1.557   2.505   1.608 -3.0458 -1.7072  2.0475
  591MOL    H6948449   1.477   2.403   1.491 -0.2982  1.4365  0.0124
  591MOL    C7048450   1.787   2.431   1.550  0.2019 -0.2634 -0.6790
  591MOL    O7148451   1.793   2.572   1.575 -0.0785 -0.7904  0.2024
  591MOL    H7248452   1.873   2.397   1.492  0.2761 -1.9797  0.4040
  591MOL    H7348453   1.785   2.375   1.643 -0.3127  0.3303 -0.3275
  591MOL    C7448454   1.855   2.638   1.472  0.1121 -0.3535  0.3913
  591MOL    O7548455   1.881   2.773   1.502  0.2889 -0.7334 -0.4143
  591MOL    H7648456   1.791   2.641   1.384 -1.2376  0.4935  1.3696
  591MOL    H7748457   1.952   2.592   1.452 -0.4359 -1.8305  1.0906
  591MOL    C7848458   1.962   2.783   1.612 -0.0178 -0.3431 -0.3562
  591MOL    O7948459   1.991   2.918   1.634 -0.1837 -0.5565 -0.0059
  591MOL    H8048460   2.055   2.734   1.585  0.8657  1.4998 -0.7435
  591MOL    H8148461   1.920   2.742   1.704 -2.7136  1.1065 -0.8844
  591MOL    H8248462   1.917   2.972   1.657  0.7541 -0.2173  2.3675
  592MOL     C148463   6.223   1.471   4.555  0.1750  0.3765 -0.5382
  592MOL     O248464   6.158   1.351   4.603 -0.1980  0.0201  0.3353
  592MOL     H348465   6.281   1.524   4.630  1.2372 -0.9623 -0.3997
  592MOL     H448466   6.294   1.441   4.477 -0.6970 -0.5614 -0.9873
  592MOL     H548467   6.149   1.537   4.510  0.4566  0.0545 -1.4932
  592MOL     C648468   6.095   1.390   4.717  0.5829 -0.0835 -0.0067
  592MOL     O748469   5.996   1.480   4.695 -0.2261  0.6197  0.4184
  592MOL     H848470   6.169   1.428   4.788  0.4899  0.6253 -0.2856
  592MOL     H948471   6.046   1.299   4.750 -0.1545  0.2218 -0.2609
  592MOL    C1048472   5.927   1.524   4.813 -0.2551 -0.7776  0.2304
  592MOL    O1148473   5.997   1.614   4.890 -0.1189  0.0713 -0.6655
  592MOL    H1248474   5.895   1.449   4.886  0.2930 -0.6814  0.5774
  592MOL    H1348475   5.836   1.575   4.783  0.2153  0.1331  0.3371
  592MOL    C1448476   5.993   1.743   4.831 -0.1019 -0.5539 -0.4585
  592MOL    O1548477   5.868   1.799   4.847  0.0303 -0.6331 -0.2153
  592MOL    H1648478   6.010   1.738   4.723  0.1109  0.4096 -0.4688
  592MOL    H1748479   6.065   1.815   4.869  0.2666  0.3994 -2.8507
  592MOL    C1848480   5.853   1.855   4.969 -0.3774  0.4436  0.3360
  592MOL    O1948481   5.718   1.890   4.979 -0.1610 -0.0902 -0.4033
  592MOL    H2048482   5.922   1.938   4.983 -1.0472  0.8977  0.9829
  592MOL    H2148483   5.867   1.781   5.048  2.5965  0.8726  0.2743
  592MOL    C2248484   5.630   1.780   4.975  0.4369 -0.4905 -0.0193
  592MOL    O2348485   5.634   1.702   5.088  0.0571 -0.3658  0.0976
  592MOL    H2448486   5.646   1.724   4.883 -1.2652  0.2456 -0.7855
  592MOL    H2548487   5.531   1.822   4.952  1.0119  0.2034 -1.3084
  592MOL    C2648488   5.569   1.575   5.081 -0.0616 -0.5713  0.1024
  592MOL    O2748489   5.583   1.495   5.197  0.0413 -0.4785 -0.0448
  592MOL    H2848490   5.598   1.506   5.002 -2.1605 -0.7282 -0.5625
  592MOL    H2948491   5.462   1.597   5.075  0.6238  3.0049 -0.2475
  592MOL    C3048492   5.526   1.562   5.309  0.3841 -0.1180 -0.6108
  592MOL    O3148493   5.401   1.613   5.290  0.1251  0.2296  0.5513
  592MOL    H3248494   5.595   1.641   5.340  0.8447 -0.1989 -1.4040
  592MOL    H3348495   5.521   1.492   5.393  1.6953 -1.5543 -1.6927
  592MOL    C3448496   5.300   1.523   5.284 -0.2087  0.2956 -0.3978
  592MOL    O3548497   5.268   1.483   5.412  0.1863 -0.2611  0.1099
  592MOL    H3648498   5.335   1.433   5.234  1.4127 -1.8476  4.3190
  592MOL    H3748499   5.217   1.559   5.224 -0.1830  0.9483 -0.0464
  592MOL    C3848500   5.180   1.566   5.477 -0.7555 -0.1313  0.1987
  592MOL    O3948501   5.061   1.581   5.417  0.8526 -0.2110  0.1813
  592MOL    H4048502   5.226   1.665   5.482  1.2952 -1.0406  0.1184
  592MOL    H4148503   5.171   1.526   5.578 -3.0654  1.0191  0.4793
  592MOL    C4248504   4.977   1.470   5.439 -0.4762  0.2687 -0.2477
  592MOL    O4348505   4.923   1.476   5.560  0.1875 -0.3360  0.1425
  592MOL    H4448506   5.027   1.375   5.422  1.8151  1.0743  1.7138
  592MOL    H4548507   4.908   1.470   5.354 -0.2446  0.9366 -0.4452
  592MOL    C4648508   4.811   1.552   5.571  0.3675  0.5104  0.5165
  592MOL    O4748509   4.707   1.495   5.505  0.0312  0.6253 -0.0942
  592MOL    H4848510   4.821   1.654   5.533  0.3189  0.0211 -0.8348
  592MOL    H4948511   4.795   1.561   5.678 -1.8058 -0.5293  0.3026
  592MOL    C5048512   4.681   1.365   5.553  0.9381 -0.4590 -0.0183
  592MOL    O5148513   4.553   1.322   5.515  0.1217 -0.2558  0.9857
  592MOL    H5248514   4.670   1.378   5.661 -1.9762  0.5804 -0.3892
  592MOL    H5348515   4.762   1.300   5.521 -0.4631 -0.7424 -3.1259
  592MOL    C5448516   4.449   1.417   5.526 -0.2666 -0.4917 -0.7191
  592MOL    O5548517   4.324   1.364   5.556  0.1030 -0.0257  0.5308
  592MOL    H5648518   4.454   1.479   5.436  1.5763 -1.1435 -1.0745
  592MOL    H5748519   4.466   1.481   5.612 -0.3023 -2.3631  0.7193
  592MOL    C5848520   4.215   1.426   5.491  0.0347 -0.6855  0.6608
  592MOL    O5948521   4.222   1.561   5.517 -0.0547 -0.2091 -0.3746
  592MOL    H6048522   4.129   1.370   5.528 -0.5043 -0.4984 -0.2983
  592MOL    H6148523   4.218   1.408   5.384 -1.0871  1.1219  0.2945
  592MOL    C6248524   4.130   1.613   5.612  0.0446  0.5596  0.3189
  592MOL    O6348525   4.005   1.599   5.561 -0.1645 -0.3138 -0.1598
  592MOL    H6448526   4.156   1.718   5.624  3.1563  0.0346 -1.4442
  592MOL    H6548527   4.140   1.569   5.711 -2.7710 -0.0985  0.3669
  592MOL    C6648528   3.976   1.685   5.455  0.0394  0.1149  0.3628
  592MOL    O6748529   3.945   1.817   5.502 -0.0461 -0.2116 -0.4580
  592MOL    H6848530   3.893   1.645   5.396  2.2058 -0.5824 -2.3482
  592MOL    H6948531   4.066   1.697   5.394  0.3275 -0.3490  0.6877
  592MOL    C7048532   3.828   1.822   5.575  0.3895 -0.0965 -0.2033
  592MOL    O7148533   3.714   1.826   5.490 -0.5826  0.1749 -0.5791
  592MOL    H7248534   3.829   1.907   5.644  2.1835  0.7213 -1.1944
  592MOL    H7348535   3.814   1.731   5.633 -1.2081  0.8949  1.0053
  592MOL    C7448536   3.706   1.943   5.404  0.3391 -0.3410 -0.3833
  592MOL    O7548537   3.653   2.046   5.472  0.0482 -0.4464 -0.1155
  592MOL    H7648538   3.645   1.916   5.318 -1.8017  2.8253  0.0520
  592MOL    H7748539   3.806   1.970   5.371  1.3690 -1.1294  1.9597
  592MOL    C7848540   3.539   2.005   5.539  0.1955 -0.3888 -0.0423
  592MOL    O7948541   3.439   2.104   5.533  0.3501 -0.6704 -0.0338
  592MOL    H8048542   3.556   1.978   5.643  0.1649  1.6568  0.4986
  592MOL    H8148543   3.504   1.907   5.505 -0.1366 -0.7255  1.2486
  592MOL    H8248544   3.481   2.185   5.557  1.7810 -1.9918  2.1526
  593MOL     C148545   7.071   1.655   0.607 -0.5103 -0.4648 -0.2758
  593MOL     O248546   6.971   1.554   0.588 -0.2415  0.0348 -0.6781
  593MOL     H348547   7.046   1.751   0.561 -0.3829 -0.4449 -0.3026
  593MOL     H448548   7.083   1.672   0.714  1.6464  0.6122 -0.6824
  593MOL     H548549   7.163   1.610   0.570 -0.3937 -0.5416  0.1153
  593MOL     C648550   6.900   1.561   0.466  0.2819 -0.0805  0.6616
  593MOL     O748551   6.785   1.642   0.474  0.5262 -0.0699 -0.1116
  593MOL     H848552   6.862   1.461   0.447 -0.8094  0.3734  0.3713
  593MOL     H948553   6.959   1.609   0.388 -0.0415 -0.1023  0.4017
  593MOL    C1048554   6.690   1.587   0.558  0.5979 -0.0629 -0.3995
  593MOL    O1148555   6.621   1.482   0.498 -0.3865 -0.3222  0.2897
  593MOL    H1248556   6.622   1.672   0.570  1.1956  0.3329  0.2275
  593MOL    H1348557   6.726   1.569   0.660  0.8128 -1.0226 -0.6369
  593MOL    C1448558   6.554   1.526   0.386  0.1473 -0.1309 -0.5460
  593MOL    O1548559   6.481   1.423   0.333 -0.0250  0.0899 -0.4580
  593MOL    H1648560   6.625   1.567   0.314  1.2472 -0.3432  0.4058
  593MOL    H1748561   6.497   1.617   0.408  0.2756 -0.4011  1.0131
  593MOL    C1848562   6.365   1.403   0.412 -0.3556  0.5694 -0.4085
  593MOL    O1948563   6.279   1.508   0.417  0.5951  0.4990  0.1062
  593MOL    H2048564   6.398   1.381   0.514  0.6588  1.2573 -0.5811
  593MOL    H2148565   6.317   1.314   0.372  0.3811 -0.1731  0.3422
  593MOL    C2248566   6.172   1.488   0.508  0.1208  0.3621  0.1085
  593MOL    O2348567   6.216   1.482   0.643  0.2595  0.0639  0.2366
  593MOL    H2448568   6.121   1.394   0.486  1.5208 -0.6080  0.8978
  593MOL    H2548569   6.109   1.577   0.503  0.2681  0.3451 -2.2431
  593MOL    C2648570   6.296   1.595   0.679  0.0460 -0.0677 -0.9036
  593MOL    O2748571   6.316   1.590   0.816 -0.1327  0.1348  0.3467
  593MOL    H2848572   6.252   1.690   0.647 -0.1933 -0.3480 -1.4175
  593MOL    H2948573   6.393   1.583   0.630  1.8276 -2.7305  3.0347
  593MOL    C3048574   6.432   1.652   0.856  0.4544 -0.8769 -0.5088
  593MOL    O3148575   6.532   1.564   0.883  0.1493  0.7469  0.0477
  593MOL    H3248576   6.395   1.699   0.947  0.5211 -0.7355 -0.5529
  593MOL    H3348577   6.467   1.739   0.800 -0.9503  0.5639  0.7984
  593MOL    C3448578   6.501   1.490   0.992  0.0109 -0.1891 -0.0520
  593MOL    O3548579   6.537   1.565   1.101 -0.3968 -0.7211 -0.1826
  593MOL    H3648580   6.565   1.402   0.995 -1.2127 -1.1111 -0.5402
  593MOL    H3748581   6.401   1.448   0.991  0.0037 -0.2597  1.6252
  593MOL    C3848582   6.474   1.516   1.215 -0.1757  0.3652 -0.4811
  593MOL    O3948583   6.555   1.534   1.325  0.1737  0.4274 -0.3042
  593MOL    H4048584   6.464   1.407   1.208 -0.5242  0.3615  0.0752
  593MOL    H4148585   6.383   1.571   1.236  0.1092 -0.3924  3.1901
  593MOL    C4248586   6.488   1.529   1.455  0.5644 -0.2572 -0.3174
  593MOL    O4348587   6.581   1.547   1.547  0.5266  1.0095 -0.5567
  593MOL    H4448588   6.446   1.430   1.467  0.6893 -0.1680  0.9434
  593MOL    H4548589   6.418   1.611   1.470  1.9932  0.9572 -0.1604
  593MOL    C4648590   6.662   1.668   1.536  0.4608 -0.3568  0.3978
  593MOL    O4748591   6.697   1.714   1.663 -0.5309  0.1541  0.9224
  593MOL    H4848592   6.611   1.742   1.473  1.1847  0.0837  0.3231
  593MOL    H4948593   6.746   1.625   1.481  0.7220 -1.5307  1.6829
  593MOL    C5048594   6.582   1.766   1.723 -0.1808  0.6164 -0.1533
  593MOL    O5148595   6.555   1.894   1.682 -0.4749  0.0295  0.2072
  593MOL    H5248596   6.598   1.761   1.831 -1.0190  2.6344  0.0770
  593MOL    H5348597   6.491   1.708   1.705  1.1644 -0.4593 -3.7105
  593MOL    C5448598   6.646   1.983   1.746 -0.1841  0.5415  0.5651
  593MOL    O5548599   6.622   1.998   1.881  0.5666 -0.1091 -1.1098
  593MOL    H5648600   6.642   2.079   1.695 -0.6720 -0.5752 -1.5402
  593MOL    H5748601   6.749   1.952   1.729 -0.8632 -1.2460 -0.3868
  593MOL    C5848602   6.696   2.101   1.939 -0.3272 -0.6824  0.4301
  593MOL    O5948603   6.645   2.224   1.911 -0.1286 -0.7642  0.1842
  593MOL    H6048604   6.794   2.103   1.891 -0.4079 -1.4711  0.2105
  593MOL    H6148605   6.702   2.093   2.047  0.8966 -2.9603  0.2368
  593MOL    C6248606   6.520   2.241   1.968 -0.2965 -0.0210  0.7269
  593MOL    O6348607   6.515   2.238   2.104  0.2842  0.2125  0.4940
  593MOL    H6448608   6.444   2.178   1.922 -0.1369  0.2459  0.0915
  593MOL    H6548609   6.481   2.334   1.929  0.1219 -0.5185 -0.9213
  593MOL    C6648610   6.575   2.346   2.158 -0.7197 -0.1730 -0.8143
  593MOL    O6748611   6.520   2.461   2.124  0.3596  0.0193 -0.3948
  593MOL    H6848612   6.672   2.355   2.109 -1.0190 -1.4723 -1.6443
  593MOL    H6948613   6.588   2.331   2.265  1.5516  1.2323 -0.8509
  593MOL    C7048614   6.403   2.483   2.204  0.1683  0.1569 -0.0585
  593MOL    O7148615   6.434   2.526   2.331  0.2746  0.1859 -0.4512
  593MOL    H7248616   6.333   2.399   2.209  0.2171  0.1854  1.1274
  593MOL    H7348617   6.351   2.565   2.155  0.1242  0.9098  1.2389
  593MOL    C7448618   6.330   2.576   2.415 -0.0542 -0.3535  0.1973
  593MOL    O7548619   6.288   2.704   2.376 -0.4023  0.0758 -0.4177
  593MOL    H7648620   6.378   2.584   2.513 -3.9981 -0.4083  2.2539
  593MOL    H7748621   6.250   2.503   2.431  0.5457 -0.8864  0.8055
  593MOL    C7848622   6.392   2.792   2.375 -0.2965  1.2773  0.1667
  593MOL    O7948623   6.350   2.927   2.377 -0.5412  0.1502 -0.3000
  593MOL    H8048624   6.444   2.787   2.279  0.8133  0.0274  0.8212
  593MOL    H8148625   6.456   2.796   2.463 -0.3369 -0.6935  0.3004
  593MOL    H8248626   6.336   2.943   2.469 -1.1149 -0.6734 -0.2439
  594MOL     C148627   4.410   2.190   7.047  0.3585  0.3064 -0.2238
  594MOL     O248628   4.396   2.224   7.186  0.0183 -0.1813 -0.2614
  594MOL     H348629   4.470   2.265   6.994  0.5605 -0.0685 -0.5300
  594MOL     H448630   4.453   2.091   7.033 -1.4434 -0.4268 -0.7618
  594MOL     H548631   4.306   2.181   7.015 -0.2199  2.3921  0.9564
  594MOL     C648632   4.343   2.355   7.205  1.0377  0.2047  0.2229
  594MOL     O748633   4.437   2.454   7.169 -0.0191 -0.3195 -0.4921
  594MOL     H848634   4.312   2.363   7.309  0.8759 -2.3472  0.4196
  594MOL     H948635   4.245   2.351   7.158  1.8079  0.1539 -1.4298
  594MOL    C1048636   4.535   2.476   7.271  0.7226 -0.5345 -0.3434
  594MOL    O1148637   4.631   2.563   7.220 -0.2643  0.0999 -0.3125
  594MOL    H1248638   4.574   2.377   7.290 -0.7466 -0.9452  0.6375
  594MOL    H1348639   4.486   2.506   7.364 -2.3443 -1.3830 -1.6080
  594MOL    C1448640   4.577   2.690   7.185 -0.0845  0.4956  0.1438
  594MOL    O1548641   4.537   2.759   7.297  0.4306 -0.2288  0.0473
  594MOL    H1648642   4.486   2.681   7.127  0.0154  2.4691 -0.3583
  594MOL    H1748643   4.656   2.740   7.129  2.1071 -1.8665  1.0207
  594MOL    C1848644   4.639   2.820   7.364 -0.3509  0.1630 -0.5572
  594MOL    O1948645   4.596   2.854   7.487 -0.5880  0.2330 -0.1743
  594MOL    H2048646   4.668   2.903   7.299  0.2706 -0.7344 -1.4436
  594MOL    H2148647   4.717   2.744   7.375 -0.9431 -0.1280  1.8163
  594MOL    C2248648   4.524   2.968   7.490  0.1368  0.1040  0.4049
  594MOL    O2348649   4.614   3.074   7.502 -0.6882  0.0023 -0.0509
  594MOL    H2448650   4.456   2.972   7.575 -2.6049  1.3681 -1.7947
  594MOL    H2548651   4.456   2.971   7.405  0.5257  0.2657  0.0981
  594MOL    C2648652   4.557   3.195   7.472  0.3354  0.7909  0.0298
  594MOL    O2748653   4.549   3.212   7.330 -0.1286  0.7171 -0.1446
  594MOL    H2848654   4.628   3.264   7.518  0.5473  1.5918 -1.4447
  594MOL    H2948655   4.463   3.210   7.525  0.2559 -1.2172  0.4743
  594MOL    C3048656   4.666   3.210   7.257  0.7490 -0.3066 -0.0829
  594MOL    O3148657   4.640   3.224   7.120  0.2486 -0.1577  0.0530
  594MOL    H3248658   4.729   3.124   7.281 -0.1514 -0.2903  2.4643
  594MOL    H3348659   4.727   3.295   7.287  0.2378  0.2463 -0.6128
  594MOL    C3448660   4.564   3.113   7.071  0.1939 -0.3563  0.2279
  594MOL    O3548661   4.638   2.999   7.058 -0.2059 -0.0837  0.7765
  594MOL    H3648662   4.518   3.137   6.975 -0.8175  2.4048  1.3814
  594MOL    H3748663   4.487   3.076   7.139  0.3183  0.2010  0.6700
  594MOL    C3848664   4.736   3.008   6.950 -0.4165  0.4221 -0.6031
  594MOL    O3948665   4.680   2.974   6.829 -0.6826  0.5422  0.3403
  594MOL    H4048666   4.809   2.930   6.971  0.1739  1.1996  0.2724
  594MOL    H4148667   4.790   3.102   6.940 -1.2095  0.8683 -0.6829
  594MOL    C4248668   4.774   2.964   6.729  0.5606  0.4028 -0.1309
  594MOL    O4348669   4.845   2.842   6.747 -0.4947  0.0085 -0.0728
  594MOL    H4448670   4.831   3.057   6.724  0.2580  0.5214 -1.3640
  594MOL    H4548671   4.727   2.954   6.632  0.3066 -1.1636  0.1385
  594MOL    C4648672   4.770   2.731   6.696 -0.2306 -0.0484  0.1384
  594MOL    O4748673   4.763   2.732   6.559 -0.1723 -0.4199  0.1242
  594MOL    H4848674   4.671   2.728   6.741 -1.2740  0.1993 -2.0613
  594MOL    H4948675   4.815   2.640   6.737 -1.7209 -1.3071 -0.9362
  594MOL    C5048676   4.673   2.648   6.502  0.2082 -0.3591  0.0576
  594MOL    O5148677   4.719   2.513   6.507  0.7164 -0.1157 -0.7181
  594MOL    H5248678   4.667   2.680   6.398 -2.2916  1.1784  0.6400
  594MOL    H5348679   4.575   2.665   6.546 -0.6619  2.3246 -2.7890
  594MOL    C5448680   4.834   2.486   6.430  0.3683 -0.2548  0.4148
  594MOL    O5548681   4.823   2.523   6.295  0.0878  0.1782  0.0067
  594MOL    H5648682   4.872   2.387   6.457  0.7261  0.1633  1.4606
  594MOL    H5748683   4.906   2.557   6.470  0.5608 -0.0272 -0.3378
  594MOL    C5848684   4.770   2.422   6.215 -0.9168 -0.4361 -0.3286
  594MOL    O5948685   4.865   2.321   6.184 -0.0307 -0.6038 -0.5914
  594MOL    H6048686   4.747   2.474   6.123  1.1050  1.1244  0.0103
  594MOL    H6148687   4.678   2.380   6.256 -1.6789  0.6553 -0.8912
  594MOL    C6248688   4.935   2.351   6.070 -0.0461 -0.0988 -0.3324
  594MOL    O6348689   5.016   2.466   6.080 -0.1871 -0.0167  0.0845
  594MOL    H6448690   4.873   2.360   5.981 -1.3512  2.0246  0.7317
  594MOL    H6548691   5.001   2.267   6.049 -0.6373  0.0652 -3.0498
  594MOL    C6648692   5.124   2.443   6.165  0.0695  0.2810 -0.3206
  594MOL    O6748693   5.205   2.344   6.116 -0.0659  0.0338  0.4143
  594MOL    H6848694   5.091   2.403   6.262 -1.1694 -2.6439 -1.8772
  594MOL    H6948695   5.181   2.531   6.194 -1.6158  1.1364  0.4554
  594MOL    C7048696   5.284   2.390   6.006 -0.0081 -0.5041  0.2161
  594MOL    O7148697   5.382   2.300   5.980 -0.1153  0.6012 -0.3801
  594MOL    H7248698   5.328   2.487   6.027 -1.4496  0.2405 -0.1236
  594MOL    H7348699   5.224   2.413   5.917 -1.4964  1.4990  1.6916
  594MOL    C7448700   5.337   2.177   5.935  0.2537 -0.3203  0.0674
  594MOL    O7548701   5.272   2.181   5.809  0.0725  1.2307  0.2578
  594MOL    H7648702   5.258   2.142   6.001 -0.6923  1.0720 -0.2912
  594MOL    H7748703   5.418   2.105   5.939 -1.2042 -1.9441  0.9481
  594MOL    C7848704   5.351   2.223   5.701 -0.3100  0.9454 -0.2634
  594MOL    O7948705   5.273   2.207   5.585  0.3033  0.0056  0.1588
  594MOL    H8048706   5.444   2.165   5.696 -1.1139 -0.5502  1.7600
  594MOL    H8148707   5.364   2.330   5.713  0.3579  0.8596 -0.1915
  594MOL    H8248708   5.293   2.118   5.559 -1.3574 -0.7789  1.4901
  595MOL     C148709   7.642   1.771   3.574  0.7206 -0.0690 -0.4811
  595MOL     O248710   7.720   1.807   3.690 -0.0806 -0.0825 -0.5659
  595MOL     H348711   7.616   1.665   3.573  0.8247 -0.2529  4.6678
  595MOL     H448712   7.557   1.838   3.563  0.2621 -0.3613  1.1142
  595MOL     H548713   7.692   1.786   3.478  1.1440 -1.5846 -0.5111
  595MOL     C648714   7.642   1.813   3.803 -0.8078 -0.1648 -0.6241
  595MOL     O748715   7.596   1.692   3.842  0.3636 -0.1761 -0.6105
  595MOL     H848716   7.554   1.873   3.781 -0.7728  0.4993  0.9920
  595MOL     H948717   7.697   1.869   3.878  1.5709 -0.2280 -2.2903
  595MOL    C1048718   7.692   1.613   3.895 -0.1413  0.2812 -0.5439
  595MOL    O1148719   7.712   1.638   4.029 -0.4474 -0.3524  0.1751
  595MOL    H1248720   0.006   1.622   3.846  0.6927  1.1878  1.2521
  595MOL    H1348721   7.661   1.510   3.877 -0.9254  0.3690  0.2879
  595MOL    C1448722   7.608   1.573   4.106  0.6684 -0.3464  1.0097
  595MOL    O1548723   7.661   1.463   4.164  0.0226  0.3814 -0.4372
  595MOL    H1648724   7.520   1.543   4.048  0.5981  2.7417 -0.5805
  595MOL    H1748725   7.566   1.639   4.182 -1.1832 -1.2145  0.7624
  595MOL    C1848726   7.732   1.489   4.283 -0.0841  0.4118  0.2091
  595MOL    O1948727   7.652   1.472   4.396  0.2321 -0.3182  0.1752
  595MOL    H2048728   0.000   1.585   4.284 -1.3341  1.1026  2.2942
  595MOL    H2148729   0.039   1.429   4.290  0.1398  0.7818  0.5090
  595MOL    C2248730   7.624   1.338   4.416 -0.2326  0.5117  0.7672
  595MOL    O2348731   7.745   1.270   4.439  0.1800 -0.2462 -0.0587
  595MOL    H2448732   7.584   1.298   4.323 -0.4210  1.2791  0.5076
  595MOL    H2548733   7.540   1.323   4.483 -1.3222 -0.0046 -0.6975
  595MOL    C2648734   0.009   1.292   4.565  0.0589 -0.3015  0.0459
  595MOL    O2748735   7.719   1.213   4.656 -0.3637  0.1275  0.1301
  595MOL    H2848736   0.021   1.397   4.590  1.0930 -0.8684  2.0632
  595MOL    H2948737   0.110   1.249   4.564 -0.5762 -1.8977  1.3714
  595MOL    C3048738   7.777   1.217   4.785 -0.1577  0.1122  0.4190
  595MOL    O3148739   0.117   1.151   4.790 -0.3030 -0.1721  0.4132
  595MOL    H3248740   7.699   1.185   4.855  0.4121 -1.0601  0.5298
  595MOL    H3348741   0.013   1.322   4.803  1.1056  0.3986 -2.5029
  595MOL    C3448742   0.104   1.018   4.790  0.0950 -0.1015  0.1613
  595MOL    O3548743   0.231   0.950   4.804  0.4568 -1.0080  0.0409
  595MOL    H3648744   0.068   0.984   4.693  0.3842 -0.0737  0.0437
  595MOL    H3748745   0.045   0.986   4.876 -0.2259 -1.8806 -0.6949
  595MOL    C3848746   0.307   0.971   4.690 -1.4448 -0.2315  0.1248
  595MOL    O3948747   0.440   0.930   4.720  0.1513  0.0808 -0.2010
  595MOL    H4048748   0.313   1.076   4.662  2.0543 -0.6670 -1.0873
  595MOL    H4148749   0.283   0.913   4.601  0.6150  1.5426 -1.6370
  595MOL    C4248750   0.513   1.009   4.814 -0.7889 -0.0753  0.0677
  595MOL    O4348751   0.548   1.134   4.753 -0.0264  0.1478 -0.2983
  595MOL    H4448752   0.598   0.957   4.859 -0.5007  0.1754 -0.1919
  595MOL    H4548753   0.458   1.032   4.906 -0.1888  3.8356 -0.4509
  595MOL    C4648754   0.666   1.126   4.676  0.2577 -0.4950  0.0187
  595MOL    O4748755   0.770   1.133   4.766  0.3295  0.1769  0.0527
  595MOL    H4848756   0.660   1.210   4.608 -3.1849 -1.6010 -1.1121
  595MOL    H4948757   0.668   1.033   4.620 -1.5898 -0.7263  0.3034
  595MOL    C5048758   0.775   1.255   4.827 -0.3860  0.1764 -0.0454
  595MOL    O5148759   0.819   1.246   4.956 -0.1081  0.4541 -0.1300
  595MOL    H5248760   0.679   1.305   4.840 -1.4871 -1.8810  0.0208
  595MOL    H5348761   0.841   1.318   4.767  1.0605 -1.0442  0.2127
  595MOL    C5448762   0.836   1.367   5.025  0.7599  0.1596  0.6880
  595MOL    O5548763   0.921   1.454   4.955 -0.1667 -0.0411 -0.2631
  595MOL    H5648764   0.873   1.340   5.124  0.5257 -1.1633  0.4264
  595MOL    H5748765   0.738   1.414   5.034  0.3204 -0.5933 -0.1432
  595MOL    C5848766   1.007   1.525   5.041  0.3396  0.4199 -0.4748
  595MOL    O5948767   0.941   1.630   5.101  0.9673 -0.0515  0.6395
  595MOL    H6048768   1.098   1.547   4.986  0.6236  1.9221  0.5597
  595MOL    H6148769   1.048   1.468   5.124 -2.7639  1.0407  1.6137
  595MOL    C6248770   0.941   1.741   5.017  0.1032  0.2248 -0.4298
  595MOL    O6348771   0.870   1.726   4.901  0.7989 -0.0126  0.4704
  595MOL    H6448772   1.047   1.757   4.997  0.6995 -0.2155  2.1811
  595MOL    H6548773   0.922   1.830   5.078 -1.5947  0.1731 -0.8525
  595MOL    C6648774   0.728   1.712   4.921 -0.6775 -0.0565  0.2456
  595MOL    O6748775   0.654   1.719   4.802  0.7853 -0.0357 -0.7682
  595MOL    H6848776   0.698   1.807   4.965 -0.2411 -0.0628  0.5633
  595MOL    H6948777   0.693   1.631   4.985 -0.8269  0.1930  0.4787
  595MOL    C7048778   0.655   1.597   4.739  0.9414  0.6665  0.0775
  595MOL    O7148779   0.552   1.517   4.784 -0.2593  0.0607  0.5081
  595MOL    H7248780   0.746   1.540   4.756  0.5348  0.6687  2.3581
  595MOL    H7348781   0.655   1.615   4.631 -0.3445  2.3057  0.3137
  595MOL    C7448782   0.426   1.560   4.735  0.1734 -0.0304 -0.1579
  595MOL    O7548783   0.412   1.522   4.601 -0.0292  0.2940 -0.6742
  595MOL    H7648784   0.408   1.666   4.753  1.0836  0.5376 -2.4176
  595MOL    H7748785   0.347   1.503   4.783 -2.3443  1.2832 -2.6132
  595MOL    C7848786   0.415   1.386   4.581  0.1078 -0.3318 -0.0379
  595MOL    O7948787   0.324   1.362   4.479 -0.4436 -0.5492 -0.4875
  595MOL    H8048788   0.382   1.325   4.666  0.6968 -0.8281 -0.1623
  595MOL    H8148789   0.510   1.349   4.543  0.3066  1.0570 -0.9095
  595MOL    H8248790   0.340   1.431   4.416  0.4270 -0.1858  0.1100
  596MOL     C148791   7.511   6.098   5.737  0.0243 -1.0745  0.1834
  596MOL     O248792   7.476   6.242   5.765 -0.1167  0.2584 -0.1507
  596MOL     H348793   7.427   6.029   5.745  0.5364 -1.4771  2.4692
  596MOL     H448794   7.554   6.082   5.638  0.9371  2.3595 -0.0404
  596MOL     H548795   7.580   6.055   5.810  0.5916  0.2239  0.4259
  596MOL     C648796   7.549   6.298   5.871  0.6048 -0.9262  0.4145
  596MOL     O748797   7.520   6.234   5.992  0.6114 -0.5009  0.4282
  596MOL     H848798   7.517   6.401   5.886  0.9691 -0.8846  0.9168
  596MOL     H948799   7.653   6.291   5.841  0.6121  1.2640 -0.0979
  596MOL    C1048800   7.389   6.249   6.035  0.4709  0.4906 -0.5335
  596MOL    O1148801   7.347   6.382   6.054  0.1165  0.3319  0.4666
  596MOL    H1248802   7.375   6.190   6.126  0.1659  0.9016 -0.3125
  596MOL    H1348803   7.314   6.207   5.969 -2.1578  0.0329  2.6231
  596MOL    C1448804   7.365   6.419   6.182  0.1692  0.0633  0.1254
  596MOL    O1548805   7.275   6.349   6.268  0.1631  0.3615 -0.5256
  596MOL    H1648806   7.338   6.523   6.197 -0.5796  0.0230 -0.8783
  596MOL    H1748807   7.465   6.392   6.215  0.0859 -0.5822 -0.1441
  596MOL    C1848808   7.142   6.389   6.266  0.1402 -1.2871  0.2023
  596MOL    O1948809   7.117   6.522   6.320 -0.1490 -0.3746  0.3375
  596MOL    H2048810   7.070   6.316   6.302  0.6887 -2.0322 -0.2096
  596MOL    H2148811   7.123   6.407   6.160 -0.3816  1.8966  0.7636
  596MOL    C2248812   7.128   6.519   6.459  0.3079 -0.2335 -0.3681
  596MOL    O2348813   7.028   6.441   6.512 -0.0160  0.3872 -0.3508
  596MOL    H2448814   7.122   6.624   6.487  0.9894 -0.3385  0.1470
  596MOL    H2548815   7.231   6.490   6.477  0.1057  0.2308  1.5676
  596MOL    C2648816   6.904   6.492   6.489  0.9643 -0.5756 -0.2068
  596MOL    O2748817   6.856   6.554   6.606 -0.4557  0.1253  0.0965
  596MOL    H2848818   6.830   6.416   6.464  0.9921 -0.6837  0.0382
  596MOL    H2948819   6.901   6.562   6.405  2.4477 -0.0260  0.1916
  596MOL    C3048820   6.841   6.463   6.711 -0.6844  0.4135 -0.2424
  596MOL    O3148821   6.728   6.380   6.701 -0.0683 -0.0409  0.0784
  596MOL    H3248822   6.832   6.518   6.805 -0.4317  1.8775 -1.0566
  596MOL    H3348823   6.926   6.394   6.714 -1.2974 -0.3134  2.2883
  596MOL    C3448824   6.609   6.445   6.665  0.0351  0.1099 -0.2750
  596MOL    O3548825   6.505   6.441   6.758  0.3675  0.0406  0.0079
  596MOL    H3648826   6.588   6.399   6.569  0.5063  1.9222 -1.2767
  596MOL    H3748827   6.631   6.548   6.637 -0.7955 -0.5342 -3.4503
  596MOL    C3848828   6.537   6.510   6.875 -0.4210  0.2681 -0.2066
  596MOL    O3948829   6.444   6.611   6.898 -0.5079 -0.3087 -0.1978
  596MOL    H4048830   6.635   6.559   6.883  0.0788 -0.8587  0.8122
  596MOL    H4148831   6.540   6.441   6.959 -0.7005  0.3225 -0.1520
  596MOL    C4248832   6.311   6.563   6.918 -0.0106  0.4251 -0.7621
  596MOL    O4348833   6.295   6.522   7.051 -0.2252 -0.5301  1.2150
  596MOL    H4448834   6.290   6.483   6.848 -0.9554  0.9002 -1.0337
  596MOL    H4548835   6.240   6.645   6.904 -0.1814  0.3233 -0.4831
  596MOL    C4648836   6.308   6.618   7.150 -0.6494  1.5917  0.6111
  596MOL    O4748837   6.207   6.715   7.151  0.6089  0.0376 -0.6296
  596MOL    H4848838   6.403   6.669   7.138 -0.3898  0.2721 -3.9786
  596MOL    H4948839   6.313   6.572   7.249  1.9310 -1.4721 -0.8560
  596MOL    C5048840   6.079   6.658   7.186  0.5103 -0.2978  0.2526
  596MOL    O5148841   5.982   6.701   7.090 -0.2913  0.4951  0.0038
  596MOL    H5248842   6.043   6.696   7.282 -1.3924  0.6655 -0.8107
  596MOL    H5348843   6.072   6.550   7.196 -0.8190 -0.3650 -1.2839
  596MOL    C5448844   5.976   6.840   7.071 -0.0404  0.4149 -0.0623
  596MOL    O5548845   5.886   6.881   6.967 -0.0911  0.4318 -0.2162
  596MOL    H5648846   6.066   6.877   7.023  0.0412 -0.5844 -0.7016
  596MOL    H5748847   5.946   6.901   7.156 -2.5676  1.6650 -1.7809
  596MOL    C5848848   5.755   6.875   7.008 -0.1277  0.1023 -0.0401
  596MOL    O5948849   5.718   6.972   7.098 -0.5446  0.1389  0.2746
  596MOL    H6048850   5.738   6.777   7.053  1.4357 -0.6911 -1.1454
  596MOL    H6148851   5.693   6.878   6.918 -0.6024  1.6580  0.3102
  596MOL    C6248852   5.595   6.942   7.168  0.2984 -0.4158 -0.0205
  596MOL    O6348853   5.619   6.903   7.299 -0.7986  0.2349  0.1661
  596MOL    H6448854   5.538   6.862   7.122  0.6583 -0.3670 -0.5607
  596MOL    H6548855   5.533   7.031   7.168 -2.6328 -2.4168 -0.9993
  596MOL    C6648856   5.550   6.790   7.345  0.1724 -0.1374  0.0274
  596MOL    O6748857   5.604   6.680   7.283  0.0287  0.3830 -0.3795
  596MOL    H6848858   5.449   6.804   7.307 -0.2428 -1.5808  0.5704
  596MOL    H6948859   5.547   6.787   7.454 -1.8265  1.3400  0.0456
  596MOL    C7048860   5.735   6.656   7.318  0.3230 -0.2157 -0.4598
  596MOL    O7148861   5.733   6.571   7.432 -0.0823 -0.2673  0.2992
  596MOL    H7248862   5.789   6.746   7.347  1.8237 -1.1018 -0.4863
  596MOL    H7348863   5.790   6.613   7.234 -1.3103 -2.3728 -0.4685
  596MOL    C7448864   5.771   6.439   7.402  0.2108 -0.4288  0.2917
  596MOL    O7548865   5.902   6.432   7.356 -0.7703  0.4355 -0.0669
  596MOL    H7648866   5.703   6.411   7.322 -0.3833  0.9543  0.2943
  596MOL    H7748867   5.745   6.366   7.478  0.9345 -0.5157  0.4640
  596MOL    C7848868   5.989   6.431   7.461  0.5797 -0.2698 -0.1792
  596MOL    O7948869   6.117   6.439   7.425  0.4373 -0.0592  0.0223
  596MOL    H8048870   5.974   6.344   7.525 -2.4281  0.6656  0.4799
  596MOL    H8148871   5.976   6.517   7.526 -0.3832 -1.6325  1.4664
  596MOL    H8248872   6.136   6.382   7.352 -0.5826  0.4585 -0.6538
  597MOL     C148873   6.826   4.450   7.090 -0.2092  0.3018  0.1844
  597MOL     O248874   6.739   4.365   7.025  0.0576  0.0166  0.6804
  597MOL     H348875   6.924   4.463   7.044  0.3247  1.8544  1.6879
  597MOL     H448876   6.784   4.546   7.120  1.2056  0.2633  2.3938
  597MOL     H548877   6.849   4.400   7.185 -1.1060 -0.1467  0.1757
  597MOL     C648878   6.613   4.358   7.092 -0.3969 -0.5626  0.0552
  597MOL     O748879   6.539   4.474   7.079 -0.2347  0.4186 -0.0132
  597MOL     H848880   6.634   4.344   7.198  0.6124 -1.6138 -0.2735
  597MOL     H948881   6.560   4.268   7.062  0.1477 -0.2876 -1.8159
  597MOL    C1048882   6.499   4.499   6.948  0.2029  0.5649  0.5164
  597MOL    O1148883   6.390   4.418   6.915  0.0614  0.2037 -0.0312
  597MOL    H1248884   6.566   4.474   6.866 -3.6783 -1.0701 -2.3294
  597MOL    H1348885   6.470   4.603   6.930  0.0977  0.3409 -0.6558
  597MOL    C1448886   6.272   4.475   6.961 -0.4074  0.0725 -0.0611
  597MOL    O1548887   6.162   4.395   6.921 -0.0462 -0.4934 -0.1877
  597MOL    H1648888   6.253   4.577   6.928  1.3551  1.1308  2.0648
  597MOL    H1748889   6.283   4.493   7.068  1.8292 -0.5098 -0.1721
  597MOL    C1848890   6.139   4.289   7.015 -0.2960  0.5780  0.1487
  597MOL    O1948891   6.076   4.327   7.128 -0.3693  0.4451  0.1826
  597MOL    H2048892   6.233   4.241   7.042 -0.4091 -0.7895 -1.7404
  597MOL    H2148893   6.076   4.214   6.966 -1.4103  2.9148 -2.1479
  597MOL    C2248894   6.068   4.224   7.221  0.0492  0.0438  0.2453
  597MOL    O2348895   5.998   4.273   7.329  0.1309  0.3156 -0.7780
  597MOL    H2448896   6.166   4.207   7.265  0.7948 -0.8093 -1.7028
  597MOL    H2548897   6.028   4.135   7.171  1.1494  0.6517 -1.7656
  597MOL    C2648898   5.973   4.173   7.429 -0.1530 -0.0716  0.0729
  597MOL    O2748899   6.096   4.143   7.492 -0.4146 -0.6115 -0.1442
  597MOL    H2848900   5.928   4.092   7.373 -0.8233  0.1803  0.2402
  597MOL    H2948901   5.898   4.210   7.499 -3.3822 -4.3960 -0.9142
  597MOL    C3048902   6.092   4.041   7.581 -0.3884 -0.1822 -0.0082
  597MOL    O3148903   6.017   4.076   7.698  0.1004 -0.1875 -0.5875
  597MOL    H3248904   6.189   4.013   7.622 -0.2481  2.3253  1.4778
  597MOL    H3348905   6.062   3.945   7.537  0.9263 -0.6614  0.1337
  597MOL    C3448906   6.068   4.184   7.762 -0.1611 -0.1018  0.1726
  597MOL    O3548907   5.986   4.227   0.079  0.6334  0.5502  0.5161
  597MOL    H3648908   6.074   4.270   7.695  0.0893  0.5568  1.0249
  597MOL    H3748909   6.169   4.158   0.011 -0.1193 -0.0739  0.0638
  597MOL    C3848910   5.861   4.280   0.027 -0.5728  0.1346 -0.0444
  597MOL    O3948911   5.872   4.393   7.738 -0.2853  0.5529  0.4126
  597MOL    H4048912   5.792   4.300   0.109  0.2341 -1.2011  0.9881
  597MOL    H4148913   5.814   4.202   7.751  2.2078 -0.6830 -1.2362
  597MOL    C4248914   5.911   4.502   0.036  0.2736  0.3310  0.1671
  597MOL    O4348915   5.804   4.565   0.096 -0.1687 -0.2675 -0.0733
  597MOL    H4448916   5.948   4.580   7.754 -0.2306 -1.5952 -2.4702
  597MOL    H4548917   5.997   4.486   0.101 -1.2096 -1.2227  1.8417
  597MOL    C4648918   5.713   4.629   0.009 -0.0783  0.6582  0.1722
  597MOL    O4748919   5.762   4.744   7.736 -0.6496 -0.3127  0.4571
  597MOL    H4848920   5.624   4.656   0.065 -0.0779 -1.8939  1.4808
  597MOL    H4948921   5.686   4.546   7.729 -0.4512  0.0822  1.0692
  597MOL    C5048922   5.799   4.837   0.048 -0.0230  0.7589 -0.2679
  597MOL    O5148923   5.781   4.972   0.006  0.1304  0.1344 -0.1709
  597MOL    H5248924   5.904   4.823   0.075 -0.1055  0.5537 -0.0597
  597MOL    H5348925   5.756   4.823   0.146 -1.7073  1.1215 -0.9453
  597MOL    C5448926   5.649   5.003   0.004  0.4886 -0.2234 -0.3750
  597MOL    O5548927   5.588   5.021   0.127 -0.0809 -0.5165  0.5147
  597MOL    H5648928   5.601   4.929   7.724  1.7178 -1.5109  0.1874
  597MOL    H5748929   5.647   5.101   7.739  0.8192  0.0712  0.1939
  597MOL    C5848930   5.451   5.051   0.107 -0.3549 -0.0428 -0.1838
  597MOL    O5948931   5.433   5.163   0.030 -0.3621  0.1873  0.6652
  597MOL    H6048932   5.426   5.076   0.210 -0.0844 -1.2621  0.1868
  597MOL    H6148933   5.403   4.962   0.068  0.4243 -1.1793  1.4097
  597MOL    C6248934   5.300   5.184   0.002 -0.2919  1.2178  0.9556
  597MOL    O6348935   5.232   5.204   0.120  0.1758 -0.4536  0.1975
  597MOL    H6448936   5.261   5.092   7.743 -0.2314  1.5808  0.1139
  597MOL    H6548937   5.285   5.258   7.707 -1.9581 -0.4147 -0.3063
  597MOL    C6648938   5.265   5.320   0.186 -0.4108 -0.6431 -0.0067
  597MOL    O6748939   5.221   5.440   0.132 -0.5876 -0.1634 -0.8398
  597MOL    H6848940   5.369   5.337   0.214 -0.3728 -1.2577  0.2532
  597MOL    H6948941   5.221   5.305   0.285  0.0519 -3.3611 -0.1626
  597MOL    C7048942   5.076   5.448   0.130 -0.3890  0.4423  0.3103
  597MOL    O7148943   5.014   5.473   0.252  0.3924 -0.8271 -0.1226
  597MOL    H7248944   5.044   5.352   0.090  1.3791  0.1776 -0.5277
  597MOL    H7348945   5.038   5.523   0.061  0.8666 -0.9976 -2.0069
  597MOL    C7448946   5.018   5.609   0.301  0.0515  0.4413  0.6431
  597MOL    O7548947   4.937   5.700   0.233  1.1559  0.5251  0.6318
  597MOL    H7648948   5.124   5.631   0.307  0.2120 -0.7316  2.3199
  597MOL    H7748949   4.975   5.602   0.401 -1.6646 -0.4238 -0.1234
  597MOL    C7848950   4.802   5.658   0.221 -0.3724  0.3135 -1.3292
  597MOL    O7948951   4.723   5.757   0.152 -0.1761 -0.4632  0.1278
  597MOL    H8048952   4.765   5.648   0.324 -0.7020  0.3585 -1.4423
  597MOL    H8148953   4.788   5.564   0.167 -2.5167  1.1322 -2.2309
  597MOL    H8248954   4.680   5.814   0.214  1.2233  0.6607  0.1063
  598MOL     C148955   2.385   1.196   6.419  0.9996 -0.3027 -0.0562
  598MOL     O248956   2.467   1.262   6.330 -0.2362 -0.0300  0.0979
  598MOL     H348957   2.427   1.096   6.431 -1.2738 -1.7107 -3.1819
  598MOL     H448958   2.372   1.236   6.520  2.3038 -1.5151  0.6055
  598MOL     H548959   2.289   1.176   6.370  0.8501  0.8045 -0.2236
  598MOL     C648960   2.426   1.386   6.286 -0.4590 -0.5139  0.2621
  598MOL     O748961   2.510   1.486   6.306 -0.2564  0.2417 -0.2124
  598MOL     H848962   2.334   1.420   6.333 -1.2588 -1.7401 -0.3481
  598MOL     H948963   2.391   1.385   6.182 -1.2065 -1.3691  0.5123
  598MOL    C1048964   2.628   1.478   6.238  0.0980  0.2204  0.7923
  598MOL    O1148965   2.609   1.465   6.095 -0.1115 -0.8679 -0.0418
  598MOL    H1248966   2.688   1.402   6.288  0.9293  0.2525 -0.1424
  598MOL    H1348967   2.676   1.575   6.250  0.6208  0.0422  0.1477
  598MOL    C1448968   2.731   1.425   6.034  0.7894 -0.0263 -0.2990
  598MOL    O1548969   2.843   1.510   6.073  0.5084  0.0785  0.1217
  598MOL    H1648970   2.736   1.413   5.925  1.8289 -1.3619 -0.1153
  598MOL    H1748971   2.753   1.330   6.083 -0.0353 -0.0204  0.0865
  598MOL    C1848972   2.847   1.638   6.015  0.4500  0.1748 -0.2162
  598MOL    O1948973   2.851   1.630   5.876 -0.6500 -0.7068  0.1579
  598MOL    H2048974   2.916   1.712   6.055 -1.1604  2.2151 -1.1157
  598MOL    H2148975   2.752   1.687   6.037 -0.0264 -0.6550 -0.3673
  598MOL    C2248976   2.964   1.588   5.826  0.1764 -0.1966 -0.1881
  598MOL    O2348977   2.971   1.581   5.689  0.2798 -0.4229  0.4203
  598MOL    H2448978   2.992   1.490   5.864 -0.0357  0.1461  0.8827
  598MOL    H2548979   3.042   1.654   5.863 -0.1458 -0.6687  1.3998
  598MOL    C2648980   3.101   1.542   5.650 -0.0283  0.0634 -0.2322
  598MOL    O2748981   3.122   1.406   5.671  0.0555 -0.3011 -0.0452
  598MOL    H2848982   3.187   1.588   5.699 -0.3685  0.8662 -0.3827
  598MOL    H2948983   3.120   1.574   5.548  2.0980  0.7831  0.3625
  598MOL    C3048984   3.058   1.342   5.564 -0.6584 -0.1323 -0.2487
  598MOL    O3148985   3.123   1.357   5.441 -0.4668  0.1352 -0.5067
  598MOL    H3248986   2.957   1.381   5.552  0.2986  2.5221  0.0258
  598MOL    H3348987   3.059   1.236   5.590  0.2490  0.3447  1.7543
  598MOL    C3448988   3.250   1.296   5.435 -0.0758 -0.0334  0.0503
  598MOL    O3548989   3.304   1.320   5.307 -0.4994 -0.6661 -0.1890
  598MOL    H3648990   3.229   1.191   5.457 -0.7375 -0.3695 -2.0564
  598MOL    H3748991   3.313   1.330   5.517  0.8806  2.7255 -1.7485
  598MOL    C3848992   3.252   1.236   5.210 -0.1997  0.2682 -0.0132
  598MOL    O3948993   3.307   1.106   5.218 -0.1984  0.1039 -0.1630
  598MOL    H4048994   3.267   1.278   5.110  0.4938 -1.0931 -0.5013
  598MOL    H4148995   3.146   1.234   5.232 -0.1674 -1.1906  0.0674
  598MOL    C4248996   3.443   1.108   5.177  0.3121  0.5360  0.2707
  598MOL    O4348997   3.486   0.978   5.163 -0.1067 -0.3344 -0.2620
  598MOL    H4448998   3.494   1.161   5.258 -0.3349 -1.0981  1.7804
  598MOL    H4548999   3.460   1.164   5.085 -0.6477 -0.9152 -0.8008
  598MOL    C4649000   3.537   0.933   5.287 -0.0413  0.0944  0.7266
  598MOL    O4749001   3.559   0.791   5.299  0.2594  0.1528 -1.0390
  598MOL    H4849002   3.471   0.968   5.366 -0.4736  2.0649 -0.4660
  598MOL    H4949003   3.632   0.985   5.305 -0.5013  0.6542  1.5661
  598MOL    C5049004   3.435   0.727   5.295 -0.5538  0.1808 -0.0002
  598MOL    O5149005   3.357   0.765   5.405  0.0108 -0.3296  0.3258
  598MOL    H5249006   3.453   0.620   5.301  1.3821  0.4901  0.0711
  598MOL    H5349007   3.382   0.751   5.203 -0.0814 -0.3977 -0.4288
  598MOL    C5449008   3.398   0.710   5.531  0.4813  1.0607 -0.5848
  598MOL    O5549009   3.379   0.577   5.527 -0.2916  0.9740 -0.8226
  598MOL    H5649010   3.333   0.755   5.605 -1.3052 -0.6793 -1.0410
  598MOL    H5749011   3.502   0.739   5.545  0.1788  2.2207 -0.7363
  598MOL    C5849012   3.392   0.517   5.645  0.4257  0.2804 -0.3019
  598MOL    O5949013   3.516   0.539   5.699 -0.1919  0.1030  0.8092
  598MOL    H6049014   3.370   0.410   5.644 -1.9568  0.7459 -0.6995
  598MOL    H6149015   3.314   0.559   5.708 -1.2202 -3.4386  0.2826
  598MOL    C6249016   3.618   0.480   5.623 -0.3240  0.1888 -0.0549
  598MOL    O6349017   3.750   0.510   5.670  0.3453 -0.0465  0.1254
  598MOL    H6449018   3.604   0.505   5.518 -1.2775 -4.1341 -1.0365
  598MOL    H6549019   3.604   0.372   5.625 -2.9405  0.5266  1.8061
  598MOL    C6649020   3.768   0.471   5.804  0.0998  0.8951 -0.0441
  598MOL    O6749021   3.769   0.331   5.822  0.4184  0.6202  0.2017
  598MOL    H6849022   3.696   0.525   5.865 -0.2357 -0.1942  0.5512
  598MOL    H6949023   3.861   0.512   5.843 -0.1943  0.2854  1.3220
  598MOL    C7049024   3.865   0.267   5.741  0.4030  0.4621  0.3544
  598MOL    O7149025   3.909   0.153   5.809  0.4229 -0.1608  0.5200
  598MOL    H7249026   3.953   0.330   5.727  0.7184 -0.0889 -0.1645
  598MOL    H7349027   3.827   0.258   5.639 -1.6864  0.9715  1.0517
  598MOL    C7449028   3.990   0.171   5.925  0.2476 -0.2054  0.0222
  598MOL    O7549029   4.107   0.235   5.898  0.6251 -0.4695 -0.3753
  598MOL    H7649030   4.020   0.078   5.972  1.3776 -0.3702 -0.9990
  598MOL    H7749031   3.929   0.217   6.003  0.0711 -0.9375  0.3203
  598MOL    C7849032   4.187   0.246   6.011 -0.1414 -0.3468  0.3133
  598MOL    O7949033   4.313   0.302   5.977 -0.4520 -0.0689  0.2011
  598MOL    H8049034   4.223   0.149   6.045  0.4746  0.0881  0.9206
  598MOL    H8149035   4.147   0.304   6.094  2.9458  2.4639 -0.0471
  598MOL    H8249036   4.358   0.249   5.913 -2.0225  1.2016 -2.0372
  599MOL     C149037   0.498   1.136   6.935  0.0595 -0.8657  0.0683
  599MOL     O249038   0.354   1.121   6.936  0.1895  0.0586  0.0887
  599MOL     H349039   0.503   1.169   6.831  0.0190 -1.5769 -0.1619
  599MOL     H449040   0.547   1.212   6.995  2.2916 -2.2306  0.0196
  599MOL     H549041   0.552   1.042   6.931  0.9134 -0.3285 -1.6272
  599MOL     C649042   0.313   1.067   7.061  0.1100  1.4097 -0.6797
  599MOL     O749043   0.384   0.948   7.092  0.2519 -0.0585 -0.5115
  599MOL     H849044   0.205   1.061   7.073  0.2428 -1.4527 -0.5920
  599MOL     H949045   0.353   1.127   7.142  1.5556  0.5647 -0.7507
  599MOL    C1049046   0.304   0.837   7.067  0.2073 -0.3252 -0.2196
  599MOL    O1149047   0.216   0.809   7.168  0.8035 -0.3382  0.6489
  599MOL    H1249048   0.367   0.752   7.043  0.0558  0.1512 -2.4567
  599MOL    H1349049   0.246   0.853   6.975  0.2779  0.1184 -0.1899
  599MOL    C1449050   0.273   0.736   7.281  0.2665  0.0386  0.0902
  599MOL    O1549051   0.288   0.597   7.251 -0.1862 -0.3243 -0.0925
  599MOL    H1649052   0.194   0.762   7.351  0.2296  2.3021 -0.7477
  599MOL    H1749053   0.364   0.782   7.318  1.3187 -2.0207  0.1620
  599MOL    C1849054   0.371   0.521   7.332  0.2423  0.3302  0.1900
  599MOL    O1949055   0.500   0.554   7.295  0.1320  0.0775  0.1592
  599MOL    H2049056   0.358   0.413   7.325  0.7059  0.3619 -1.4454
  599MOL    H2149057   0.366   0.541   7.439 -1.8541  1.3498 -0.0781
  599MOL    C2249058   0.541   0.506   7.173 -0.1345  0.2055 -0.2218
  599MOL    O2349059   0.549   0.369   7.165  0.1516 -0.4360  0.8946
  599MOL    H2449060   0.641   0.543   7.149 -0.0922 -0.9998 -2.0762
  599MOL    H2549061   0.479   0.539   7.090  1.1692  0.5957 -1.0597
  599MOL    C2649062   0.649   0.313   7.247  0.4168  0.2754 -0.3176
  599MOL    O2749063   0.777   0.345   7.202  0.4382 -0.8170  0.5977
  599MOL    H2849064   0.619   0.208   7.252  1.4085 -0.0495 -0.9782
  599MOL    H2949065   0.645   0.353   7.348 -0.1707 -0.5173 -0.0187
  599MOL    C3049066   0.834   0.248   7.128  0.1930  0.3806  0.5357
  599MOL    O3149067   0.879   0.143   7.211  0.0147 -0.2651  0.0463
  599MOL    H3249068   0.923   0.294   7.085 -0.2472  0.2075 -0.5914
  599MOL    H3349069   0.761   0.220   7.051  0.9096  1.9822 -0.7634
  599MOL    C3449070   0.968   0.050   7.144  0.6652  0.6168  0.5143
  599MOL    O3549071   0.914   7.713   7.095 -0.5781 -0.1952 -0.3726
  599MOL    H3649072   1.044   0.023   7.217  0.5770 -0.4806  0.2072
  599MOL    H3749073   1.028   0.100   7.068  2.5493  0.8059  2.0857
  599MOL    C3849074   0.833   7.711   6.976 -0.4569  0.0275 -0.3639
  599MOL    O3949075   0.920   7.725   6.867  0.3752 -0.2555 -0.2677
  599MOL    H4049076   0.757   0.005   6.990 -0.9333 -0.1785 -1.7135
  599MOL    H4149077   0.776   7.619   6.984 -0.8862  0.4247  1.3046
  599MOL    C4249078   0.866   0.030   6.779 -0.2509  0.1858 -0.3641
  599MOL    O4349079   0.763   7.764   6.706  0.3906 -0.7119 -0.0191
  599MOL    H4449080   0.942   0.058   6.705 -0.3456  0.9478 -0.1776
  599MOL    H4549081   0.838   0.121   6.833  0.0096 -1.8515  3.3036
  599MOL    C4649082   0.785   7.642   6.644 -0.3867 -0.1724 -0.3568
  599MOL    O4749083   0.667   7.589   6.594  0.5620 -0.0995  0.3743
  599MOL    H4849084   0.817   7.568   6.717  1.5917  0.5992 -0.3962
  599MOL    H4949085   0.865   7.658   6.571  1.4676  2.2326  2.0499
  599MOL    C5049086   0.613   7.655   6.487 -0.5230 -0.1117 -0.1452
  599MOL    O5149087   0.687   7.643   6.371  0.0546 -0.0794  0.0033
  599MOL    H5249088   0.612   7.759   6.518 -0.6205 -0.1778  0.0798
  599MOL    H5349089   0.511   7.617   6.485 -1.0766  1.3255  0.0184
  599MOL    C5449090   0.679   7.514   6.326 -0.0208  0.5237 -0.4050
  599MOL    O5549091   0.550   7.478   6.289 -0.0343 -0.3695 -0.6463
  599MOL    H5649092   0.709   7.445   6.404  1.1735  1.3369 -0.1269
  599MOL    H5749093   0.760   7.513   6.253  0.1747  3.5966 -0.3087
  599MOL    C5849094   0.514   7.546   6.171  0.2644 -0.4595 -0.0209
  599MOL    O5949095   0.586   7.505   6.055  0.6421 -0.2206 -0.1090
  599MOL    H6049096   0.535   7.653   6.176  0.9341 -0.6475  1.8486
  599MOL    H6149097   0.408   7.546   6.146  0.4405  0.2927 -0.8187
  599MOL    C6249098   0.510   7.422   5.971  0.4838 -0.0541 -0.2747
  599MOL    O6349099   0.400   7.484   5.917  0.1051 -0.1444  0.4479
  599MOL    H6449100   0.482   7.338   6.034  2.3016  0.2234  0.9684
  599MOL    H6549101   0.575   7.392   5.889  1.6080  1.7841 -0.0914
  599MOL    C6649102   0.429   7.575   5.816  0.1052  0.3172 -0.2283
  599MOL    O6749103   0.502   7.682   5.863  0.2983  0.1572  0.8296
  599MOL    H6849104   0.342   7.616   5.766 -0.1906  1.3523  1.1008
  599MOL    H6949105   0.489   7.520   5.743 -0.6341 -2.2470  1.0152
  599MOL    C7049106   0.426   0.000   5.932  0.1472 -0.0155 -0.0981
  599MOL    O7149107   0.369   0.102   5.853  0.1628  0.2240  0.3716
  599MOL    H7249108   0.476   0.045   6.018 -0.0249 -1.3215  0.6936
  599MOL    H7349109   0.343   7.734   5.981 -0.4154  1.3538  0.3391
  599MOL    C7449110   0.463   0.190   5.798 -0.3515 -0.1457 -0.2621
  599MOL    O7549111   0.495   0.293   5.892 -0.4960  0.7209  0.2200
  599MOL    H7649112   0.418   0.241   5.714 -0.6977 -1.6723 -1.0233
  599MOL    H7749113   0.557   0.136   5.783 -1.1367 -1.4310 -0.6836
  599MOL    C7849114   0.376   0.363   5.934 -0.4586 -0.0973  0.5175
  599MOL    O7949115   0.393   0.481   6.008 -0.0650 -0.2507 -0.5474
  599MOL    H8049116   0.338   0.293   6.009  0.2492  0.3112  1.2691
  599MOL    H8149117   0.306   0.391   5.856 -0.2218 -0.0149  0.3346
  599MOL    H8249118   0.416   0.546   5.944  0.7851 -1.5418 -1.5830
  600MOL     C149119   1.461   5.164   1.646 -0.4169  0.1531  0.0496
  600MOL     O249120   1.375   5.060   1.605  0.3147  0.2911 -0.0389
  600MOL     H349121   1.406   5.242   1.699  1.2906  2.0396 -0.8730
  600MOL     H449122   1.547   5.129   1.705 -0.5745  0.5654  0.5254
  600MOL     H549123   1.501   5.215   1.559 -1.5115  1.2761  0.1923
  600MOL     C649124   1.259   5.111   1.545 -0.8278  0.0279  0.1510
  600MOL     O749125   1.178   5.164   1.641 -0.4141  0.7199  0.2830
  600MOL     H849126   1.208   5.039   1.482 -4.2077  0.8888  1.8000
  600MOL     H949127   1.278   5.192   1.475  0.8266 -0.7220 -0.3027
  600MOL    C1049128   1.118   5.077   1.723  0.6119  0.2483 -0.1151
  600MOL    O1149129   1.022   4.995   1.659 -0.3794  0.1949 -0.2038
  600MOL    H1249130   1.062   5.138   1.794  1.5307 -0.4436  1.2218
  600MOL    H1349131   1.185   5.013   1.780  3.7924  1.9492 -1.8348
  600MOL    C1449132   0.919   5.071   1.611  0.3163 -0.2267  0.5422
  600MOL    O1549133   0.831   5.114   1.713 -0.8017 -0.1307  0.1449
  600MOL    H1649134   0.864   5.007   1.541  2.2626 -1.7640  0.3978
  600MOL    H1749135   0.943   5.165   1.560 -0.6952  1.0589  2.3768
  600MOL    C1849136   0.748   5.017   1.771  0.5392 -0.0391 -0.8996
  600MOL    O1949137   0.674   4.952   1.683 -0.1395 -0.0541  0.1742
  600MOL    H2049138   0.685   5.059   1.849  1.3958  3.1790 -1.8539
  600MOL    H2149139   0.802   4.942   1.829  2.3463  0.5208 -1.8087
  600MOL    C2249140   0.553   5.023   1.643 -0.0030 -0.4732 -0.1069
  600MOL    O2349141   0.469   5.046   1.750 -0.3933 -0.0805 -0.2048
  600MOL    H2449142   0.493   4.969   1.570  1.0479  0.3896 -1.6516
  600MOL    H2549143   0.570   5.119   1.593  0.8420 -0.5824 -0.0206
  600MOL    C2649144   0.410   4.933   1.797 -0.8301 -0.1738 -0.1256
  600MOL    O2749145   0.296   4.890   1.736  0.8216  0.2385  0.1275
  600MOL    H2849146   0.377   4.949   1.899 -2.8776  1.3759 -0.9835
  600MOL    H2949147   0.479   4.849   1.800 -0.6393  0.0444  2.7854
  600MOL    C3049148   0.187   4.970   1.764  0.6278  0.0620 -0.7275
  600MOL    O3149149   0.131   4.946   1.892 -0.3065 -0.3587 -0.4923
  600MOL    H3249150   0.100   4.963   1.700  0.3158  1.0459 -0.4223
  600MOL    H3349151   0.217   5.075   1.756  1.0762  0.0949  1.0637
  600MOL    C3449152   0.051   4.835   1.881 -0.7428  0.3335  0.1757
  600MOL    O3549153   7.773   4.816   1.995  0.1455  0.2923 -0.4843
  600MOL    H3649154   0.092   4.741   1.844 -1.0519  0.1491  0.3000
  600MOL    H3749155   7.748   4.847   1.816  0.8725  1.5157 -1.8598
  600MOL    C3849156   0.067   4.742   2.082 -0.0813  0.0615 -0.2382
  600MOL    O3949157   0.067   4.606   2.044  0.2599 -0.4508 -0.0019
  600MOL    H4049158   0.039   4.753   2.187  1.2453  2.9149 -0.1363
  600MOL    H4149159   0.169   4.779   2.077  0.7708 -1.9620  1.3253
  600MOL    C4249160   7.726   4.549   2.054 -0.1939 -0.1442  0.4285
  600MOL    O4349161   7.689   4.541   2.185 -0.7051  0.0501  0.1795
  600MOL    H4449162   7.732   4.449   2.011  0.5292  0.4045 -0.7820
  600MOL    H4549163   7.641   4.591   2.000  0.7990  2.6394  0.9069
  600MOL    C4649164   7.742   4.433   2.254  0.1039 -0.3300 -0.2477
  600MOL    O4749165   7.651   4.328   2.244 -0.7179 -0.0941 -0.3694
  600MOL    H4849166   7.738   4.457   2.360  1.7358 -3.1549  0.5134
  600MOL    H4949167   0.057   4.406   2.217  1.2696  2.2238  0.8361
  600MOL    C5049168   7.655   4.244   2.357 -0.2796 -0.6668  0.3443
  600MOL    O5149169   7.761   4.161   2.345  0.1878  0.2481  0.1835
  600MOL    H5249170   7.562   4.187   2.360  0.5329 -2.0645 -0.3722
  600MOL    H5349171   7.652   4.303   2.448 -2.5866 -1.5132  0.8547
  600MOL    C5449172   7.732   4.042   2.288  0.0729  0.0574  0.0491
  600MOL    O5549173   7.703   3.944   2.388 -0.3823 -0.2669 -0.3606
  600MOL    H5649174   0.039   4.007   2.239 -0.5050 -0.6361 -0.5184
  600MOL    H5749175   7.653   4.043   2.213 -0.9057  1.6409  1.0619
  600MOL    C5849176   0.027   3.926   2.479  0.2610  0.5496  0.4336
  600MOL    O5949177   7.771   3.836   2.581  0.0877  0.1345 -0.0662
  600MOL    H6049178   0.039   4.016   2.540 -0.6519  0.5782  0.5767
  600MOL    H6149179   0.120   3.910   2.426  0.0483 -2.1387  0.7990
  600MOL    C6249180   7.735   3.705   2.546 -0.3129 -0.1645  0.2928
  600MOL    O6349181   7.691   3.635   2.663 -0.6475 -0.0024  0.0463
  600MOL    H6449182   0.022   3.646   2.489  1.4052 -0.3215  2.5195
  600MOL    H6549183   7.651   3.710   2.476 -1.8192 -0.5279  2.0206
  600MOL    C6649184   7.575   3.685   2.704  0.9727 -0.1567  0.4081
  600MOL    O6749185   7.493   3.586   2.721 -0.4166  0.0185 -0.5255
  600MOL    H6849186   7.530   3.756   2.635 -3.2796 -2.0514  1.0606
  600MOL    H6949187   7.592   3.745   2.794  0.3914  0.3906  0.1561
  600MOL    C7049188   7.363   3.626   2.763 -0.1824  0.3374 -0.2890
  600MOL    O7149189   7.374   3.685   2.890  0.6701 -0.0088 -0.3154
  600MOL    H7249190   7.304   3.535   2.771 -0.8978  0.6751 -1.5036
  600MOL    H7349191   7.319   3.693   2.689  1.2976 -2.5527 -3.9377
  600MOL    C7449192   7.251   3.701   2.950  0.6665  0.6172  0.3951
  600MOL    O7549193   7.153   3.732   2.862  0.2677  0.3633 -0.2026
  600MOL    H7649194   7.252   3.770   3.033  2.3561  0.4884  0.4973
  600MOL    H7749195   7.230   3.602   2.991  0.9824  1.0472  1.6106
  600MOL    C7849196   7.141   3.866   2.836  0.2457 -0.1855  0.0389
  600MOL    O7949197   7.065   3.891   2.723 -0.1024 -0.2072  0.4805
  600MOL    H8049198   7.237   3.913   2.812 -0.5131  1.3151 -0.1437
  600MOL    H8149199   7.092   3.921   2.916  3.5993  0.4360  1.7794
  600MOL    H8249200   6.977   3.881   2.756 -0.0514 -0.7050  0.4677
  601MOL     C149201   3.979   7.495   7.080 -1.0478  0.2868  0.0781
  601MOL     O249202   4.026   7.597   7.166  0.0492  0.1572  0.5319
  601MOL     H349203   3.939   7.530   6.985  0.6918  0.1742 -0.7145
  601MOL     H449204   4.053   7.422   7.048 -2.7879 -0.8722 -1.4432
  601MOL     H549205   3.905   7.426   7.122 -0.4635 -0.8565 -0.7370
  601MOL     C649206   4.109   7.548   7.269  0.4082  0.1313  0.2982
  601MOL     O749207   4.240   7.513   7.220  0.0637  0.0025  0.0997
  601MOL     H849208   4.061   7.468   7.324 -0.3100 -0.0076 -0.5216
  601MOL     H949209   4.126   7.634   7.334  1.0803 -1.0232  1.6812
  601MOL    C1049210   4.328   7.620   7.193  0.3646 -1.0742  0.4252
  601MOL    O1149211   4.369   7.677   7.316 -0.6253 -0.2669 -0.1635
  601MOL    H1249212   4.283   7.690   7.123  3.6635  0.2245 -0.4910
  601MOL    H1349213   4.418   7.591   7.139 -0.3461 -0.1428 -1.2819
  601MOL    C1449214   4.462   7.598   7.375 -0.0586  0.6087 -0.9813
  601MOL    O1549215   4.581   7.607   7.312 -0.3630 -0.1806 -0.9916
  601MOL    H1649216   4.438   7.492   7.363 -0.0817  0.5340 -0.2963
  601MOL    H1749217   4.471   7.633   7.478  2.0177  0.3562 -1.0498
  601MOL    C1849218   4.696   7.623   7.394  0.4913  0.4075  0.2030
  601MOL    O1949219   4.729   7.521   7.473 -0.2168  0.1722 -0.2803
  601MOL    H2049220   4.666   7.704   7.461  0.7187 -1.3962  2.5118
  601MOL    H2149221   4.783   7.656   7.337 -0.2576  1.9358 -0.0855
  601MOL    C2249222   4.794   7.415   7.403 -0.1619  0.4289 -0.1986
  601MOL    O2349223   4.832   7.315   7.485 -0.1560 -0.1989  0.3150
  601MOL    H2449224   4.878   7.451   7.344  0.2849 -1.0848 -0.4839
  601MOL    H2549225   4.724   7.376   7.329  0.5242 -1.8093  0.3040
  601MOL    C2649226   4.810   7.188   7.433 -0.2472 -0.0451  0.4515
  601MOL    O2749227   4.672   7.157   7.411 -0.1683  0.7692  0.5224
  601MOL    H2849228   4.844   7.122   7.513  1.2647 -0.9374 -0.9165
  601MOL    H2949229   4.866   7.177   7.340  1.6524  0.2580  1.5301
  601MOL    C3049230   4.650   7.034   7.345 -0.1605 -0.4405 -0.8230
  601MOL    O3149231   4.695   6.935   7.426 -0.7893 -0.6427 -0.4790
  601MOL    H3249232   4.706   7.021   7.252  0.5996  1.7822 -0.6889
  601MOL    H3349233   4.544   7.021   7.321 -0.0866  1.1990 -2.1604
  601MOL    C3449234   4.622   6.934   7.549  0.4568  0.4719  0.3736
  601MOL    O3549235   4.713   6.923   7.653 -0.3895  0.0230  0.1274
  601MOL    H3649236   4.539   6.864   7.556 -1.1952  1.9701 -3.1736
  601MOL    H3749237   4.582   7.033   7.575 -1.5590 -0.7394  2.0904
  601MOL    C3849238   4.775   6.798   7.658  0.0621  0.0641 -0.2193
  601MOL    O3949239   4.689   6.693   7.699  0.0637  0.0364  0.1952
  601MOL    H4049240   4.856   6.799   7.730  1.2260 -1.4274 -1.4799
  601MOL    H4149241   4.815   6.763   7.563 -0.1337  0.0611 -0.3011
  601MOL    C4249242   4.620   6.712   0.035 -0.4348 -0.6027 -0.2120
  601MOL    O4349243   4.573   6.594   0.080  0.0313 -0.5587  0.3905
  601MOL    H4449244   4.535   6.772   0.007 -1.3761 -1.0918  1.5214
  601MOL    H4549245   4.685   6.771   0.100  0.8655 -1.1718 -0.9592
  601MOL    C4649246   4.670   6.503   0.125  0.0863 -0.1964  0.0896
  601MOL    O4749247   4.731   6.544   0.250  0.4415 -0.0701 -0.8293
  601MOL    H4849248   4.751   6.493   0.054 -0.9780  0.9435 -1.3179
  601MOL    H4949249   4.635   6.401   0.141 -0.2465  0.1738  1.9245
  601MOL    C5049250   4.626   6.556   0.353  0.1519 -0.4272  0.1180
  601MOL    O5149251   4.672   6.621   0.462 -0.6521 -0.1589 -0.2433
  601MOL    H5249252   4.591   6.457   0.385 -0.0068 -0.1234  0.9095
  601MOL    H5349253   4.530   6.598   0.324 -0.5494 -1.0241  1.5006
  601MOL    C5449254   4.700   6.752   0.440  0.0201  0.2273  0.5081
  601MOL    O5549255   4.771   6.800   0.551  0.2903 -0.5304 -0.0906
  601MOL    H5649256   4.605   6.802   0.425 -0.2395 -0.1162  0.9755
  601MOL    H5749257   4.754   6.763   0.346 -0.1322 -0.3186  0.3567
  601MOL    C5849258   4.900   6.760   0.556  0.6542  0.1106  0.2370
  601MOL    O5949259   4.979   6.814   0.450 -0.0856  0.5786 -0.4862
  601MOL    H6049260   4.901   6.651   0.557 -0.3441  0.0460 -2.6245
  601MOL    H6149261   4.946   6.782   0.653 -0.7647 -0.0307  0.9494
  601MOL    C6249262   5.007   6.953   0.464 -1.0008  0.2697  0.2653
  601MOL    O6349263   5.120   6.972   0.542 -0.3568 -0.2677 -0.3437
  601MOL    H6449264   4.933   7.013   0.517 -1.0679  0.0646  0.4063
  601MOL    H6549265   5.023   6.983   0.361 -0.1356  0.6954  0.5222
  601MOL    C6649266   5.233   6.954   0.460 -0.1631  0.5551 -0.5381
  601MOL    O6749267   5.251   7.067   0.380  0.2561  0.3603  0.1317
  601MOL    H6849268   5.227   6.866   0.396  1.0066  1.6743 -2.2269
  601MOL    H6949269   5.324   6.950   0.521 -1.4795 -0.9726  1.3840
  601MOL    C7049270   5.291   7.178   0.462  0.3837 -0.9537 -0.4024
  601MOL    O7149271   5.278   7.296   0.386 -0.0755  0.2264  0.4547
  601MOL    H7249272   5.395   7.164   0.494  0.0385  0.1092  1.2347
  601MOL    H7349273   5.230   7.192   0.551  2.2312 -2.0726  1.0927
  601MOL    C7449274   5.142   7.333   0.388 -0.4108  0.0891  0.1136
  601MOL    O7549275   5.116   7.423   0.488  0.0904  0.2020 -0.1217
  601MOL    H7649276   5.070   7.250   0.390  0.1717 -0.4054  0.8329
  601MOL    H7749277   5.135   7.380   0.290 -1.0063 -2.2971 -1.0388
  601MOL    C7849278   5.159   7.556   0.462 -0.3843 -0.3255  0.5734
  601MOL    O7949279   5.155   7.628   0.580  0.1862 -0.3970 -0.1176
  601MOL    H8049280   5.106   7.615   0.387 -2.1415 -2.5274  0.0250
  601MOL    H8149281   5.265   7.547   0.437 -0.3659  0.6939  0.2697
  601MOL    H8249282   5.076   7.680   0.583  2.5184  3.6800 -3.7834
  602MOL     C149283   4.166   5.443   2.051 -0.7164 -0.6397  0.1063
  602MOL     O249284   4.210   5.353   2.152  0.2080 -0.6663  0.0013
  602MOL     H349285   4.060   5.465   2.059 -0.4351  0.3920  1.1168
  602MOL     H449286   4.212   5.541   2.059 -0.7800 -0.6657  0.7860
  602MOL     H549287   4.177   5.398   1.952 -0.9027  0.8883 -0.6286
  602MOL     C649288   4.181   5.397   2.276  0.3838  0.1553  0.5118
  602MOL     O749289   4.256   5.503   2.310  0.2778  0.7532 -0.5965
  602MOL     H849290   4.196   5.319   2.351  0.1570  0.4763  0.8880
  602MOL     H949291   4.074   5.417   2.283 -0.1426 -2.6466  0.9906
  602MOL    C1049292   4.388   5.466   2.336  0.9472 -0.0601  0.1028
  602MOL    O1149293   4.405   5.418   2.466  0.2515  0.3547  0.4448
  602MOL    H1249294   4.446   5.558   2.331  0.4651  0.0871 -3.7281
  602MOL    H1349295   4.415   5.399   2.255  0.0692  0.0130 -0.2599
  602MOL    C1449296   4.533   5.373   2.499  0.0981  0.4815  0.0883
  602MOL    O1549297   4.533   5.304   2.621 -0.4499 -0.0866  0.7459
  602MOL    H1649298   4.604   5.456   2.498  4.4393 -3.0398 -0.3370
  602MOL    H1749299   4.560   5.304   2.419  0.7932  1.1166 -0.2285
  602MOL    C1849300   4.457   5.188   2.624 -0.0198 -0.0006 -0.1497
  602MOL    O1949301   4.523   5.099   2.548  0.3437  0.1940 -0.0008
  602MOL    H2049302   4.357   5.201   2.580 -0.0648  0.0311 -0.0397
  602MOL    H2149303   4.442   5.143   2.722  1.4297  2.3551  1.2012
  602MOL    C2249304   4.458   4.984   2.512  0.0105 -0.4463 -0.7704
  602MOL    O2349305   4.344   5.002   2.438  0.2667 -0.0488  0.2651
  602MOL    H2449306   4.421   4.936   2.602 -1.1435  1.2896 -0.3012
  602MOL    H2549307   4.520   4.905   2.470  0.1614 -1.7376  1.7987
  602MOL    C2649308   4.364   5.055   2.308  0.4961 -0.2583 -0.0598
  602MOL    O2749309   4.382   4.952   2.210  0.3573  0.6166 -0.8959
  602MOL    H2849310   4.446   5.126   2.315  0.3823 -0.1377  0.0569
  602MOL    H2949311   4.275   5.117   2.294 -2.1589 -3.0294  3.2298
  602MOL    C3049312   4.510   4.945   2.158  0.7556 -0.3573  0.6773
  602MOL    O3149313   4.557   5.075   2.121 -0.2490  0.1383  0.0341
  602MOL    H3249314   4.505   4.868   2.081 -0.0411  1.1111 -0.7880
  602MOL    H3349315   4.574   4.903   2.235 -1.8363 -0.8563  2.6041
  602MOL    C3449316   4.513   5.137   2.001 -0.1341 -0.0722 -0.3738
  602MOL    O3549317   4.608   5.226   1.950 -0.1154  0.0826 -0.5203
  602MOL    H3649318   4.422   5.192   2.024  0.0076 -0.3463  0.8954
  602MOL    H3749319   4.494   5.054   1.932 -1.4038 -1.0604  1.1152
  602MOL    C3849320   4.719   5.163   1.896  0.4259  0.1342  0.4695
  602MOL    O3949321   4.831   5.250   1.878 -0.2027  0.1541  0.2448
  602MOL    H4049322   4.697   5.103   1.808 -0.2551 -0.3766  0.9758
  602MOL    H4149323   4.758   5.088   1.965  2.7573  0.5695 -0.3474
  602MOL    C4249324   4.802   5.348   1.793  0.0702  0.2026  0.5012
  602MOL    O4349325   4.827   5.320   1.661 -0.4438  0.1411 -0.2194
  602MOL    H4449326   4.870   5.429   1.819  0.8049 -0.5561  0.9717
  602MOL    H4549327   4.700   5.384   1.801  0.1901  0.7497 -0.4091
  602MOL    C4649328   4.956   5.268   1.639  0.1963 -0.0243 -0.4529
  602MOL    O4749329   5.059   5.365   1.638  0.5154  0.2581  0.6108
  602MOL    H4849330   4.953   5.219   1.542  2.0129 -0.4403 -0.3057
  602MOL    H4949331   4.993   5.191   1.706 -0.5115 -1.2098 -1.4047
  602MOL    C5049332   5.055   5.465   1.544 -0.1111 -0.2416  0.7562
  602MOL    O5149333   5.047   5.418   1.414  0.2051 -0.3885  0.9495
  602MOL    H5249334   5.134   5.540   1.547  0.0567 -0.3793  0.0106
  602MOL    H5349335   4.972   5.533   1.561  1.7360  2.2876 -0.0112
  602MOL    C5449336   5.171   5.372   1.362  0.6544  0.2728 -0.6996
  602MOL    O5549337   5.252   5.479   1.314  0.1265  0.1238  0.3675
  602MOL    H5649338   5.146   5.294   1.291 -1.8151  0.4150 -0.0373
  602MOL    H5749339   5.224   5.325   1.444 -1.2898  0.3980  0.6473
  602MOL    C5849340   5.199   5.530   1.197  1.0555 -0.2292  0.3260
  602MOL    O5949341   5.214   5.458   1.083 -0.3916 -0.2760  0.0561
  602MOL    H6049342   5.251   5.625   1.180  1.7516 -0.4059  1.4119
  602MOL    H6149343   5.091   5.537   1.211  0.7382  0.8104 -2.3711
  602MOL    C6249344   5.346   5.431   1.055 -0.9624  0.2767 -0.4850
  602MOL    O6349345   5.361   5.389   0.923  0.8511  1.0713  0.8773
  602MOL    H6449346   5.385   5.358   1.127 -1.5466 -0.3548 -0.8038
  602MOL    H6549347   5.406   5.521   1.064  0.6552 -1.0112  2.4047
  602MOL    C6649348   5.334   5.250   0.914 -0.3386 -0.0646 -0.5549
  602MOL    O6749349   5.442   5.169   0.897  0.1817  0.6274  0.0588
  602MOL    H6849350   5.278   5.242   0.820 -1.9600 -1.5474  0.5106
  602MOL    H6949351   5.270   5.220   0.996  0.2007 -1.3305 -0.5835
  602MOL    C7049352   5.534   5.208   0.796  0.2438  0.0547  0.2954
  602MOL    O7149353   5.641   5.124   0.781  0.6360  0.6416  0.0878
  602MOL    H7249354   5.576   5.308   0.807 -1.6159  1.0954 -1.5151
  602MOL    H7349355   5.475   5.209   0.704 -0.2538 -1.1257  0.5883
  602MOL    C7449356   5.616   5.021   0.694  0.4013 -1.1647  0.2334
  602MOL    O7549357   5.600   5.062   0.562 -0.1453  0.5606 -0.2663
  602MOL    H7649358   5.529   4.971   0.736 -1.5616  1.5530 -0.4284
  602MOL    H7749359   5.697   4.949   0.704 -0.0179 -1.5862  0.5781
  602MOL    C7849360   5.722   5.110   0.514 -0.5457  1.0448  0.8719
  602MOL    O7949361   5.725   5.256   0.527  0.5323  0.5935  0.6231
  602MOL    H8049362   5.715   5.091   0.407 -0.0666  1.4572  0.7651
  602MOL    H8149363   5.816   5.063   0.545 -1.9750 -3.0257 -0.6499
  602MOL    H8249364   5.804   5.286   0.484  0.8786  0.8469  1.4210
  603MOL     C149365   2.324   5.396   2.375 -0.5741  0.1064 -0.2220
  603MOL     O249366   2.456   5.357   2.382 -0.0642  0.0974 -0.5279
  603MOL     H349367   2.268   5.364   2.463  1.5274  1.6134  1.7462
  603MOL     H449368   2.318   5.504   2.359  0.5854 -0.0173 -1.5547
  603MOL     H549369   2.293   5.353   2.280  1.2121 -2.6584  0.4113
  603MOL     C649370   2.537   5.428   2.289  0.1102  0.4496 -0.1518
  603MOL     O749371   2.659   5.376   2.277  0.4907  0.4430  0.0669
  603MOL     H849372   2.536   5.534   2.313 -1.3387  0.0179  1.7907
  603MOL     H949373   2.483   5.425   2.194 -0.7996  2.2439  0.2859
  603MOL    C1049374   2.740   5.402   2.384 -0.1322 -1.0753 -0.4552
  603MOL    O1149375   2.779   5.536   2.379  0.4271  0.0292 -0.2765
  603MOL    H1249376   2.828   5.338   2.374 -0.4378 -2.2000  3.4165
  603MOL    H1349377   2.683   5.373   2.472  0.0692  1.0651  0.3917
  603MOL    C1449378   2.889   5.557   2.455  0.1115  0.2022 -0.5116
  603MOL    O1549379   3.002   5.505   2.386  0.0760 -0.4079 -0.1887
  603MOL    H1649380   2.876   5.506   2.551  3.0889  1.4790  0.6407
  603MOL    H1749381   2.892   5.663   2.477  0.8983  0.1665 -0.4050
  603MOL    C1849382   3.046   5.594   2.291 -0.8349  0.2716  0.1649
  603MOL    O1949383   3.148   5.547   2.208 -0.6057  0.0002 -0.0457
  603MOL    H2049384   3.057   5.692   2.337 -0.8589  0.8995 -1.1588
  603MOL    H2149385   2.969   5.609   2.216 -0.5939 -0.9535 -0.3442
  603MOL    C2249386   3.274   5.534   2.269 -0.1454 -0.8901 -0.8067
  603MOL    O2349387   3.305   5.660   2.314 -0.2674  0.3893  0.3710
  603MOL    H2449388   3.355   5.505   2.202  0.4712  1.5641 -1.1883
  603MOL    H2549389   3.272   5.473   2.359  0.6783 -0.0595 -0.2203
  603MOL    C2649390   3.373   5.739   2.218 -0.4206  0.2622  0.4283
  603MOL    O2749391   3.506   5.723   2.235  0.0218 -0.4667  0.1450
  603MOL    H2849392   3.352   5.843   2.243 -2.1274 -0.1629  0.7923
  603MOL    H2949393   3.336   5.718   2.117  0.6087 -0.3042  0.1580
  603MOL    C3049394   3.586   5.803   2.159 -0.3455  0.1070 -0.5679
  603MOL    O3149395   3.721   5.766   2.175 -0.4467 -0.1121 -0.1522
  603MOL    H3249396   3.556   5.908   2.156  1.0927  0.5532  0.3394
  603MOL    H3349397   3.560   5.776   2.057 -1.1956  1.2503 -0.6646
  603MOL    C3449398   3.786   5.833   2.282  0.4011 -0.7477  0.6174
  603MOL    O3549399   3.789   5.974   2.261 -0.2402 -0.3109 -0.3454
  603MOL    H3649400   3.886   5.795   2.303  1.3172  0.4523 -1.3581
  603MOL    H3749401   3.729   5.815   2.373  0.4599  0.9321  1.0141
  603MOL    C3849402   3.896   6.035   2.330 -0.9180  0.5142 -1.1129
  603MOL    O3949403   3.907   6.170   2.303  0.4179  0.3639 -0.3600
  603MOL    H4049404   3.989   5.992   2.293 -1.7392 -0.3323 -2.2201
  603MOL    H4149405   3.895   6.012   2.436 -2.2622  2.1367 -0.7405
  603MOL    C4249406   3.802   6.238   2.358 -0.1001  0.5555  0.1544
  603MOL    O4349407   3.833   6.371   2.380  0.3147 -0.2793 -0.0054
  603MOL    H4449408   3.760   6.210   2.454 -1.9537  0.8621 -0.5442
  603MOL    H4549409   3.722   6.246   2.285  0.2528  2.0760 -0.0846
  603MOL    C4649410   3.837   6.446   2.265 -0.3667 -0.9083 -0.0464
  603MOL    O4749411   3.730   6.539   2.264  0.2340 -0.3100  0.2494
  603MOL    H4849412   3.849   6.386   2.175  0.7583 -1.5210  0.5022
  603MOL    H4949413   3.929   6.504   2.267  0.2478 -1.8828  1.3740
  603MOL    C5049414   3.717   6.605   2.144  0.0947  0.2755  0.4794
  603MOL    O5149415   3.615   6.697   2.147  0.8696  0.5790  0.7797
  603MOL    H5249416   3.676   6.532   2.075 -0.5402 -0.4733  1.6285
  603MOL    H5349417   3.805   6.654   2.103 -1.4432  2.3938 -0.4396
  603MOL    C5449418   3.650   6.806   2.222  0.3470  0.2313 -0.0250
  603MOL    O5549419   3.749   6.892   2.163 -0.0740  0.4229  0.2879
  603MOL    H5649420   3.681   6.777   2.322  1.3608  0.2913 -0.3147
  603MOL    H5749421   3.557   6.860   2.237  0.9219  1.5227 -0.9229
  603MOL    C5849422   3.711   6.968   2.059  0.2369 -0.1542  0.2355
  603MOL    O5949423   3.659   7.095   2.100  0.0350 -0.1195 -0.3541
  603MOL    H6049424   3.620   6.927   2.017 -0.4733  0.4468  1.1754
  603MOL    H6149425   3.785   6.971   1.979 -1.4388  0.9858 -1.3077
  603MOL    C6249426   3.755   7.180   2.152  0.6355  0.1486  1.1960
  603MOL    O6349427   3.696   7.296   2.202 -0.1354  0.3639 -0.0492
  603MOL    H6449428   3.839   7.198   2.085  1.7684  1.7153  2.9870
  603MOL    H6549429   3.793   7.136   2.245 -0.6093 -0.8185  1.2509
  603MOL    C6649430   3.681   7.390   2.104 -1.3578  0.3420 -0.1379
  603MOL    O6749431   3.796   7.468   2.087 -0.3730  0.1654 -0.6274
  603MOL    H6849432   3.599   7.456   2.131 -1.7995 -1.3375  2.7815
  603MOL    H6949433   3.665   7.346   2.005 -1.5224  0.1909 -0.0429
  603MOL    C7049434   3.849   7.524   2.199 -0.1708 -0.4505 -0.0943
  603MOL    O7149435   3.770   7.626   2.253  0.0801  0.2248  0.2211
  603MOL    H7249436   3.948   7.567   2.184 -0.6959  1.4166  1.5461
  603MOL    H7349437   3.855   7.453   2.282  1.2240  0.6293  0.7542
  603MOL    C7449438   3.833   7.680   2.366  0.1101 -0.1586  0.8444
  603MOL    O7549439   3.818   7.596   2.478 -0.1348 -0.2079 -0.5029
  603MOL    H7649440   3.786   7.776   2.385  4.3336  2.1497  0.1245
  603MOL    H7749441   3.936   7.694   2.332  0.3513 -2.2393  0.6515
  603MOL    C7849442   3.687   7.560   2.494 -0.0938  0.1743 -0.0044
  603MOL    O7949443   3.665   7.496   2.619  0.2246 -0.2166 -0.7810
  603MOL    H8049444   3.651   7.496   2.414  2.9084 -0.1967 -1.1265
  603MOL    H8149445   3.624   7.649   2.503 -0.7121 -0.1584 -1.0024
  603MOL    H8249446   3.598   7.430   2.609 -1.3138  1.1482  0.2195
  604MOL     C149447   5.560   1.415   6.261 -0.4863  0.7378  0.0895
  604MOL     O249448   5.615   1.411   6.394  0.2686 -0.6095  0.3079
  604MOL     H349449   5.452   1.428   6.267 -0.6381 -1.0694  1.9236
  604MOL     H449450   5.598   1.499   6.203  1.0262  0.6837  0.9743
  604MOL     H549451   5.586   1.327   6.203  1.2451  0.1182  1.7220
  604MOL     C649452   5.582   1.297   6.473  0.3947  0.4173 -0.3023
  604MOL     O749453   5.452   1.303   6.518 -0.4508 -0.1622  0.7251
  604MOL     H849454   5.644   1.282   6.561 -1.0273 -1.1503  0.4408
  604MOL     H949455   5.598   1.208   6.412  1.5149  0.0243  0.5534
  604MOL    C1049456   5.431   1.239   6.643 -0.4554  0.0489 -0.3134
  604MOL    O1149457   5.416   1.103   6.617  0.0807 -0.0131  0.5766
  604MOL    H1249458   5.338   1.280   6.685  0.2741  0.3522  1.0512
  604MOL    H1349459   5.506   1.249   6.721 -0.1219 -0.3367 -0.5885
  604MOL    C1449460   5.298   1.066   6.560  0.2793  0.1567  0.3935
  604MOL    O1549461   5.201   1.053   6.658  0.4164  0.3779 -0.2226
  604MOL    H1649462   5.311   0.967   6.515 -0.2034  1.2072 -2.1249
  604MOL    H1749463   5.263   1.137   6.486  0.0077 -0.0913  0.2825
  604MOL    C1849464   5.225   0.943   6.739  0.5435 -0.5408 -0.1418
  604MOL    O1949465   5.199   0.832   6.672 -0.1563 -0.2828  0.1346
  604MOL    H2049466   5.149   0.953   6.816  0.5110  0.8620 -0.3367
  604MOL    H2149467   5.325   0.951   6.783 -0.4840 -1.2347  2.4004
  604MOL    C2249468   5.120   0.734   6.731  0.0332 -0.2686 -0.1809
  604MOL    O2349469   5.162   0.713   6.859 -0.0007  0.1756  0.3671
  604MOL    H2449470   5.121   0.641   6.675  0.9832  1.3671 -2.9628
  604MOL    H2549471   5.016   0.763   6.744  0.2898 -0.2020  2.0612
  604MOL    C2649472   5.236   0.593   6.863 -0.3353  0.0915 -0.2366
  604MOL    O2749473   5.349   0.606   6.778  0.3405  0.2338 -0.2788
  604MOL    H2849474   5.172   0.505   6.854 -1.4090  0.8300  0.0435
  604MOL    H2949475   5.279   0.591   6.963 -2.8334 -2.3056  0.8731
  604MOL    C3049476   5.418   0.495   6.780 -0.8059  0.8143 -0.6535
  604MOL    O3149477   5.447   0.446   6.913  0.0627 -0.3103 -0.0654
  604MOL    H3249478   5.504   0.527   6.721 -0.1492 -0.0997 -0.2037
  604MOL    H3349479   5.366   0.416   6.725 -1.2374  0.5087  0.1825
  604MOL    C3449480   5.571   0.394   6.925 -0.1244  1.2106 -0.1615
  604MOL    O3549481   5.674   0.477   6.889  0.0166 -0.5496 -0.4022
  604MOL    H3649482   5.575   0.303   6.866  1.1639  1.6195 -0.7288
  604MOL    H3749483   5.589   0.360   7.027  1.8599 -1.7713 -1.4509
  604MOL    C3849484   5.694   0.574   6.979 -0.1203  0.5293 -0.3035
  604MOL    O3949485   5.735   0.531   7.107 -0.1336 -0.2310  0.3674
  604MOL    H4049486   5.611   0.645   6.974 -0.2753  0.3735 -0.0080
  604MOL    H4149487   5.777   0.633   6.941  0.3733  0.1313  0.1470
  604MOL    C4249488   5.865   0.472   7.116 -0.4770  0.1378  0.0940
  604MOL    O4349489   5.964   0.569   7.101 -0.2006 -0.5153 -0.0063
  604MOL    H4449490   5.874   0.400   7.035 -0.1914  0.8941 -0.5653
  604MOL    H4549491   5.869   0.418   7.210  1.2394 -0.3380 -0.2402
  604MOL    C4649492   6.091   0.516   7.105 -0.2813  0.4385 -0.0862
  604MOL    O4749493   6.117   0.417   7.009  0.6124 -0.2948  0.1435
  604MOL    H4849494   6.100   0.460   7.197 -1.9963 -1.1438 -0.8486
  604MOL    H4949495   6.161   0.599   7.096 -2.6433  2.7148  1.5304
  604MOL    C5049496   6.136   0.464   6.882 -0.8677  0.4252  0.2919
  604MOL    O5149497   6.237   0.560   6.873 -0.3526  0.4635  0.4131
  604MOL    H5249498   6.049   0.510   6.836  0.4207  1.6587 -0.9955
  604MOL    H5349499   6.163   0.374   6.826 -0.2581  1.5727 -1.3298
  604MOL    C5449500   6.363   0.523   6.914 -0.1235  0.3214 -0.1646
  604MOL    O5549501   6.433   0.446   6.814 -0.0895 -0.3111 -0.0295
  604MOL    H5649502   6.361   0.457   7.001  0.0676 -0.4126 -0.7224
  604MOL    H5749503   6.410   0.616   6.946  0.0501 -1.0581  3.9150
  604MOL    C5849504   6.471   0.526   6.703  0.2196 -0.1870  0.6537
  604MOL    O5949505   6.567   0.622   6.727 -0.2414 -0.1717  0.3512
  604MOL    H6049506   6.384   0.578   6.663  1.1709 -0.0615 -1.3215
  604MOL    H6149507   6.510   0.454   6.631 -0.5822 -0.3079  0.3283
  604MOL    C6249508   6.702   0.577   6.690 -1.5121  0.1431 -0.4059
  604MOL    O6349509   6.726   0.561   6.553  1.0496 -0.6700 -0.2321
  604MOL    H6449510   6.720   0.482   6.741  0.2917  1.8396  2.2690
  604MOL    H6549511   6.766   0.652   6.736 -0.7720 -0.6931 -0.0496
  604MOL    C6649512   6.714   0.681   6.477  0.1332  0.4405  0.3413
  604MOL    O6749513   6.833   0.749   6.487 -0.3639 -0.2529  0.4862
  604MOL    H6849514   6.630   0.740   6.513 -2.8443 -2.8028 -1.0807
  604MOL    H6949515   6.687   0.659   6.373 -0.7363 -0.2654  0.7111
  604MOL    C7049516   6.928   0.708   6.385 -0.1092  0.2764  0.0120
  604MOL    O7149517   6.907   0.763   6.259  0.2127  0.0325  0.2556
  604MOL    H7249518   6.932   0.599   6.377 -2.5059  0.0299  1.6380
  604MOL    H7349519   7.022   0.747   6.425  0.1708 -0.7052  0.3151
  604MOL    C7449520   6.926   0.904   6.258  0.2703 -0.4784 -0.1483
  604MOL    O7549521   7.059   0.943   6.267 -0.3809  0.0534  0.4873
  604MOL    H7649522   6.875   0.948   6.344  2.5584  3.2041 -0.5570
  604MOL    H7749523   6.887   0.940   6.162  0.7407  0.3528 -0.0323
  604MOL    C7849524   7.079   1.078   6.254  0.1691  0.6360  0.3203
  604MOL    O7949525   7.214   1.110   6.288  0.3291 -0.0809  0.0363
  604MOL    H8049526   7.021   1.132   6.329 -0.3265  1.8418 -0.9071
  604MOL    H8149527   7.049   1.124   6.160  0.2733  2.0920  0.9966
  604MOL    H8249528   7.268   1.090   6.213 -0.1967  0.1915 -0.4217
  605MOL     C149529   7.365   4.709   0.142 -0.2283 -0.1212 -0.5695
  605MOL     O249530   7.342   4.576   0.101  0.2362 -0.6316 -0.4420
  605MOL     H349531   7.402   4.703   0.245 -2.6138  2.2808  0.4753
  605MOL     H449532   7.440   4.767   0.087  0.7675 -0.2099  0.6370
  605MOL     H549533   7.270   4.761   0.133 -0.9858 -1.5041 -0.5809
  605MOL     C649534   7.447   4.489   0.115  0.5008 -0.6075 -0.5978
  605MOL     O749535   7.519   4.470   7.782 -0.2234  0.2426 -0.7768
  605MOL     H849536   7.402   4.393   0.138  0.9218 -0.4369  0.9783
  605MOL     H949537   7.515   4.519   0.194  0.1491  1.0539 -0.8946
  605MOL    C1049538   7.432   4.406   7.682 -0.3394  0.0119  0.4269
  605MOL    O1149539   7.400   4.269   7.697 -0.2665 -0.2297  0.1516
  605MOL    H1249540   7.468   4.418   7.580  0.4378  0.2752  0.7271
  605MOL    H1349541   7.331   4.447   7.681 -0.1443  0.5265  1.3478
  605MOL    C1449542   7.507   4.181   7.693 -0.2878 -0.2104 -0.8089
  605MOL    O1549543   7.540   4.173   7.561 -0.0623  0.1659 -0.2918
  605MOL    H1649544   7.476   4.087   7.738  0.9905 -0.4781 -0.4549
  605MOL    H1749545   7.601   4.206   7.743 -0.9321  1.2893 -0.3114
  605MOL    C1849546   7.464   4.086   7.492  0.7265  0.5372  0.1731
  605MOL    O1949547   7.495   3.951   7.527 -0.6442 -0.0546  0.6394
  605MOL    H2049548   7.479   4.108   7.387  0.4107  1.4732  0.3206
  605MOL    H2149549   7.358   4.105   7.509 -0.2405 -3.0109 -1.4080
  605MOL    C2249550   7.427   3.857   7.442 -0.2125 -0.0614 -0.0112
  605MOL    O2349551   7.291   3.889   7.439 -0.0139  0.2478  0.0693
  605MOL    H2449552   7.449   3.753   7.466 -1.5439 -0.0766  1.2004
  605MOL    H2549553   7.479   3.877   7.348 -0.2182 -1.6548 -0.3704
  605MOL    C2649554   7.208   3.831   7.538  0.1745  0.1704 -0.6118
  605MOL    O2749555   7.236   3.892   7.661 -0.4569 -0.3616 -0.2080
  605MOL    H2849556   7.212   3.722   7.544  0.7519  0.2949  2.0678
  605MOL    H2949557   7.106   3.853   7.508  0.4168 -0.0494 -1.6089
  605MOL    C3049558   7.126   3.866   7.755  0.2082 -0.0320  0.5598
  605MOL    O3149559   7.030   3.959   7.743  0.5243 -0.3845  0.0013
  605MOL    H3249560   7.176   3.867   0.068 -0.4905  0.2080  0.9188
  605MOL    H3349561   7.078   3.768   7.742  0.2425  0.1577 -1.1174
  605MOL    C3449562   7.076   4.088   7.778  0.0952  0.2685 -0.7087
  605MOL    O3549563   6.993   4.178   7.719 -0.4782 -0.0651 -0.5678
  605MOL    H3649564   7.178   4.109   7.745  1.1382  0.5668  2.4290
  605MOL    H3749565   7.090   4.100   0.102 -2.5257  0.4053 -0.3487
  605MOL    C3849566   6.980   4.157   7.578 -0.3149  0.0499  0.1163
  605MOL    O3949567   7.102   4.158   7.514  0.1819 -0.2137 -0.3392
  605MOL    H4049568   6.902   4.221   7.536  2.8407  2.5478 -2.1425
  605MOL    H4149569   6.935   4.060   7.557 -1.2629  0.5295 -0.0899
  605MOL    C4249570   7.137   4.286   7.471  0.1250  0.2659  0.1965
  605MOL    O4349571   7.082   4.318   7.350  0.0134  0.5288 -0.7237
  605MOL    H4449572   7.246   4.290   7.461  0.1291  0.2091  0.2203
  605MOL    H4549573   7.107   4.360   7.545 -0.4397 -1.6312  1.9145
  605MOL    C4649574   7.148   4.260   7.237  0.0306 -0.9524  0.1990
  605MOL    O4749575   7.263   4.332   7.199  0.0849 -0.3821 -0.2771
  605MOL    H4849576   7.078   4.258   7.154 -1.6063  0.6120  1.4951
  605MOL    H4949577   7.177   4.157   7.257  2.4198  0.0306  2.0154
  605MOL    C5049578   7.239   4.455   7.160 -0.0159  0.1212 -0.1152
  605MOL    O5149579   7.196   4.448   7.030  0.7612 -0.3870  0.3998
  605MOL    H5249580   7.328   4.515   7.180  1.5986 -1.1208 -3.1224
  605MOL    H5349581   7.164   4.507   7.218 -0.7450  0.0496 -0.9895
  605MOL    C5449582   7.297   4.423   6.937  0.6029 -0.2366 -0.3750
  605MOL    O5549583   7.261   4.450   6.808 -0.4722 -0.5776  0.7261
  605MOL    H5649584   7.342   4.323   6.935  0.7934 -0.2379  2.1511
  605MOL    H5749585   7.377   4.494   6.960  1.2343 -0.3674 -2.0648
  605MOL    C5849586   7.163   4.367   6.752  0.4662  0.7748  0.1807
  605MOL    O5949587   7.200   4.241   6.716  0.2456  0.3470 -0.0934
  605MOL    H6049588   7.130   4.426   6.667 -1.9051 -0.0359  0.5044
  605MOL    H6149589   7.080   4.358   6.823 -0.2827 -1.4201 -0.9131
  605MOL    C6249590   7.296   4.243   6.615 -0.3442  0.2255 -0.3148
  605MOL    O6349591   7.251   4.293   6.494 -0.1135  0.1920  0.0437
  605MOL    H6449592   7.335   4.143   6.595  0.6716  0.5568 -0.0445
  605MOL    H6549593   7.381   4.298   6.655 -1.1413  0.1629  1.5064
  605MOL    C6649594   7.150   4.210   6.440  0.7054 -0.0145 -0.0858
  605MOL    O6749595   7.201   4.084   6.416 -0.3834 -0.5724 -0.0782
  605MOL    H6849596   7.101   4.257   6.355  0.7856 -1.1267 -0.7568
  605MOL    H6949597   7.076   4.206   6.520 -0.5410 -0.8811 -1.2555
  605MOL    C7049598   7.143   4.026   6.305 -0.1252 -0.2918  0.2405
  605MOL    O7149599   7.156   4.108   6.194 -0.1383  0.1107 -0.3041
  605MOL    H7249600   7.036   4.019   6.328 -0.2395  1.9686  0.4543
  605MOL    H7349601   7.191   3.930   6.285 -0.3169 -0.4074  0.3237
  605MOL    C7449602   7.290   4.122   6.158 -0.1773 -0.2146  0.1984
  605MOL    O7549603   7.312   4.202   6.047 -0.4636  0.3530  0.2565
  605MOL    H7649604   7.328   4.022   6.133  1.1411  0.7482 -1.8116
  605MOL    H7749605   7.344   4.160   6.245  1.8420  2.2884 -2.0632
  605MOL    C7849606   7.287   4.341   6.071 -0.1626  0.6420  0.0846
  605MOL    O7949607   7.331   4.421   5.963  0.1859  0.3181  0.1847
  605MOL    H8049608   7.330   4.378   6.164 -1.5450 -2.7058  2.1779
  605MOL    H8149609   7.179   4.350   6.078 -0.2074 -1.1180  2.6289
  605MOL    H8249610   7.421   4.447   5.974 -0.3360  2.0069  0.5524
  606MOL     C149611   4.889   7.252   3.496 -0.0157  0.0722 -0.0848
  606MOL     O249612   4.832   7.235   3.629 -0.1229 -0.1574 -0.7399
  606MOL     H349613   4.800   7.244   3.433  0.2842  0.8029 -0.6106
  606MOL     H449614   4.926   7.352   3.476 -2.0646  0.7796 -0.4519
  606MOL     H549615   4.971   7.186   3.468  1.8531  2.4629 -0.4057
  606MOL     C649616   4.790   7.105   3.662 -0.5633 -0.0658  0.0081
  606MOL     O749617   4.898   7.016   3.664 -0.0039  0.5720 -0.0352
  606MOL     H849618   4.726   7.055   3.591  1.5202 -2.3643 -0.3370
  606MOL     H949619   4.739   7.113   3.758  0.1021  2.3539  0.1904
  606MOL    C1049620   5.008   7.067   3.739  0.7339 -0.2335 -0.3452
  606MOL    O1149621   5.101   6.972   3.764 -0.1627  0.3372  0.1786
  606MOL    H1249622   4.982   7.113   3.834 -0.9648  0.7616 -1.2621
  606MOL    H1349623   5.057   7.146   3.681 -1.2626  1.0085 -0.4214
  606MOL    C1449624   5.147   6.889   3.661  0.4520  0.3205  0.6103
  606MOL    O1549625   5.206   6.959   3.556 -0.8975  0.2291  0.4594
  606MOL    H1649626   5.054   6.845   3.624  1.0998 -0.7011  0.2008
  606MOL    H1749627   5.214   6.814   3.702 -0.8422 -1.2045  0.0091
  606MOL    C1849628   5.191   6.906   3.430 -0.5229  0.2543  0.6562
  606MOL    O1949629   5.250   6.781   3.427  0.0014  0.0245 -0.2441
  606MOL    H2049630   5.249   6.975   3.370  1.6987 -1.7731  0.3683
  606MOL    H2149631   5.084   6.897   3.408 -0.0543 -0.1108 -1.5405
  606MOL    C2249632   5.224   6.715   3.308 -0.4133 -0.0415  0.4736
  606MOL    O2349633   5.292   6.780   3.207  0.0223  0.4317 -0.2919
  606MOL    H2449634   5.120   6.714   3.277 -0.9630 -0.1683  2.2691
  606MOL    H2549635   5.267   6.615   3.318 -0.1795 -0.1092 -1.0579
  606MOL    C2649636   5.345   6.694   3.107 -0.1761 -0.3970  0.1525
  606MOL    O2749637   5.443   6.605   3.152 -0.0961 -0.6215  0.3510
  606MOL    H2849638   5.384   6.762   3.031  1.3208 -2.3366 -0.8854
  606MOL    H2949639   5.274   6.620   3.071  0.7909 -2.0957  1.6571
  606MOL    C3049640   5.568   6.656   3.186  0.4073 -0.4794 -0.4178
  606MOL    O3149641   5.659   6.558   3.198 -0.2721  0.4543  0.1052
  606MOL    H3249642   5.564   6.716   3.277  1.6692 -0.2630 -0.4947
  606MOL    H3349643   5.605   6.724   3.110 -0.2736  0.5575  0.1677
  606MOL    C3449644   5.693   6.495   3.081  0.7536 -0.0076 -0.3717
  606MOL    O3549645   5.792   6.565   3.010  0.0993 -0.0897  0.2278
  606MOL    H3649646   5.612   6.489   3.007 -0.2180  0.2873  0.6508
  606MOL    H3749647   5.730   6.398   3.114  0.7314  0.4323  0.9700
  606MOL    C3849648   5.922   6.548   3.061 -0.0517  0.1318  1.1239
  606MOL    O3949649   5.961   6.420   3.027 -0.0408  0.2394  0.3369
  606MOL    H4049650   5.924   6.555   3.170 -0.7790 -0.5408  1.1820
  606MOL    H4149651   5.988   6.627   3.025  1.3051 -2.2897 -1.9128
  606MOL    C4249652   6.070   6.363   3.095 -0.2233  0.2658  0.1533
  606MOL    O4349653   6.038   6.352   3.226 -0.5042 -0.4263  0.0888
  606MOL    H4449654   6.156   6.430   3.104 -0.9583  1.2372  0.0242
  606MOL    H4549655   6.114   6.273   3.052  2.0970  0.3945  2.1559
  606MOL    C4649656   5.971   6.235   3.259 -0.0843 -0.4670 -0.4768
  606MOL    O4749657   6.064   6.126   3.258  0.4975 -0.0053 -0.4462
  606MOL    H4849658   5.892   6.222   3.185 -1.1123  1.6920  0.1997
  606MOL    H4949659   5.932   6.250   3.359 -1.8691 -0.0471 -1.2033
  606MOL    C5049660   5.992   6.002   3.268  0.0137  0.1129 -0.1020
  606MOL    O5149661   5.926   5.991   3.392 -0.1232 -0.2515 -0.6333
  606MOL    H5249662   6.067   5.925   3.252  0.3505  0.3596  0.2936
  606MOL    H5349663   5.912   5.991   3.194  0.4766 -0.3295 -0.5331
  606MOL    C5449664   6.014   5.977   3.500  0.4492  0.0423  0.3141
  606MOL    O5549665   6.068   5.853   3.509 -0.3126  1.2861 -0.9144
  606MOL    H5649666   5.958   6.010   3.588 -0.8740 -0.0759 -0.4664
  606MOL    H5749667   6.092   6.053   3.493  0.1337  0.3634  0.2947
  606MOL    C5849668   6.157   5.848   3.617  0.3391  0.7159  0.4767
  606MOL    O5949669   6.273   5.929   3.595  0.8080  0.1690 -0.0781
  606MOL    H6049670   6.173   5.754   3.670 -4.8606 -0.0624  0.9241
  606MOL    H6149671   6.103   5.894   3.700 -0.2917 -0.3344  0.6512
  606MOL    C6249672   6.359   5.885   3.492 -0.1876  0.5858 -0.0541
  606MOL    O6349673   6.430   5.773   3.545 -0.1299 -0.0648 -0.5136
  606MOL    H6449674   6.416   5.967   3.449  0.8398  0.5455  1.1969
  606MOL    H6549675   6.296   5.851   3.410  1.1261  2.4279 -1.8883
  606MOL    C6649676   6.560   5.807   3.592  0.2387  0.2459  0.1229
  606MOL    O6749677   6.642   5.810   3.485  0.4134 -0.1980  0.7427
  606MOL    H6849678   6.586   5.745   3.678 -1.2016  1.6447  1.5958
  606MOL    H6949679   6.552   5.906   3.636 -3.0833 -0.3698  1.0258
  606MOL    C7049680   6.676   5.684   3.439  0.0624 -0.1443 -0.0000
  606MOL    O7149681   6.744   5.617   3.540  0.4008 -0.3193 -0.4411
  606MOL    H7249682   6.739   5.685   3.350  2.0949  1.0473  1.3863
  606MOL    H7349683   6.585   5.625   3.432  0.1796 -0.2696 -0.4437
  606MOL    C7449684   6.870   5.662   3.556 -0.2117  0.8471  0.0327
  606MOL    O7549685   6.964   5.599   3.478  0.1538 -0.3977  0.3447
  606MOL    H7649686   6.898   5.656   3.661 -0.0050 -1.2444 -0.1035
  606MOL    H7749687   6.884   5.768   3.536 -4.9033  1.3642 -1.0257
  606MOL    C7849688   6.984   5.468   3.505  0.1088 -0.3608  0.6056
  606MOL    O7949689   7.103   5.415   3.455 -0.0216  0.3947 -0.5796
  606MOL    H8049690   6.905   5.409   3.459 -0.3832  1.6013 -1.1681
  606MOL    H8149691   6.982   5.440   3.610  1.3583  1.6391  1.1914
  606MOL    H8249692   7.079   5.392   3.367 -1.3928  2.8557 -0.9056
  607MOL     C149693   4.830   7.404   3.949  0.3452  0.1376  0.0069
  607MOL     O249694   4.800   7.541   3.981 -0.6016 -0.3667 -0.7212
  607MOL     H349695   4.739   7.344   3.947  0.2127  0.2572  1.5365
  607MOL     H449696   4.885   7.404   3.855  0.1314 -0.0673 -0.1194
  607MOL     H549697   4.908   7.365   4.014  0.6662 -0.2017 -0.5722
  607MOL     C649698   4.732   7.615   3.888  0.1523  0.6664  0.4000
  607MOL     O749699   4.596   7.570   3.879 -0.3028 -0.2052 -0.5466
  607MOL     H849700   4.775   7.613   3.788  0.6375  0.9227  0.5981
  607MOL     H949701   4.747   7.717   3.922  3.1750  0.5407 -0.4137
  607MOL    C1049702   4.521   7.619   3.984 -0.2510 -0.3825 -0.1735
  607MOL    O1149703   4.502   7.759   3.966 -0.5722 -0.0855  0.5890
  607MOL    H1249704   4.563   7.602   4.083 -0.7131  0.2036  0.1288
  607MOL    H1349705   4.425   7.567   3.984  1.0660 -2.8746  0.4058
  607MOL    C1449706   4.405   7.783   3.867  0.0062 -0.0676  1.0750
  607MOL    O1549707   4.275   7.760   3.911  0.1680 -0.0277 -1.1637
  607MOL    H1649708   4.419   7.721   3.778 -1.5769  0.1596  0.6552
  607MOL    H1749709   4.408   0.105   3.842 -1.6022 -0.0551  0.8519
  607MOL    C1849710   4.237   0.072   4.006  0.2630 -0.3147 -0.1099
  607MOL    O1949711   4.262   0.038   4.138  0.0880 -0.7082 -0.6209
  607MOL    H2049712   4.129   0.080   3.998  0.1499 -1.1044  0.5231
  607MOL    H2149713   4.279   0.171   3.991 -0.2539  0.5855  3.8490
  607MOL    C2249714   4.213   7.697   4.177  0.3622 -0.2054 -0.7950
  607MOL    O2349715   4.072   7.694   4.202 -0.2752  0.1673  0.2421
  607MOL    H2449716   4.263   7.670   4.270 -1.2005  0.7427  0.3671
  607MOL    H2549717   4.247   7.622   4.106 -0.5950 -1.2221 -0.1960
  607MOL    C2649718   4.044   7.567   4.259  0.0329 -0.0774 -0.1048
  607MOL    O2749719   4.066   7.568   4.397  0.2031  0.3378  0.2278
  607MOL    H2849720   4.098   7.485   4.210  1.0410  0.5745 -0.0800
  607MOL    H2949721   3.940   7.540   4.239 -0.4338  1.1435  0.6416
  607MOL    C3049722   4.081   7.442   4.450 -1.1014  0.5041  0.3902
  607MOL    O3149723   3.959   7.383   4.473  0.0352 -1.1205 -0.6052
  607MOL    H3249724   4.125   7.453   4.550 -0.2689 -1.1656  0.2164
  607MOL    H3349725   4.150   7.389   4.385 -0.3322  1.7058  0.1994
  607MOL    C3449726   3.880   7.434   4.577 -0.2456 -0.1275 -0.1696
  607MOL    O3549727   3.913   7.376   4.695 -0.2453  0.2731  0.2864
  607MOL    H3649728   3.774   7.412   4.563 -0.0701 -0.3205 -1.2357
  607MOL    H3749729   3.891   7.542   4.578 -1.4279  0.0378 -1.7829
  607MOL    C3849730   3.865   7.445   4.810  0.2245  0.6525 -0.4001
  607MOL    O3949731   3.953   7.539   4.856 -0.8682 -0.4233 -0.0048
  607MOL    H4049732   3.856   7.370   4.889 -1.8464  1.0660 -0.2126
  607MOL    H4149733   3.766   7.486   4.791 -0.6958 -0.9536  0.8278
  607MOL    C4249734   4.063   7.487   4.929 -0.3670  0.3075  0.6286
  607MOL    O4349735   4.033   7.494   5.065  0.2431  0.0908  0.2379
  607MOL    H4449736   4.154   7.545   4.912 -0.7453  1.1673  1.5312
  607MOL    H4549737   4.082   7.382   4.906 -1.3215  0.4535 -0.8377
  607MOL    C4649738   4.142   7.465   5.147  0.0702  0.9558  0.5304
  607MOL    O4749739   4.168   7.327   5.133 -0.2389  0.0551  0.0575
  607MOL    H4849740   4.128   7.493   5.252  1.2411  0.5267  0.8129
  607MOL    H4949741   4.235   7.520   5.129 -0.0389  0.7215 -0.8007
  607MOL    C5049742   4.064   7.247   5.182 -0.1330 -0.2810  0.2662
  607MOL    O5149743   4.074   7.233   5.319  0.2921  0.2436  0.3285
  607MOL    H5249744   4.085   7.151   5.134  0.5712 -0.4046  0.8253
  607MOL    H5349745   3.965   7.279   5.148  0.9052  0.4036 -2.2011
  607MOL    C5449746   3.964   7.159   5.364 -0.2403 -0.0431 -0.5201
  607MOL    O5549747   3.947   7.039   5.289  0.0320  0.1721 -0.0534
  607MOL    H5649748   3.867   7.207   5.358 -0.7509 -0.9184  0.4824
  607MOL    H5749749   3.969   7.125   5.468  0.5651  0.0721 -0.5183
  607MOL    C5849750   4.041   6.941   5.330  0.3966 -0.0445  0.4312
  607MOL    O5949751   4.028   6.913   5.466  0.6516 -0.1799 -0.1425
  607MOL    H6049752   4.136   6.982   5.294 -1.0516 -0.3402 -4.0371
  607MOL    H6149753   4.027   6.848   5.275  1.5075 -1.2383  2.1049
  607MOL    C6249754   3.903   6.853   5.489 -0.8958 -1.4286 -0.1714
  607MOL    O6349755   3.907   6.719   5.461 -0.3959  0.5273 -0.0717
  607MOL    H6449756   3.829   6.897   5.423 -0.9317 -0.1878  0.6874
  607MOL    H6549757   3.871   6.862   5.593 -2.9807 -2.6900 -0.6621
  607MOL    C6649758   3.973   6.645   5.563 -0.1923  0.9867 -0.1400
  607MOL    O6749759   3.946   6.511   5.550  0.4403  0.1424 -0.3872
  607MOL    H6849760   3.927   6.671   5.658 -1.5745 -1.2843 -0.1452
  607MOL    H6949761   4.076   6.677   5.574  1.1330 -2.6826 -1.1059
  607MOL    C7049762   4.009   6.446   5.448  0.1915  0.5636  0.1060
  607MOL    O7149763   4.150   6.452   5.455  0.0136 -0.3500  0.2455
  607MOL    H7249764   3.980   6.483   5.350  0.7545 -1.0753 -0.6844
  607MOL    H7349765   3.978   6.342   5.454  1.0690  0.2246 -1.0102
  607MOL    C7449766   4.203   6.390   5.571 -0.3217  0.5280  0.3993
  607MOL    O7549767   4.263   6.263   5.539  0.3185 -0.4893  0.0753
  607MOL    H7649768   4.149   6.384   5.666  0.4612  1.2335  0.8878
  607MOL    H7749769   4.279   6.465   5.593 -1.0910  1.0932  1.2314
  607MOL    C7849770   4.185   6.158   5.586 -1.1694 -0.1355 -0.2412
  607MOL    O7949771   4.243   6.031   5.578  0.0714 -0.7655 -0.0906
  607MOL    H8049772   4.092   6.162   5.529 -1.5347  1.1177  0.4393
  607MOL    H8149773   4.172   6.170   5.693 -1.6392 -2.4845 -0.0117
  607MOL    H8249774   4.324   6.039   5.626  0.6435 -1.4987 -0.9174
  608MOL     C149775   4.369   7.528   4.657 -0.3488 -0.2849 -0.2587
  608MOL     O249776   4.351   7.620   4.556  0.3260 -0.0494  0.0276
  608MOL     H349777   4.315   7.560   4.747 -0.1725  1.4068 -0.7487
  608MOL     H449778   4.325   7.434   4.623 -1.2818  0.0922 -0.1210
  608MOL     H549779   4.470   7.504   4.690 -0.9893 -2.4009  0.2726
  608MOL     C649780   4.363   7.754   4.606  0.3098 -0.3539  0.0366
  608MOL     O749781   4.268   0.000   4.702  0.7847  0.7221  0.8680
  608MOL     H849782   4.356   0.047   4.528 -0.6619 -0.3060  0.1635
  608MOL     H949783   4.459   7.770   4.654  1.3829 -0.4782 -2.0487
  608MOL    C1049784   4.139   0.013   4.652 -0.3949 -0.0042 -0.3279
  608MOL    O1149785   4.132   0.137   4.588 -0.2107  0.1056 -0.5097
  608MOL    H1249786   4.082   0.003   4.744  1.5974 -2.4247  0.7138
  608MOL    H1349787   4.105   7.719   4.584 -0.4709 -0.3687  0.1296
  608MOL    C1449788   4.011   0.199   4.587 -0.1338 -0.1646 -0.2336
  608MOL    O1549789   3.924   0.132   4.501 -0.3200 -0.3380  0.4625
  608MOL    H1649790   4.022   0.306   4.565 -1.6335 -0.0453 -0.4722
  608MOL    H1749791   3.970   0.199   4.687  0.0439 -0.7800 -0.1605
  608MOL    C1849792   3.954   0.154   4.370  0.6784 -0.2652  0.3888
  608MOL    O1949793   3.929   0.285   4.338  0.0987 -0.5375 -0.0627
  608MOL    H2049794   3.908   0.079   4.306  0.7931  1.3700 -1.6558
  608MOL    H2149795   4.061   0.144   4.353  0.2494  0.2065 -2.7899
  608MOL    C2249796   3.792   0.319   4.326  0.0558 -0.7074 -0.5014
  608MOL    O2349797   3.744   0.294   4.202 -0.7484  0.4323 -0.5832
  608MOL    H2449798   3.777   0.425   4.345  1.6743 -0.1899 -2.0328
  608MOL    H2549799   3.737   0.260   4.400 -0.3301 -1.2928 -1.2498
  608MOL    C2649800   3.772   0.386   4.106  0.3333  0.5463 -0.5850
  608MOL    O2749801   3.725   0.510   4.134  0.5023  0.2835  0.3108
  608MOL    H2849802   3.728   0.351   4.013 -1.3085  3.3254 -0.9291
  608MOL    H2949803   3.878   0.395   4.081  0.3775  1.3047 -0.1677
  608MOL    C3049804   3.588   0.518   4.160  0.5650  0.0539 -0.1707
  608MOL    O3149805   3.515   0.526   4.042 -0.4395 -0.2400 -0.2214
  608MOL    H3249806   3.576   0.607   4.222  0.8708 -0.9053  1.2789
  608MOL    H3349807   3.540   0.442   4.221 -1.1188  0.2939 -1.1703
  608MOL    C3449808   3.543   0.641   3.965 -0.1500  0.4865  0.2044
  608MOL    O3549809   3.509   0.623   3.831 -0.4665 -0.3723 -0.2428
  608MOL    H3649810   3.640   0.682   3.990 -0.0174  0.9925 -1.1028
  608MOL    H3749811   3.486   0.728   3.999 -0.3672  0.8417 -1.0489
  608MOL    C3849812   3.587   0.529   3.758  0.2920 -0.8924  0.3338
  608MOL    O3949813   3.718   0.577   3.741  0.0649 -0.6707 -0.2366
  608MOL    H4049814   3.534   0.513   3.664 -0.5659  0.6409  0.5369
  608MOL    H4149815   3.596   0.447   3.830  1.9184 -0.6080  0.4695
  608MOL    C4249816   3.734   0.632   3.616 -0.3208 -0.0601  0.1603
  608MOL    O4349817   3.728   0.540   3.513 -0.0197 -0.4428 -0.5260
  608MOL    H4449818   3.830   0.684   3.608 -1.0778  1.7341  2.3683
  608MOL    H4549819   3.664   0.712   3.592  0.0693 -0.1429 -1.3244
  608MOL    C4649820   3.762   0.593   3.392  0.1732  0.0253  0.0899
  608MOL    O4749821   3.664   0.678   3.339 -0.5876 -0.2286  0.0160
  608MOL    H4849822   3.787   0.516   3.319 -0.0714  0.5953 -0.6039
  608MOL    H4949823   3.849   0.657   3.406  1.0130 -1.6270  2.8994
  608MOL    C5049824   3.546   0.619   3.306  0.3185 -0.1902  0.3217
  608MOL    O5149825   3.562   0.530   3.195 -0.5267  0.6716 -0.1467
  608MOL    H5249826   3.469   0.692   3.280  2.6330  1.2083 -2.8432
  608MOL    H5349827   3.501   0.565   3.390 -0.3072 -1.0510 -0.5543
  608MOL    C5449828   3.486   0.571   3.090  1.2556 -0.0689  0.3029
  608MOL    O5549829   3.349   0.571   3.116  0.0981  0.0723 -0.5677
  608MOL    H5649830   3.496   0.510   3.001 -0.1464  0.2244 -0.0745
  608MOL    H5749831   3.523   0.669   3.059  2.2548 -1.3185 -2.5516
  608MOL    C5849832   3.291   0.444   3.118  0.0269 -0.5837  0.0710
  608MOL    O5949833   3.275   0.390   2.992 -0.0521 -0.8796  0.1478
  608MOL    H6049834   3.192   0.457   3.161 -0.9836 -1.9701 -1.7702
  608MOL    H6149835   3.353   0.377   3.177  1.3483 -0.9860 -1.7160
  608MOL    C6249836   3.201   0.477   2.909 -0.0406  0.4126 -0.4971
  608MOL    O6349837   3.152   0.400   2.796  0.4176 -0.1600 -0.2862
  608MOL    H6449838   3.274   0.549   2.874  1.1065 -0.5566 -0.1446
  608MOL    H6549839   3.113   0.526   2.952 -1.1187 -1.1569 -0.8404
  608MOL    C6649840   3.093   0.278   2.834 -0.1438 -0.7669  0.5707
  608MOL    O6749841   3.020   0.221   2.726  0.1275  0.0811  0.2503
  608MOL    H6849842   3.026   0.300   2.918  1.7438  0.3888  1.8125
  608MOL    H6949843   3.167   0.207   2.870  0.5537  1.1417  3.0556
  608MOL    C7049844   3.097   0.173   2.627 -0.0009 -0.7680 -0.5935
  608MOL    O7149845   3.174   0.058   2.666  0.1806  0.4591 -0.7115
  608MOL    H7249846   3.159   0.256   2.593 -0.3165 -0.5871 -0.7320
  608MOL    H7349847   3.028   0.139   2.549 -1.6931  0.1495  0.4883
  608MOL    C7449848   3.090   7.732   2.687  0.7998  0.1385 -0.0260
  608MOL    O7549849   3.049   7.681   2.563 -0.0223 -0.0494 -0.1160
  608MOL    H7649850   3.002   7.765   2.743  1.2693 -1.6204  1.8234
  608MOL    H7749851   3.135   7.657   2.752  0.0394 -0.2271  0.0957
  608MOL    C7849852   2.958   7.576   2.573 -0.2364  0.4937  0.5003
  608MOL    O7949853   2.956   7.487   2.463  0.1028  0.5141 -0.4038
  608MOL    H8049854   2.855   7.612   2.582 -0.5981  0.1031 -1.7548
  608MOL    H8149855   2.988   7.517   2.659  0.4115  1.6187  1.0681
  608MOL    H8249856   3.047   7.470   2.445  0.0165 -0.2491 -0.1296
  609MOL     C149857   6.707   0.968   4.990  0.2060  0.4422  0.5957
  609MOL     O249858   6.720   0.979   5.134  0.0826  0.3985 -0.4072
  609MOL     H349859   6.730   0.865   4.965 -0.1893  1.1212 -2.7471
  609MOL     H449860   6.606   0.998   4.962 -0.6806 -0.7733  2.3644
  609MOL     H549861   6.762   1.053   4.949 -2.1381  1.2109 -1.0912
  609MOL     C649862   6.843   0.935   5.184  0.8847 -0.0519 -0.2728
  609MOL     O749863   6.947   1.007   5.120  0.1361  0.3204  0.1687
  609MOL     H849864   6.850   0.828   5.161 -2.7600 -0.3929 -0.0548
  609MOL     H949865   6.840   0.958   5.291  1.1536 -1.9079  0.1556
  609MOL    C1049866   6.977   1.136   5.180 -0.4899  0.4912  0.2783
  609MOL    O1149867   7.056   1.133   5.290  0.0839  0.0535  0.6147
  609MOL    H1249868   6.886   1.196   5.187 -0.7135  0.1251  0.5332
  609MOL    H1349869   7.030   1.203   5.112  1.1708  0.1456  1.2127
  609MOL    C1449870   7.182   1.074   5.268 -0.0132 -0.5682  0.1054
  609MOL    O1549871   7.262   1.145   5.173  0.5601 -0.1923 -0.5210
  609MOL    H1649872   7.163   0.974   5.228 -2.8310 -0.2357  0.4956
  609MOL    H1749873   7.234   1.048   5.360 -0.4866 -3.3460 -0.3489
  609MOL    C1849874   7.291   1.276   5.213  0.5939 -0.1573  0.3565
  609MOL    O1949875   7.381   1.326   5.117  0.8495  0.1042 -0.2761
  609MOL    H2049876   7.346   1.272   5.307  2.4345 -2.2938 -0.7425
  609MOL    H2149877   7.199   1.333   5.207 -0.1349 -1.2864  0.6508
  609MOL    C2249878   7.504   1.257   5.114  0.0303  0.1681  0.8799
  609MOL    O2349879   7.587   1.314   5.212  0.1079 -0.1976 -0.6290
  609MOL    H2449880   7.539   1.304   5.022 -4.9271  2.4349  0.0099
  609MOL    H2549881   7.504   1.149   5.102  0.2874  0.3461 -0.9466
  609MOL    C2649882   7.717   1.262   5.200  0.0912 -0.7321  0.0596
  609MOL    O2749883   7.722   1.122   5.201  0.4756  1.2611 -0.1422
  609MOL    H2849884   7.769   1.311   5.282  1.6085 -0.4256 -1.0745
  609MOL    H2949885   7.757   1.276   5.100 -0.4633 -2.4780 -0.4349
  609MOL    C3049886   7.723   1.058   5.326 -0.4581  1.5056  0.2277
  609MOL    O3149887   0.068   1.068   5.390 -0.4104 -0.0242  0.2044
  609MOL    H3249888   7.709   0.952   5.306 -0.0024  1.1944  1.4762
  609MOL    H3349889   7.639   1.102   5.379 -1.0931  0.2937  0.2358
  609MOL    C3449890   0.163   0.998   5.316 -0.5632  0.5341  0.0271
  609MOL    O3549891   0.201   0.893   5.387 -0.9249  0.7403  0.0094
  609MOL    H3649892   0.245   1.070   5.320  1.6853 -1.8740 -1.3650
  609MOL    H3749893   0.129   0.968   5.217  1.0580 -3.2943  0.5384
  609MOL    C3849894   0.137   0.775   5.356 -0.3067  0.1646  0.4761
  609MOL    O3949895   0.146   0.732   5.224  0.2506 -0.1672 -0.7953
  609MOL    H4049896   0.030   0.785   5.374 -0.3549  1.8252 -0.5614
  609MOL    H4149897   0.182   0.703   5.424 -1.2133 -0.9429 -0.0753
  609MOL    C4249898   0.271   0.678   5.195  0.0733  0.3759 -0.9695
  609MOL    O4349899   0.289   0.644   5.064 -0.5030  0.0249 -0.4051
  609MOL    H4449900   0.280   0.584   5.249 -1.4834  0.0712 -1.2019
  609MOL    H4549901   0.346   0.747   5.234  0.9814 -1.3216  0.3424
  609MOL    C4649902   0.348   0.742   4.991 -0.4937 -0.1323  0.1791
  609MOL    O4749903   0.473   0.782   5.028 -0.2807  0.1791  0.4514
  609MOL    H4849904   0.293   0.832   5.017 -0.4541  0.1564 -0.7017
  609MOL    H4949905   0.338   0.725   4.884  1.9559  3.3859 -0.7365
  609MOL    C5049906   0.559   0.679   5.019  0.1329  0.0336 -0.2367
  609MOL    O5149907   0.695   0.722   5.033  0.6150 -0.1459  0.9544
  609MOL    H5249908   0.549   0.627   4.924 -2.0024 -0.4196  0.2022
  609MOL    H5349909   0.538   0.605   5.097  0.0821 -0.6748 -0.9180
  609MOL    C5449910   0.721   0.786   5.153  0.7515 -0.4161  0.3195
  609MOL    O5549911   0.850   0.844   5.149  0.1600  0.0462 -0.5870
  609MOL    H5649912   0.712   0.718   5.238 -0.3972 -0.2873  0.3038
  609MOL    H5749913   0.643   0.858   5.175  0.8433 -1.0021  2.7295
  609MOL    C5849914   0.845   0.971   5.082  0.2542 -0.2415 -0.0657
  609MOL    O5949915   0.765   1.062   5.157  0.2060 -0.1586  0.1775
  609MOL    H6049916   0.819   0.971   4.976  1.9039  0.3471 -0.4868
  609MOL    H6149917   0.941   1.022   5.075 -0.0432  0.6487  1.9888
  609MOL    C6249918   0.835   1.093   5.272 -0.0437 -0.3966 -0.1122
  609MOL    O6349919   0.757   1.153   5.372 -0.0291 -0.5476 -0.0155
  609MOL    H6449920   0.918   1.161   5.259  1.2245 -2.0576 -0.9497
  609MOL    H6549921   0.875   1.002   5.317 -0.1596 -2.0623 -3.2725
  609MOL    C6649922   0.643   1.076   5.395 -0.6672 -0.3755 -0.2018
  609MOL    O6749923   0.675   0.951   5.458  0.5987  0.0043 -0.2802
  609MOL    H6849924   0.586   1.067   5.302  1.7735 -3.1545 -1.4947
  609MOL    H6949925   0.581   1.134   5.464 -1.0520 -0.4613 -0.4742
  609MOL    C7049926   0.744   0.961   5.575  0.4154  0.5157 -0.7328
  609MOL    O7149927   0.776   0.834   5.630  0.0656  0.3778  0.2346
  609MOL    H7249928   0.680   1.006   5.650  0.3517 -0.9027  0.0720
  609MOL    H7349929   0.833   1.024   5.562  0.9841 -0.3081 -0.8630
  609MOL    C7449930   0.864   0.764   5.536 -0.9848  0.3505  0.2385
  609MOL    O7549931   0.932   0.654   5.596 -0.5152  0.6051 -0.9423
  609MOL    H7649932   0.942   0.831   5.500  0.8264 -1.5238  0.5869
  609MOL    H7749933   0.793   0.732   5.460  0.2594 -0.7522 -0.4967
  609MOL    C7849934   1.024   0.686   5.692 -0.0483  0.4245 -0.3012
  609MOL    O7949935   1.080   0.573   5.758  0.0590 -0.3931  0.4530
  609MOL    H8049936   0.977   0.740   5.775  0.8690  1.1344 -0.2313
  609MOL    H8149937   1.107   0.744   5.653  0.1259  0.7963  0.5907
  609MOL    H8249938   1.020   0.548   5.827 -0.8051 -3.4546 -1.3051
   7.78369   7.78369   7.78369
