;
; Gromacs include topology (itp) file.
; For Molecular Group XYZ
; Force field scheme: opls2005
; Produced from DL_FIELD v4.11
;


[ moleculetype ]
; name    nrexcl
XYZ    3

[ atoms ]
; nr   type   resnr   residu    atom    cgnr    charge    mass
    1        CT    1  MOL      C1     1   0.1100000   12.0115
    2        OS    1  MOL      O2     2  -0.4000000   15.9994
    3        HC    1  MOL      H3     3   0.0300000    1.0080
    4        HC    1  MOL      H4     4   0.0300000    1.0080
    5        HC    1  MOL      H5     5   0.0300000    1.0080
    6        CO    1  MOL      C6     6   0.2000000   12.0115
    7        OS    1  MOL      O7     7  -0.4000000   15.9994
    8        HC    1  MOL      H8     8   0.1000000    1.0080
    9        HC    1  MOL      H9     9   0.1000000    1.0080
   10        CO    1  MOL     C10    10   0.2000000   12.0115
   11        OS    1  MOL     O11    11  -0.4000000   15.9994
   12        HC    1  MOL     H12    12   0.1000000    1.0080
   13        HC    1  MOL     H13    13   0.1000000    1.0080
   14        CO    1  MOL     C14    14   0.2000000   12.0115
   15        OS    1  MOL     O15    15  -0.4000000   15.9994
   16        HC    1  MOL     H16    16   0.1000000    1.0080
   17        HC    1  MOL     H17    17   0.1000000    1.0080
   18        CO    1  MOL     C18    18   0.2000000   12.0115
   19        OS    1  MOL     O19    19  -0.4000000   15.9994
   20        HC    1  MOL     H20    20   0.1000000    1.0080
   21        HC    1  MOL     H21    21   0.1000000    1.0080
   22        CO    1  MOL     C22    22   0.2000000   12.0115
   23        OS    1  MOL     O23    23  -0.4000000   15.9994
   24        HC    1  MOL     H24    24   0.1000000    1.0080
   25        HC    1  MOL     H25    25   0.1000000    1.0080
   26        CO    1  MOL     C26    26   0.2000000   12.0115
   27        OS    1  MOL     O27    27  -0.4000000   15.9994
   28        HC    1  MOL     H28    28   0.1000000    1.0080
   29        HC    1  MOL     H29    29   0.1000000    1.0080
   30        CO    1  MOL     C30    30   0.2000000   12.0115
   31        OS    1  MOL     O31    31  -0.4000000   15.9994
   32        HC    1  MOL     H32    32   0.1000000    1.0080
   33        HC    1  MOL     H33    33   0.1000000    1.0080
   34        CO    1  MOL     C34    34   0.2000000   12.0115
   35        OS    1  MOL     O35    35  -0.4000000   15.9994
   36        HC    1  MOL     H36    36   0.1000000    1.0080
   37        HC    1  MOL     H37    37   0.1000000    1.0080
   38        CO    1  MOL     C38    38   0.2000000   12.0115
   39        OS    1  MOL     O39    39  -0.4000000   15.9994
   40        HC    1  MOL     H40    40   0.1000000    1.0080
   41        HC    1  MOL     H41    41   0.1000000    1.0080
   42        CO    1  MOL     C42    42   0.2000000   12.0115
   43        OS    1  MOL     O43    43  -0.4000000   15.9994
   44        HC    1  MOL     H44    44   0.1000000    1.0080
   45        HC    1  MOL     H45    45   0.1000000    1.0080
   46        CO    1  MOL     C46    46   0.2000000   12.0115
   47        OS    1  MOL     O47    47  -0.4000000   15.9994
   48        HC    1  MOL     H48    48   0.1000000    1.0080
   49        HC    1  MOL     H49    49   0.1000000    1.0080
   50        CO    1  MOL     C50    50   0.2000000   12.0115
   51        OS    1  MOL     O51    51  -0.4000000   15.9994
   52        HC    1  MOL     H52    52   0.1000000    1.0080
   53        HC    1  MOL     H53    53   0.1000000    1.0080
   54        CO    1  MOL     C54    54   0.2000000   12.0115
   55        OS    1  MOL     O55    55  -0.4000000   15.9994
   56        HC    1  MOL     H56    56   0.1000000    1.0080
   57        HC    1  MOL     H57    57   0.1000000    1.0080
   58        CO    1  MOL     C58    58   0.2000000   12.0115
   59        OS    1  MOL     O59    59  -0.4000000   15.9994
   60        HC    1  MOL     H60    60   0.1000000    1.0080
   61        HC    1  MOL     H61    61   0.1000000    1.0080
   62        CO    1  MOL     C62    62   0.2000000   12.0115
   63        OS    1  MOL     O63    63  -0.4000000   15.9994
   64        HC    1  MOL     H64    64   0.1000000    1.0080
   65        HC    1  MOL     H65    65   0.1000000    1.0080
   66        CO    1  MOL     C66    66   0.2000000   12.0115
   67        OS    1  MOL     O67    67  -0.4000000   15.9994
   68        HC    1  MOL     H68    68   0.1000000    1.0080
   69        HC    1  MOL     H69    69   0.1000000    1.0080
   70        CO    1  MOL     C70    70   0.2000000   12.0115
   71        OS    1  MOL     O71    71  -0.4000000   15.9994
   72        HC    1  MOL     H72    72   0.1000000    1.0080
   73        HC    1  MOL     H73    73   0.1000000    1.0080
   74        CO    1  MOL     C74    74   0.2000000   12.0115
   75        OS    1  MOL     O75    75  -0.4000000   15.9994
   76        HC    1  MOL     H76    76   0.1000000    1.0080
   77        HC    1  MOL     H77    77   0.1000000    1.0080
   78        CO    1  MOL     C78    78   0.1647000   12.0115
   79       OAL    1  MOL     O79    79  -0.5827000   15.9994
   80        HC    1  MOL     H80    80   0.1000000    1.0080
   81        HC    1  MOL     H81    81   0.1000000    1.0080
   82        HO    1  MOL     H82    82   0.4180000    1.0080

[ bonds ]
      1      2   1      0.1410 267776.0000
      1      3   1      0.1090 284512.0000
      1      4   1      0.1090 284512.0000
      1      5   1      0.1090 284512.0000
      2      6   1      0.1380 267776.0000
      6      7   1      0.1380 267776.0000
      6      8   1      0.1090 284512.0000
      6      9   1      0.1090 284512.0000
      7     10   1      0.1380 267776.0000
     10     11   1      0.1380 267776.0000
     10     12   1      0.1090 284512.0000
     10     13   1      0.1090 284512.0000
     11     14   1      0.1380 267776.0000
     14     15   1      0.1380 267776.0000
     14     16   1      0.1090 284512.0000
     14     17   1      0.1090 284512.0000
     15     18   1      0.1380 267776.0000
     18     19   1      0.1380 267776.0000
     18     20   1      0.1090 284512.0000
     18     21   1      0.1090 284512.0000
     19     22   1      0.1380 267776.0000
     22     23   1      0.1380 267776.0000
     22     24   1      0.1090 284512.0000
     22     25   1      0.1090 284512.0000
     23     26   1      0.1380 267776.0000
     26     27   1      0.1380 267776.0000
     26     28   1      0.1090 284512.0000
     26     29   1      0.1090 284512.0000
     27     30   1      0.1380 267776.0000
     30     31   1      0.1380 267776.0000
     30     32   1      0.1090 284512.0000
     30     33   1      0.1090 284512.0000
     31     34   1      0.1380 267776.0000
     34     35   1      0.1380 267776.0000
     34     36   1      0.1090 284512.0000
     34     37   1      0.1090 284512.0000
     35     38   1      0.1380 267776.0000
     38     39   1      0.1380 267776.0000
     38     40   1      0.1090 284512.0000
     38     41   1      0.1090 284512.0000
     39     42   1      0.1380 267776.0000
     42     43   1      0.1380 267776.0000
     42     44   1      0.1090 284512.0000
     42     45   1      0.1090 284512.0000
     43     46   1      0.1380 267776.0000
     46     47   1      0.1380 267776.0000
     46     48   1      0.1090 284512.0000
     46     49   1      0.1090 284512.0000
     47     50   1      0.1380 267776.0000
     50     51   1      0.1380 267776.0000
     50     52   1      0.1090 284512.0000
     50     53   1      0.1090 284512.0000
     51     54   1      0.1380 267776.0000
     54     55   1      0.1380 267776.0000
     54     56   1      0.1090 284512.0000
     54     57   1      0.1090 284512.0000
     55     58   1      0.1380 267776.0000
     58     59   1      0.1380 267776.0000
     58     60   1      0.1090 284512.0000
     58     61   1      0.1090 284512.0000
     59     62   1      0.1380 267776.0000
     62     63   1      0.1380 267776.0000
     62     64   1      0.1090 284512.0000
     62     65   1      0.1090 284512.0000
     63     66   1      0.1380 267776.0000
     66     67   1      0.1380 267776.0000
     66     68   1      0.1090 284512.0000
     66     69   1      0.1090 284512.0000
     67     70   1      0.1380 267776.0000
     70     71   1      0.1380 267776.0000
     70     72   1      0.1090 284512.0000
     70     73   1      0.1090 284512.0000
     71     74   1      0.1380 267776.0000
     74     75   1      0.1380 267776.0000
     74     76   1      0.1090 284512.0000
     74     77   1      0.1090 284512.0000
     75     78   1      0.1380 267776.0000
     78     79   1      0.1407 317984.0000
     78     80   1      0.1090 284512.0000
     78     81   1      0.1090 284512.0000
     79     82   1      0.0945 462750.4000

[ pairs ]
; ai   aj   funct   fudge_QQ  charge_i   charge_j   c6    c12
      3      6   2   0.50000     0.0300000    0.2000000   2.494471e-04  1.671101e-07
      4      6   2   0.50000     0.0300000    0.2000000   2.494471e-04  1.671101e-07
      5      6   2   0.50000     0.0300000    0.2000000   2.494471e-04  1.671101e-07
      1      7   2   0.50000     0.1100000   -0.4000000   8.411158e-04  8.795366e-07
      1      8   2   0.50000     0.1100000    0.1000000   2.494471e-04  1.671101e-07
      1      9   2   0.50000     0.1100000    0.1000000   2.494471e-04  1.671101e-07
      2     10   2   0.50000    -0.4000000    0.2000000   8.411158e-04  8.795366e-07
      8     10   2   0.50000     0.1000000    0.2000000   2.494471e-04  1.671101e-07
      9     10   2   0.50000     0.1000000    0.2000000   2.494471e-04  1.671101e-07
      6     11   2   0.50000     0.2000000   -0.4000000   8.411158e-04  8.795366e-07
      6     12   2   0.50000     0.2000000    0.1000000   2.494471e-04  1.671101e-07
      6     13   2   0.50000     0.2000000    0.1000000   2.494471e-04  1.671101e-07
      7     14   2   0.50000    -0.4000000    0.2000000   8.411158e-04  8.795366e-07
     12     14   2   0.50000     0.1000000    0.2000000   2.494471e-04  1.671101e-07
     13     14   2   0.50000     0.1000000    0.2000000   2.494471e-04  1.671101e-07
     10     15   2   0.50000     0.2000000   -0.4000000   8.411158e-04  8.795366e-07
     10     16   2   0.50000     0.2000000    0.1000000   2.494471e-04  1.671101e-07
     10     17   2   0.50000     0.2000000    0.1000000   2.494471e-04  1.671101e-07
     11     18   2   0.50000    -0.4000000    0.2000000   8.411158e-04  8.795366e-07
     16     18   2   0.50000     0.1000000    0.2000000   2.494471e-04  1.671101e-07
     17     18   2   0.50000     0.1000000    0.2000000   2.494471e-04  1.671101e-07
     14     19   2   0.50000     0.2000000   -0.4000000   8.411158e-04  8.795366e-07
     14     20   2   0.50000     0.2000000    0.1000000   2.494471e-04  1.671101e-07
     14     21   2   0.50000     0.2000000    0.1000000   2.494471e-04  1.671101e-07
     15     22   2   0.50000    -0.4000000    0.2000000   8.411158e-04  8.795366e-07
     20     22   2   0.50000     0.1000000    0.2000000   2.494471e-04  1.671101e-07
     21     22   2   0.50000     0.1000000    0.2000000   2.494471e-04  1.671101e-07
     18     23   2   0.50000     0.2000000   -0.4000000   8.411158e-04  8.795366e-07
     18     24   2   0.50000     0.2000000    0.1000000   2.494471e-04  1.671101e-07
     18     25   2   0.50000     0.2000000    0.1000000   2.494471e-04  1.671101e-07
     19     26   2   0.50000    -0.4000000    0.2000000   8.411158e-04  8.795366e-07
     24     26   2   0.50000     0.1000000    0.2000000   2.494471e-04  1.671101e-07
     25     26   2   0.50000     0.1000000    0.2000000   2.494471e-04  1.671101e-07
     22     27   2   0.50000     0.2000000   -0.4000000   8.411158e-04  8.795366e-07
     22     28   2   0.50000     0.2000000    0.1000000   2.494471e-04  1.671101e-07
     22     29   2   0.50000     0.2000000    0.1000000   2.494471e-04  1.671101e-07
     23     30   2   0.50000    -0.4000000    0.2000000   8.411158e-04  8.795366e-07
     28     30   2   0.50000     0.1000000    0.2000000   2.494471e-04  1.671101e-07
     29     30   2   0.50000     0.1000000    0.2000000   2.494471e-04  1.671101e-07
     26     31   2   0.50000     0.2000000   -0.4000000   8.411158e-04  8.795366e-07
     26     32   2   0.50000     0.2000000    0.1000000   2.494471e-04  1.671101e-07
     26     33   2   0.50000     0.2000000    0.1000000   2.494471e-04  1.671101e-07
     27     34   2   0.50000    -0.4000000    0.2000000   8.411158e-04  8.795366e-07
     32     34   2   0.50000     0.1000000    0.2000000   2.494471e-04  1.671101e-07
     33     34   2   0.50000     0.1000000    0.2000000   2.494471e-04  1.671101e-07
     30     35   2   0.50000     0.2000000   -0.4000000   8.411158e-04  8.795366e-07
     30     36   2   0.50000     0.2000000    0.1000000   2.494471e-04  1.671101e-07
     30     37   2   0.50000     0.2000000    0.1000000   2.494471e-04  1.671101e-07
     31     38   2   0.50000    -0.4000000    0.2000000   8.411158e-04  8.795366e-07
     36     38   2   0.50000     0.1000000    0.2000000   2.494471e-04  1.671101e-07
     37     38   2   0.50000     0.1000000    0.2000000   2.494471e-04  1.671101e-07
     34     39   2   0.50000     0.2000000   -0.4000000   8.411158e-04  8.795366e-07
     34     40   2   0.50000     0.2000000    0.1000000   2.494471e-04  1.671101e-07
     34     41   2   0.50000     0.2000000    0.1000000   2.494471e-04  1.671101e-07
     35     42   2   0.50000    -0.4000000    0.2000000   8.411158e-04  8.795366e-07
     40     42   2   0.50000     0.1000000    0.2000000   2.494471e-04  1.671101e-07
     41     42   2   0.50000     0.1000000    0.2000000   2.494471e-04  1.671101e-07
     38     43   2   0.50000     0.2000000   -0.4000000   8.411158e-04  8.795366e-07
     38     44   2   0.50000     0.2000000    0.1000000   2.494471e-04  1.671101e-07
     38     45   2   0.50000     0.2000000    0.1000000   2.494471e-04  1.671101e-07
     39     46   2   0.50000    -0.4000000    0.2000000   8.411158e-04  8.795366e-07
     44     46   2   0.50000     0.1000000    0.2000000   2.494471e-04  1.671101e-07
     45     46   2   0.50000     0.1000000    0.2000000   2.494471e-04  1.671101e-07
     42     47   2   0.50000     0.2000000   -0.4000000   8.411158e-04  8.795366e-07
     42     48   2   0.50000     0.2000000    0.1000000   2.494471e-04  1.671101e-07
     42     49   2   0.50000     0.2000000    0.1000000   2.494471e-04  1.671101e-07
     43     50   2   0.50000    -0.4000000    0.2000000   8.411158e-04  8.795366e-07
     48     50   2   0.50000     0.1000000    0.2000000   2.494471e-04  1.671101e-07
     49     50   2   0.50000     0.1000000    0.2000000   2.494471e-04  1.671101e-07
     46     51   2   0.50000     0.2000000   -0.4000000   8.411158e-04  8.795366e-07
     46     52   2   0.50000     0.2000000    0.1000000   2.494471e-04  1.671101e-07
     46     53   2   0.50000     0.2000000    0.1000000   2.494471e-04  1.671101e-07
     47     54   2   0.50000    -0.4000000    0.2000000   8.411158e-04  8.795366e-07
     52     54   2   0.50000     0.1000000    0.2000000   2.494471e-04  1.671101e-07
     53     54   2   0.50000     0.1000000    0.2000000   2.494471e-04  1.671101e-07
     50     55   2   0.50000     0.2000000   -0.4000000   8.411158e-04  8.795366e-07
     50     56   2   0.50000     0.2000000    0.1000000   2.494471e-04  1.671101e-07
     50     57   2   0.50000     0.2000000    0.1000000   2.494471e-04  1.671101e-07
     51     58   2   0.50000    -0.4000000    0.2000000   8.411158e-04  8.795366e-07
     56     58   2   0.50000     0.1000000    0.2000000   2.494471e-04  1.671101e-07
     57     58   2   0.50000     0.1000000    0.2000000   2.494471e-04  1.671101e-07
     54     59   2   0.50000     0.2000000   -0.4000000   8.411158e-04  8.795366e-07
     54     60   2   0.50000     0.2000000    0.1000000   2.494471e-04  1.671101e-07
     54     61   2   0.50000     0.2000000    0.1000000   2.494471e-04  1.671101e-07
     55     62   2   0.50000    -0.4000000    0.2000000   8.411158e-04  8.795366e-07
     60     62   2   0.50000     0.1000000    0.2000000   2.494471e-04  1.671101e-07
     61     62   2   0.50000     0.1000000    0.2000000   2.494471e-04  1.671101e-07
     58     63   2   0.50000     0.2000000   -0.4000000   8.411158e-04  8.795366e-07
     58     64   2   0.50000     0.2000000    0.1000000   2.494471e-04  1.671101e-07
     58     65   2   0.50000     0.2000000    0.1000000   2.494471e-04  1.671101e-07
     59     66   2   0.50000    -0.4000000    0.2000000   8.411158e-04  8.795366e-07
     64     66   2   0.50000     0.1000000    0.2000000   2.494471e-04  1.671101e-07
     65     66   2   0.50000     0.1000000    0.2000000   2.494471e-04  1.671101e-07
     62     67   2   0.50000     0.2000000   -0.4000000   8.411158e-04  8.795366e-07
     62     68   2   0.50000     0.2000000    0.1000000   2.494471e-04  1.671101e-07
     62     69   2   0.50000     0.2000000    0.1000000   2.494471e-04  1.671101e-07
     63     70   2   0.50000    -0.4000000    0.2000000   8.411158e-04  8.795366e-07
     68     70   2   0.50000     0.1000000    0.2000000   2.494471e-04  1.671101e-07
     69     70   2   0.50000     0.1000000    0.2000000   2.494471e-04  1.671101e-07
     66     71   2   0.50000     0.2000000   -0.4000000   8.411158e-04  8.795366e-07
     66     72   2   0.50000     0.2000000    0.1000000   2.494471e-04  1.671101e-07
     66     73   2   0.50000     0.2000000    0.1000000   2.494471e-04  1.671101e-07
     67     74   2   0.50000    -0.4000000    0.2000000   8.411158e-04  8.795366e-07
     72     74   2   0.50000     0.1000000    0.2000000   2.494471e-04  1.671101e-07
     73     74   2   0.50000     0.1000000    0.2000000   2.494471e-04  1.671101e-07
     70     75   2   0.50000     0.2000000   -0.4000000   8.411158e-04  8.795366e-07
     70     76   2   0.50000     0.2000000    0.1000000   2.494471e-04  1.671101e-07
     70     77   2   0.50000     0.2000000    0.1000000   2.494471e-04  1.671101e-07
     71     78   2   0.50000    -0.4000000    0.1647000   8.411158e-04  8.795366e-07
     76     78   2   0.50000     0.1000000    0.1647000   2.494471e-04  1.671101e-07
     77     78   2   0.50000     0.1000000    0.1647000   2.494471e-04  1.671101e-07
     74     79   2   0.50000     0.2000000   -0.5827000   1.154213e-03  1.502983e-06
     74     80   2   0.50000     0.2000000    0.1000000   2.494471e-04  1.671101e-07
     74     81   2   0.50000     0.2000000    0.1000000   2.494471e-04  1.671101e-07
     75     82   2   0.50000    -0.4000000    0.4180000   1.653295e-06  5.040276e-12
     80     82   2   0.50000     0.1000000    0.4180000   4.903125e-07  9.576416e-13
     81     82   2   0.50000     0.1000000    0.4180000   4.903125e-07  9.576416e-13

[ angles ]
; ai  aj  ak
      2      1      3   1    109.5000    292.8800
      2      1      4   1    109.5000    292.8800
      2      1      5   1    109.5000    292.8800
      3      1      4   1    107.8000    276.1440
      3      1      5   1    107.8000    276.1440
      4      1      5   1    107.8000    276.1440
      1      2      6   1    109.5000    502.0800
      2      6      7   1    111.5500    774.8768
      2      6      8   1    109.5000    292.8800
      2      6      9   1    109.5000    292.8800
      7      6      8   1    109.5000    292.8800
      7      6      9   1    109.5000    292.8800
      8      6      9   1    109.5000    276.1440
      6      7     10   1    109.5880    836.8000
      7     10     11   1    111.5500    774.8768
      7     10     12   1    109.5000    292.8800
      7     10     13   1    109.5000    292.8800
     11     10     12   1    109.5000    292.8800
     11     10     13   1    109.5000    292.8800
     12     10     13   1    109.5000    276.1440
     10     11     14   1    109.5880    836.8000
     11     14     15   1    111.5500    774.8768
     11     14     16   1    109.5000    292.8800
     11     14     17   1    109.5000    292.8800
     15     14     16   1    109.5000    292.8800
     15     14     17   1    109.5000    292.8800
     16     14     17   1    109.5000    276.1440
     14     15     18   1    109.5880    836.8000
     15     18     19   1    111.5500    774.8768
     15     18     20   1    109.5000    292.8800
     15     18     21   1    109.5000    292.8800
     19     18     20   1    109.5000    292.8800
     19     18     21   1    109.5000    292.8800
     20     18     21   1    109.5000    276.1440
     18     19     22   1    109.5880    836.8000
     19     22     23   1    111.5500    774.8768
     19     22     24   1    109.5000    292.8800
     19     22     25   1    109.5000    292.8800
     23     22     24   1    109.5000    292.8800
     23     22     25   1    109.5000    292.8800
     24     22     25   1    109.5000    276.1440
     22     23     26   1    109.5880    836.8000
     23     26     27   1    111.5500    774.8768
     23     26     28   1    109.5000    292.8800
     23     26     29   1    109.5000    292.8800
     27     26     28   1    109.5000    292.8800
     27     26     29   1    109.5000    292.8800
     28     26     29   1    109.5000    276.1440
     26     27     30   1    109.5880    836.8000
     27     30     31   1    111.5500    774.8768
     27     30     32   1    109.5000    292.8800
     27     30     33   1    109.5000    292.8800
     31     30     32   1    109.5000    292.8800
     31     30     33   1    109.5000    292.8800
     32     30     33   1    109.5000    276.1440
     30     31     34   1    109.5880    836.8000
     31     34     35   1    111.5500    774.8768
     31     34     36   1    109.5000    292.8800
     31     34     37   1    109.5000    292.8800
     35     34     36   1    109.5000    292.8800
     35     34     37   1    109.5000    292.8800
     36     34     37   1    109.5000    276.1440
     34     35     38   1    109.5880    836.8000
     35     38     39   1    111.5500    774.8768
     35     38     40   1    109.5000    292.8800
     35     38     41   1    109.5000    292.8800
     39     38     40   1    109.5000    292.8800
     39     38     41   1    109.5000    292.8800
     40     38     41   1    109.5000    276.1440
     38     39     42   1    109.5880    836.8000
     39     42     43   1    111.5500    774.8768
     39     42     44   1    109.5000    292.8800
     39     42     45   1    109.5000    292.8800
     43     42     44   1    109.5000    292.8800
     43     42     45   1    109.5000    292.8800
     44     42     45   1    109.5000    276.1440
     42     43     46   1    109.5880    836.8000
     43     46     47   1    111.5500    774.8768
     43     46     48   1    109.5000    292.8800
     43     46     49   1    109.5000    292.8800
     47     46     48   1    109.5000    292.8800
     47     46     49   1    109.5000    292.8800
     48     46     49   1    109.5000    276.1440
     46     47     50   1    109.5880    836.8000
     47     50     51   1    111.5500    774.8768
     47     50     52   1    109.5000    292.8800
     47     50     53   1    109.5000    292.8800
     51     50     52   1    109.5000    292.8800
     51     50     53   1    109.5000    292.8800
     52     50     53   1    109.5000    276.1440
     50     51     54   1    109.5880    836.8000
     51     54     55   1    111.5500    774.8768
     51     54     56   1    109.5000    292.8800
     51     54     57   1    109.5000    292.8800
     55     54     56   1    109.5000    292.8800
     55     54     57   1    109.5000    292.8800
     56     54     57   1    109.5000    276.1440
     54     55     58   1    109.5880    836.8000
     55     58     59   1    111.5500    774.8768
     55     58     60   1    109.5000    292.8800
     55     58     61   1    109.5000    292.8800
     59     58     60   1    109.5000    292.8800
     59     58     61   1    109.5000    292.8800
     60     58     61   1    109.5000    276.1440
     58     59     62   1    109.5880    836.8000
     59     62     63   1    111.5500    774.8768
     59     62     64   1    109.5000    292.8800
     59     62     65   1    109.5000    292.8800
     63     62     64   1    109.5000    292.8800
     63     62     65   1    109.5000    292.8800
     64     62     65   1    109.5000    276.1440
     62     63     66   1    109.5880    836.8000
     63     66     67   1    111.5500    774.8768
     63     66     68   1    109.5000    292.8800
     63     66     69   1    109.5000    292.8800
     67     66     68   1    109.5000    292.8800
     67     66     69   1    109.5000    292.8800
     68     66     69   1    109.5000    276.1440
     66     67     70   1    109.5880    836.8000
     67     70     71   1    111.5500    774.8768
     67     70     72   1    109.5000    292.8800
     67     70     73   1    109.5000    292.8800
     71     70     72   1    109.5000    292.8800
     71     70     73   1    109.5000    292.8800
     72     70     73   1    109.5000    276.1440
     70     71     74   1    109.5880    836.8000
     71     74     75   1    111.5500    774.8768
     71     74     76   1    109.5000    292.8800
     71     74     77   1    109.5000    292.8800
     75     74     76   1    109.5000    292.8800
     75     74     77   1    109.5000    292.8800
     76     74     77   1    109.5000    276.1440
     74     75     78   1    109.5880    836.8000
     75     78     79   1    112.0800    920.4800
     75     78     80   1    109.5000    292.8800
     75     78     81   1    109.5000    292.8800
     79     78     80   1    108.0250    502.0800
     79     78     81   1    108.0250    502.0800
     80     78     81   1    109.5000    276.1440
     78     79     82   1    107.9200    585.7600

[ dihedrals ]
; Proper dihedrals
      3      1      2      6   5     0.00000     0.00000     3.10034  0.0
      4      1      2      6   5     0.00000     0.00000     3.10034  0.0
      5      1      2      6   5     0.00000     0.00000     3.10034  0.0
      1      2      6      7   5    -4.46433    -6.55633     2.82420  0.0
      1      2      6      8   5     0.00000     0.00000     3.10034  0.0
      1      2      6      9   5     0.00000     0.00000     3.10034  0.0
      2      6      7     10   5    -4.46433    -6.55633     2.82420  0.0
      8      6      7     10   5     0.00000     0.00000     3.10034  0.0
      9      6      7     10   5     0.00000     0.00000     3.10034  0.0
      6      7     10     11   5    -4.46433    -6.55633     2.82420  0.0
      6      7     10     12   5     0.00000     0.00000     3.10034  0.0
      6      7     10     13   5     0.00000     0.00000     3.10034  0.0
      7     10     11     14   5    -4.46433    -6.55633     2.82420  0.0
     12     10     11     14   5     0.00000     0.00000     3.10034  0.0
     13     10     11     14   5     0.00000     0.00000     3.10034  0.0
     10     11     14     15   5    -4.46433    -6.55633     2.82420  0.0
     10     11     14     16   5     0.00000     0.00000     3.10034  0.0
     10     11     14     17   5     0.00000     0.00000     3.10034  0.0
     11     14     15     18   5    -4.46433    -6.55633     2.82420  0.0
     16     14     15     18   5     0.00000     0.00000     3.10034  0.0
     17     14     15     18   5     0.00000     0.00000     3.10034  0.0
     14     15     18     19   5    -4.46433    -6.55633     2.82420  0.0
     14     15     18     20   5     0.00000     0.00000     3.10034  0.0
     14     15     18     21   5     0.00000     0.00000     3.10034  0.0
     15     18     19     22   5    -4.46433    -6.55633     2.82420  0.0
     20     18     19     22   5     0.00000     0.00000     3.10034  0.0
     21     18     19     22   5     0.00000     0.00000     3.10034  0.0
     18     19     22     23   5    -4.46433    -6.55633     2.82420  0.0
     18     19     22     24   5     0.00000     0.00000     3.10034  0.0
     18     19     22     25   5     0.00000     0.00000     3.10034  0.0
     19     22     23     26   5    -4.46433    -6.55633     2.82420  0.0
     24     22     23     26   5     0.00000     0.00000     3.10034  0.0
     25     22     23     26   5     0.00000     0.00000     3.10034  0.0
     22     23     26     27   5    -4.46433    -6.55633     2.82420  0.0
     22     23     26     28   5     0.00000     0.00000     3.10034  0.0
     22     23     26     29   5     0.00000     0.00000     3.10034  0.0
     23     26     27     30   5    -4.46433    -6.55633     2.82420  0.0
     28     26     27     30   5     0.00000     0.00000     3.10034  0.0
     29     26     27     30   5     0.00000     0.00000     3.10034  0.0
     26     27     30     31   5    -4.46433    -6.55633     2.82420  0.0
     26     27     30     32   5     0.00000     0.00000     3.10034  0.0
     26     27     30     33   5     0.00000     0.00000     3.10034  0.0
     27     30     31     34   5    -4.46433    -6.55633     2.82420  0.0
     32     30     31     34   5     0.00000     0.00000     3.10034  0.0
     33     30     31     34   5     0.00000     0.00000     3.10034  0.0
     30     31     34     35   5    -4.46433    -6.55633     2.82420  0.0
     30     31     34     36   5     0.00000     0.00000     3.10034  0.0
     30     31     34     37   5     0.00000     0.00000     3.10034  0.0
     31     34     35     38   5    -4.46433    -6.55633     2.82420  0.0
     36     34     35     38   5     0.00000     0.00000     3.10034  0.0
     37     34     35     38   5     0.00000     0.00000     3.10034  0.0
     34     35     38     39   5    -4.46433    -6.55633     2.82420  0.0
     34     35     38     40   5     0.00000     0.00000     3.10034  0.0
     34     35     38     41   5     0.00000     0.00000     3.10034  0.0
     35     38     39     42   5    -4.46433    -6.55633     2.82420  0.0
     40     38     39     42   5     0.00000     0.00000     3.10034  0.0
     41     38     39     42   5     0.00000     0.00000     3.10034  0.0
     38     39     42     43   5    -4.46433    -6.55633     2.82420  0.0
     38     39     42     44   5     0.00000     0.00000     3.10034  0.0
     38     39     42     45   5     0.00000     0.00000     3.10034  0.0
     39     42     43     46   5    -4.46433    -6.55633     2.82420  0.0
     44     42     43     46   5     0.00000     0.00000     3.10034  0.0
     45     42     43     46   5     0.00000     0.00000     3.10034  0.0
     42     43     46     47   5    -4.46433    -6.55633     2.82420  0.0
     42     43     46     48   5     0.00000     0.00000     3.10034  0.0
     42     43     46     49   5     0.00000     0.00000     3.10034  0.0
     43     46     47     50   5    -4.46433    -6.55633     2.82420  0.0
     48     46     47     50   5     0.00000     0.00000     3.10034  0.0
     49     46     47     50   5     0.00000     0.00000     3.10034  0.0
     46     47     50     51   5    -4.46433    -6.55633     2.82420  0.0
     46     47     50     52   5     0.00000     0.00000     3.10034  0.0
     46     47     50     53   5     0.00000     0.00000     3.10034  0.0
     47     50     51     54   5    -4.46433    -6.55633     2.82420  0.0
     52     50     51     54   5     0.00000     0.00000     3.10034  0.0
     53     50     51     54   5     0.00000     0.00000     3.10034  0.0
     50     51     54     55   5    -4.46433    -6.55633     2.82420  0.0
     50     51     54     56   5     0.00000     0.00000     3.10034  0.0
     50     51     54     57   5     0.00000     0.00000     3.10034  0.0
     51     54     55     58   5    -4.46433    -6.55633     2.82420  0.0
     56     54     55     58   5     0.00000     0.00000     3.10034  0.0
     57     54     55     58   5     0.00000     0.00000     3.10034  0.0
     54     55     58     59   5    -4.46433    -6.55633     2.82420  0.0
     54     55     58     60   5     0.00000     0.00000     3.10034  0.0
     54     55     58     61   5     0.00000     0.00000     3.10034  0.0
     55     58     59     62   5    -4.46433    -6.55633     2.82420  0.0
     60     58     59     62   5     0.00000     0.00000     3.10034  0.0
     61     58     59     62   5     0.00000     0.00000     3.10034  0.0
     58     59     62     63   5    -4.46433    -6.55633     2.82420  0.0
     58     59     62     64   5     0.00000     0.00000     3.10034  0.0
     58     59     62     65   5     0.00000     0.00000     3.10034  0.0
     59     62     63     66   5    -4.46433    -6.55633     2.82420  0.0
     64     62     63     66   5     0.00000     0.00000     3.10034  0.0
     65     62     63     66   5     0.00000     0.00000     3.10034  0.0
     62     63     66     67   5    -4.46433    -6.55633     2.82420  0.0
     62     63     66     68   5     0.00000     0.00000     3.10034  0.0
     62     63     66     69   5     0.00000     0.00000     3.10034  0.0
     63     66     67     70   5    -4.46433    -6.55633     2.82420  0.0
     68     66     67     70   5     0.00000     0.00000     3.10034  0.0
     69     66     67     70   5     0.00000     0.00000     3.10034  0.0
     66     67     70     71   5    -4.46433    -6.55633     2.82420  0.0
     66     67     70     72   5     0.00000     0.00000     3.10034  0.0
     66     67     70     73   5     0.00000     0.00000     3.10034  0.0
     67     70     71     74   5    -4.46433    -6.55633     2.82420  0.0
     72     70     71     74   5     0.00000     0.00000     3.10034  0.0
     73     70     71     74   5     0.00000     0.00000     3.10034  0.0
     70     71     74     75   5    -4.46433    -6.55633     2.82420  0.0
     70     71     74     76   5     0.00000     0.00000     3.10034  0.0
     70     71     74     77   5     0.00000     0.00000     3.10034  0.0
     71     74     75     78   5    -4.46433    -6.55633     2.82420  0.0
     76     74     75     78   5     0.00000     0.00000     3.10034  0.0
     77     74     75     78   5     0.00000     0.00000     3.10034  0.0
     74     75     78     79   5     0.00000     0.00000     3.13800  0.0
     74     75     78     80   5     0.00000     0.00000     3.10034  0.0
     74     75     78     81   5     0.00000     0.00000     3.10034  0.0
     75     78     79     82   5    -4.18400    -6.18814     1.43511  0.0
     80     78     79     82   5     0.00000     0.00000     1.62758  0.0
     81     78     79     82   5     0.00000     0.00000     1.62758  0.0
