Control file title. For DL_FIELD 4.10
49660
    1MOL     C1    1   2.500   0.524   4.555  0.9800 -0.0999  0.0430
    1MOL     C2    2   2.485   0.579   4.704 -1.0127  0.7043  0.4001
    1MOL     O3    3   2.490   0.468   4.788  0.2948 -0.4030 -0.4354
    1MOL     C4    4   2.386   0.379   4.797 -0.6122 -0.1019  0.2356
    1MOL     C5    5   2.386   0.298   4.926  0.1967  0.0324 -0.4824
    1MOL     C6    6   2.488   0.182   4.912 -0.0871  0.5577  0.0209
    1MOL     C7    7   2.244   0.241   4.953 -0.6749  0.1855  0.4009
    1MOL     H8    8   2.533   0.595   4.480 -1.2396  0.8556 -0.0610
    1MOL     H9    9   2.577   0.447   4.544  0.0907 -0.4829 -4.4038
    1MOL    H10   10   2.393   0.629   4.734 -0.8199  1.3259 -0.0482
    1MOL    H11   11   2.387   0.319   4.706  0.8994 -1.0358  0.8393
    1MOL    H12   12   2.285   0.418   4.788 -1.2213 -2.0098 -1.6982
    1MOL    H13   13   2.418   0.363   5.008 -1.5430  0.7643 -0.3684
    1MOL    H14   14   2.590   0.213   4.891  0.9071 -1.4769  1.6351
    1MOL    H15   15   2.491   0.138   5.012  0.2026 -1.8480 -0.9904
    1MOL    H16   16   2.456   0.098   4.850  1.5007  2.0884 -2.9703
    1MOL    H17   17   2.248   0.174   5.040 -1.9247  2.7916  2.5424
    1MOL    H18   18   2.168   0.316   4.975 -1.6084 -0.3384 -1.0404
    1MOL    H19   19   2.214   0.168   4.879  0.8715 -0.2760  0.2109
    1MOL    H20   20   2.405   0.482   4.523  0.4003  0.5185  0.9362
    1MOL    C21   21   2.596   0.689   4.740  0.0250  0.2972 -0.3373
    1MOL    C22   22   2.573   0.767   4.874 -0.7645  0.3142  0.4519
    1MOL    O23   23   2.704   0.814   4.925 -0.2005  0.0813 -0.1373
    1MOL    C24   24   2.761   0.726   5.018  0.4626  0.0702  0.0992
    1MOL    C25   25   2.908   0.772   5.036 -0.4459  0.0516  0.0093
    1MOL    C26   26   2.988   0.730   4.909 -0.0614  0.1794 -0.3867
    1MOL    C27   27   2.916   0.921   5.076 -0.4680 -0.6173  0.0112
    1MOL    H28   28   2.692   0.637   4.741 -1.5214 -2.7154 -0.3616
    1MOL    H29   29   2.599   0.760   4.658 -1.3463  2.1097  1.1490
    1MOL    H30   30   2.525   0.700   4.945  0.7141  0.8574  2.0020
    1MOL    H31   31   2.757   0.624   4.981  0.0362  0.8086 -1.9419
    1MOL    H32   32   2.704   0.725   5.111  1.0200 -0.1507  0.4400
    1MOL    H33   33   2.933   0.711   5.123  2.2207 -0.6430 -1.1915
    1MOL    H34   34   2.948   0.763   4.814  0.6725 -1.0272 -1.1340
    1MOL    H35   35   2.992   0.621   4.897  1.6097  0.0275  1.1418
    1MOL    H36   36   3.091   0.765   4.915 -0.4366  1.1543  0.5864
    1MOL    H37   37   2.878   0.985   4.997  1.7073  3.0459  1.8124
    1MOL    H38   38   2.857   0.937   5.166  1.4317  1.2602  0.9503
    1MOL    H39   39   3.019   0.957   5.081 -0.7624  0.2821 -0.3441
    1MOL    C40   40   2.498   0.892   4.859  0.4669 -0.2121 -0.3807
    1MOL    C41   41   2.448   0.952   4.988 -0.0114 -0.2622 -0.2076
    1MOL    O42   42   2.332   0.868   5.026 -0.2823 -0.3348 -0.2933
    1MOL    C43   43   2.337   0.805   5.154 -0.4151 -0.8392 -0.8882
    1MOL    C44   44   2.199   0.739   5.183 -0.1656  0.6932  0.2177
    1MOL    C45   45   2.191   0.618   5.097 -0.1828  0.2524 -0.2775
    1MOL    C46   46   2.169   0.711   5.329  0.9834  0.6126 -0.9197
    1MOL    H47   47   2.413   0.867   4.795 -0.7184  1.5973  0.4337
    1MOL    H48   48   2.554   0.969   4.806 -2.3649  2.1341 -0.0965
    1MOL    H49   49   2.520   0.950   5.070 -0.9675  1.4494  0.6983
    1MOL    H50   50   2.359   0.889   5.221  0.3142 -1.5831 -0.1767
    1MOL    H51   51   2.426   0.743   5.168  0.9747  1.8319  3.1498
    1MOL    H52   52   2.120   0.808   5.153 -0.6371 -1.1492 -2.9345
    1MOL    H53   53   2.207   0.651   4.994 -0.1656 -0.3547 -0.4671
    1MOL    H54   54   2.272   0.549   5.116 -1.5633 -1.1797  0.5003
    1MOL    H55   55   2.099   0.563   5.116  0.3273 -0.2461  0.7485
    1MOL    H56   56   2.172   0.803   5.388  1.0511  0.1103 -0.1399
    1MOL    H57   57   2.221   0.628   5.376 -0.8891 -0.0209  0.1241
    1MOL    H58   58   2.063   0.689   5.342  1.4436 -0.6913  0.7641
    1MOL    C59   59   2.394   1.097   4.965  0.2531 -0.2210  0.3263
    1MOL    C60   60   2.360   1.190   5.082 -1.0484 -0.1979 -0.5865
    1MOL    O61   61   2.326   1.318   5.034  0.4438 -0.0488  0.1157
    1MOL    C62   62   2.193   1.335   5.001 -1.0970  0.1562  0.3968
    1MOL    C63   63   2.171   1.478   4.966 -0.0224  0.2241 -0.1449
    1MOL    C64   64   2.208   1.580   5.074  0.2126  0.3065 -0.3843
    1MOL    C65   65   2.237   1.508   4.829  0.2047  0.1852  0.1538
    1MOL    H66   66   2.322   1.099   4.884  1.3721  0.0134 -0.6651
    1MOL    H67   67   2.474   1.154   4.918  0.3939  0.9569  1.9388
    1MOL    H68   68   2.280   1.137   5.134 -0.8029  0.3194  0.3271
    1MOL    H69   69   2.165   1.267   4.921 -0.0325  0.5130 -0.2868
    1MOL    H70   70   2.116   1.309   5.073 -0.4202 -0.9886  0.7214
    1MOL    H71   71   2.063   1.488   4.960 -0.2942 -1.9333  0.4926
    1MOL    H72   72   2.310   1.616   5.062 -0.2324  1.2807 -1.3919
    1MOL    H73   73   2.186   1.549   5.176 -1.3815  0.9406 -0.5157
    1MOL    H74   74   2.149   1.672   5.067  0.5092  0.4889 -0.4713
    1MOL    H75   75   2.201   1.453   4.743 -0.1789 -2.3871  1.9070
    1MOL    H76   76   2.232   1.613   4.798 -1.1616  0.0499 -0.0991
    1MOL    H77   77   2.340   1.474   4.841  0.1936  0.2076  0.3238
    1MOL    C78   78   2.473   1.215   5.187  0.0568  0.2285  0.1333
    1MOL    C79   79   2.420   1.239   5.331 -0.1568 -0.5712  0.3329
    1MOL    O80   80   2.530   1.183   5.412 -1.0458  0.5296 -0.6375
    1MOL    C81   81   2.501   1.059   5.472  0.4362  0.2063 -0.5892
    1MOL    C82   82   2.626   0.982   5.504  0.0300  0.1568  0.7952
    1MOL    C83   83   2.717   0.983   5.378 -0.1663 -0.1831  0.6380
    1MOL    C84   84   2.592   0.840   5.547  0.4178  0.2337  0.1060
    1MOL    H85   85   2.525   1.307   5.162  0.2729 -0.1866 -1.0010
    1MOL    H86   86   2.544   1.132   5.186 -0.6864 -0.4164  0.2542
    1MOL    H87   87   2.332   1.178   5.350 -0.2663  0.4050  3.1660
    1MOL    H88   88   2.443   1.094   5.557  2.0796  1.2269  0.1257
    1MOL    H89   89   2.440   0.991   5.413  0.9713 -0.6620 -0.1550
    1MOL    H90   90   2.680   1.032   5.585  0.8752 -0.2854  0.5103
    1MOL    H91   91   2.756   1.079   5.346  1.7834 -0.7461  1.2699
    1MOL    H92   92   2.669   0.941   5.290  4.0820  0.1607 -1.9479
    1MOL    H93   93   2.808   0.929   5.404  1.0297  1.0893 -0.8482
    1MOL    H94   94   2.677   0.779   5.576  2.9119  2.6678 -1.8234
    1MOL    H95   95   2.546   0.780   5.468 -0.0775  0.5493  0.1536
    1MOL    H96   96   2.534   0.827   5.639 -0.6702  2.3701 -0.2460
    1MOL    C97   97   2.373   1.382   5.356  0.2532  0.2531  0.8483
    1MOL    C98   98   2.301   1.409   5.486  0.2346  0.0392 -0.2675
    1MOL    O99   99   2.223   1.529   5.472 -0.1144 -0.0416  1.0944
    1MOL   C100  100   2.083   1.502   5.462  0.1247  0.0803  0.4154
    1MOL   C101  101   1.997   1.618   5.407  0.4002  0.5932  0.1810
    1MOL   C102  102   1.881   1.564   5.323  1.1471 -0.1480  0.2843
    1MOL   C103  103   1.952   1.721   5.509  0.0368  0.3260 -0.1530
    1MOL   H104  104   2.293   1.402   5.286  0.0624 -0.5104  0.8376
    1MOL   H105  105   2.457   1.447   5.332 -0.6370  1.2211  0.3548
    1MOL   H106  106   2.235   1.326   5.509 -1.0048  1.3400  1.0074
    1MOL   H107  107   2.055   1.465   5.560  0.9384 -1.8678 -0.0571
    1MOL   H108  108   2.079   1.417   5.394 -0.0464  0.2150  0.2555
    1MOL   H109  109   2.074   1.664   5.345 -0.1474  0.6271 -0.4842
    1MOL   H110  110   1.919   1.510   5.237  1.3225  0.1571  0.1683
    1MOL   H111  111   1.810   1.502   5.377  2.9737 -2.3240  0.2323
    1MOL   H112  112   1.824   1.649   5.283  1.9221  0.9608  1.4825
    1MOL   H113  113   2.013   1.731   5.599  0.3096  0.8167 -0.3896
    1MOL   H114  114   1.944   1.811   5.449  1.1308  0.2198 -0.4720
    1MOL   H115  115   1.857   1.683   5.548  0.7856 -0.3968  1.0317
    1MOL   C116  116   2.407   1.419   5.603  0.1267 -0.0652  0.5059
    1MOL   C117  117   2.352   1.386   5.740 -0.6362 -0.4049 -0.7273
    1MOL   O118  118   2.302   1.252   5.739  0.8403 -0.1059  0.1381
    1MOL   C119  119   2.211   1.218   5.841 -0.0106  0.1807  0.5420
    1MOL   C120  120   2.177   1.071   5.825  0.0926 -0.2364 -0.0816
    1MOL   C121  121   2.125   1.037   5.688  0.4328  0.2941  0.2664
    1MOL   C122  122   2.289   0.980   5.871  0.0526  0.3322 -0.2145
    1MOL   H123  123   2.477   1.338   5.584 -0.0717  0.1172 -1.1478
    1MOL   H124  124   2.453   1.518   5.596 -1.0458  0.4806  0.3609
    1MOL   H125  125   2.265   1.451   5.753  0.5748  1.2519 -0.7633
    1MOL   H126  126   2.127   1.288   5.848 -0.4015 -0.2930  0.6198
    1MOL   H127  127   2.266   1.230   5.934 -1.4669 -3.2036  1.9246
    1MOL   H128  128   2.097   1.057   5.897  1.9680 -0.0254  2.0792
    1MOL   H129  129   2.207   1.051   5.617  1.5666 -0.1234  1.4827
    1MOL   H130  130   2.051   1.111   5.659 -0.2908 -1.6103 -3.0833
    1MOL   H131  131   2.076   0.940   5.679 -2.6454  1.7697  0.6495
    1MOL   H132  132   2.262   0.877   5.845 -0.4963  0.9057 -1.9497
    1MOL   H133  133   2.385   1.000   5.825  0.8499 -0.8589  0.8930
    1MOL   H134  134   2.300   0.994   5.979 -0.6245  1.3270 -0.2702
    1MOL   C135  135   2.451   1.413   5.853 -0.9762  0.1078 -0.6557
    1MOL   C136  136   2.460   1.567   5.887  0.7224 -0.6025 -0.0527
    1MOL   O137  137   2.338   1.614   5.946 -0.1666  0.3083  0.5589
    1MOL   C138  138   2.291   1.734   5.886 -0.1770  1.1414  0.4016
    1MOL   C139  139   2.177   1.785   5.973 -0.1119 -0.6916  0.3762
    1MOL   C140  140   2.213   1.805   6.123  0.6043 -0.2132 -0.4650
    1MOL   C141  141   2.103   1.900   5.911 -0.5493  0.4816 -0.0613
    1MOL   H142  142   2.427   1.347   5.937 -0.0662 -1.0156 -1.2553
    1MOL   H143  143   2.553   1.386   5.825 -1.2639 -1.3505 -0.3579
    1MOL   H144  144   2.475   1.619   5.793 -1.3895  0.7217  0.3207
    1MOL   H145  145   2.256   1.719   5.784  0.1651  0.1502  0.4260
    1MOL   H146  146   2.372   1.807   5.883 -0.2495  1.1743 -1.6666
    1MOL   H147  147   2.107   1.702   5.982 -0.3783 -0.4276  0.7979
    1MOL   H148  148   2.272   1.726   6.170  0.2314  1.4175  2.8814
    1MOL   H149  149   2.119   1.822   6.175  0.3833  3.8906 -2.0652
    1MOL   H150  150   2.258   1.900   6.152  0.6574 -0.2929 -0.2839
    1MOL   H151  151   2.018   1.926   5.975  0.9977 -0.6029  2.4892
    1MOL   H152  152   2.174   1.982   5.909  1.3148 -1.0237  1.9548
    1MOL   H153  153   2.062   1.870   5.814  0.4821 -1.7101  0.1670
    1MOL   C154  154   2.572   1.617   5.985 -0.0883  0.1157 -0.0959
    1MOL   C155  155   2.712   1.601   5.921  0.1666  0.3295  0.2572
    1MOL   O156  156   2.728   1.679   5.806  0.2148  0.2357 -0.9427
    1MOL   C157  157   2.777   1.617   5.693 -0.6201  0.7239 -0.3356
    1MOL   C158  158   2.773   1.723   5.577 -0.7999  0.0226 -0.3642
    1MOL   C159  159   2.867   1.846   5.602  0.0809  0.9091 -0.2496
    1MOL   C160  160   2.793   1.650   5.447 -0.0882  0.4586  0.0100
    1MOL   H161  161   2.570   1.558   6.077  3.2981 -0.9445 -0.6016
    1MOL   H162  162   2.563   1.724   5.999 -0.0315 -0.0049  0.9008
    1MOL   H163  163   2.736   1.497   5.901 -1.9342 -0.0070 -0.6300
    1MOL   H164  164   2.718   1.529   5.667 -0.3205  0.3809  0.1514
    1MOL   H165  165   2.882   1.599   5.715 -0.6869  0.4271 -0.2637
    1MOL   H166  166   2.670   1.755   5.561 -1.3659 -0.7207  1.6466
    1MOL   H167  167   2.971   1.818   5.614  0.1159  1.2380  0.2011
    1MOL   H168  168   2.827   1.917   5.675 -3.2039  0.6636 -1.6872
    1MOL   H169  169   2.864   1.913   5.516 -0.6227  1.0149 -0.1465
    1MOL   H170  170   2.767   1.727   5.373  1.5102  0.2006 -0.8462
    1MOL   H171  171   2.894   1.616   5.425 -0.4345  1.2509 -3.0009
    1MOL   H172  172   2.734   1.559   5.438 -1.3467  1.4124 -1.7674
    1MOL   C173  173   2.816   1.662   6.018  0.5502 -0.1028 -0.0159
    1MOL   C174  174   2.820   1.589   6.156  0.3613  0.3745  0.7199
    1MOL   O175  175   2.834   1.445   6.131 -0.3097  0.1317  0.2019
    1MOL   C176  176   2.740   1.354   6.187 -0.8695  0.0307  1.0778
    1MOL   C177  177   2.819   1.240   6.249 -0.3937 -0.7261 -0.8536
    1MOL   C178  178   2.735   1.130   6.320  0.0661 -0.0550 -0.2290
    1MOL   C179  179   2.914   1.166   6.149  0.8657  0.2585 -0.3351
    1MOL   H180  180   2.911   1.636   5.973 -0.4107 -1.4490 -1.3258
    1MOL   H181  181   2.815   1.770   6.030  0.6604 -0.1160  0.1171
    1MOL   H182  182   2.721   1.608   6.199 -0.2294  0.1246 -0.4987
    1MOL   H183  183   2.677   1.326   6.102  1.2879 -0.2612 -0.4591
    1MOL   H184  184   2.677   1.390   6.269  2.7873  0.5277  3.8084
    1MOL   H185  185   2.870   1.282   6.336 -0.8446  0.5250 -1.1837
    1MOL   H186  186   2.795   1.060   6.378  0.8880  2.1928  1.6941
    1MOL   H187  187   2.660   1.175   6.385 -1.7865 -0.2773 -2.1598
    1MOL   H188  188   2.686   1.078   6.237  0.1154 -0.5715  0.0668
    1MOL   H189  189   2.989   1.232   6.105  1.9987 -0.0113  1.1491
    1MOL   H190  190   2.864   1.107   6.073 -1.5693  0.5451  0.9865
    1MOL   H191  191   2.980   1.093   6.197  2.3748  1.3564 -0.6792
    1MOL   C192  192   2.944   1.631   6.241 -0.3634 -0.3927  0.2358
    1MOL   C193  193   2.947   1.583   6.386 -0.1119 -0.7286  0.0210
    1MOL   O194  194   2.865   1.670   6.465 -0.2603  0.7260 -0.4230
    1MOL   C195  195   2.754   1.609   6.531 -0.3399  0.1543 -0.6730
    1MOL   C196  196   2.693   1.709   6.628  0.0025 -0.7737  0.8003
    1MOL   C197  197   2.581   1.653   6.725  0.3266  0.0762  0.2517
    1MOL   C198  198   2.639   1.830   6.545  0.5772 -0.9579  0.5856
    1MOL   H199  199   2.958   1.738   6.230 -1.1045 -0.2729  0.4468
    1MOL   H200  200   3.017   1.580   6.178  0.6270  1.5102 -0.1755
    1MOL   H201  201   2.915   1.479   6.387  1.0974 -1.1109  0.7515
    1MOL   H202  202   2.792   1.530   6.596 -1.3872  0.4368  0.3066
    1MOL   H203  203   2.685   1.569   6.457 -0.9810  0.5480 -0.2948
    1MOL   H204  204   2.773   1.742   6.694 -1.7154  2.7886  1.1626
    1MOL   H205  205   2.612   1.579   6.798 -0.6195 -0.8351 -0.2687
    1MOL   H206  206   2.547   1.737   6.785 -2.5025 -0.3695 -0.6338
    1MOL   H207  207   2.492   1.606   6.682  1.4661 -1.2555 -0.7201
    1MOL   H208  208   2.565   1.792   6.474  0.5425  0.8632 -0.3804
    1MOL   H209  209   2.589   1.894   6.618  1.2971 -0.1565  0.3835
    1MOL   H210  210   2.718   1.886   6.495 -1.4219  0.9081 -0.5799
    1MOL   C211  211   3.083   1.586   6.464  0.7278 -0.1867 -0.3461
    1MOL   C212  212   3.201   1.535   6.383  0.4535  0.1936  0.1225
    1MOL   O213  213   3.318   1.515   6.460 -0.0598  0.1112 -0.4184
    1MOL   C214  214   3.420   1.609   6.462  0.0670 -0.2760 -0.7120
    1MOL   C215  215   3.537   1.564   6.549 -0.3456  0.7326 -0.7454
    1MOL   C216  216   3.482   1.563   6.699 -0.1867 -0.0084  0.2052
    1MOL   C217  217   3.597   1.429   6.517 -0.1318  0.8690 -0.9301
    1MOL   H218  218   3.084   1.542   6.564  0.8066  1.1558  0.2454
    1MOL   H219  219   3.104   1.691   6.482  1.5113 -0.6516  1.4663
    1MOL   H220  220   3.228   1.611   6.310  0.4742  0.2528  0.1920
    1MOL   H221  221   3.387   1.709   6.489  3.5195  0.9060 -0.6436
    1MOL   H222  222   3.454   1.614   6.358  2.7827 -1.6151  0.0490
    1MOL   H223  223   3.617   1.638   6.555  1.3320 -1.2112  1.7236
    1MOL   H224  224   3.416   1.648   6.715  0.8538  1.0718 -1.0482
    1MOL   H225  225   3.414   1.479   6.710 -0.5579  0.3701  0.8588
    1MOL   H226  226   3.550   1.570   6.784 -0.1693 -3.2451  0.5233
    1MOL   H227  227   3.683   1.431   6.450  2.1566 -3.2160  1.6738
    1MOL   H228  228   3.526   1.369   6.460  0.8695 -1.5045  0.2571
    1MOL   H229  229   3.625   1.367   6.602 -1.2801  1.4974 -0.0756
    1MOL   C230  230   3.177   1.400   6.317  0.1251  0.2050 -0.7066
    1MOL   C231  231   3.284   1.366   6.215 -0.1490 -0.1123  0.2349
    1MOL   O232  232   3.273   1.226   6.187  0.4847  0.3595 -0.2414
    1MOL   C233  233   3.361   1.155   6.266  0.3346 -0.5224 -0.0656
    1MOL   C234  234   3.337   1.006   6.246  0.2377  0.3073 -0.5391
    1MOL   C235  235   3.409   0.958   6.122  0.2328 -0.1174  0.3154
    1MOL   C236  236   3.374   0.926   6.368 -0.3574  0.3703  0.3917
    1MOL   H237  237   3.087   1.395   6.257  0.0154  1.4868 -0.6546
    1MOL   H238  238   3.157   1.325   6.393  1.4223  1.3193  0.7705
    1MOL   H239  239   3.382   1.393   6.253  0.7490 -1.7772 -0.8871
    1MOL   H240  240   3.463   1.188   6.244  1.0933 -1.6081  1.6947
    1MOL   H241  241   3.351   1.176   6.372 -1.6360  1.3481 -0.5850
    1MOL   H242  242   3.230   0.993   6.231  0.4558  0.0389 -1.8714
    1MOL   H243  243   3.381   1.017   6.035 -5.6673 -0.6858  1.6400
    1MOL   H244  244   3.377   0.855   6.107  1.3238 -0.0709 -2.7927
    1MOL   H245  245   3.518   0.951   6.128  0.1501 -2.1550 -0.3384
    1MOL   H246  246   3.318   0.957   6.456 -0.7293  0.4169  0.1410
    1MOL   H247  247   3.370   0.818   6.353  2.0274  0.0631  1.7507
    1MOL   H248  248   3.478   0.945   6.396  0.3390 -0.0695 -1.7823
    1MOL   C249  249   3.276   1.456   6.094 -0.7260 -0.3809  0.2415
    1MOL   C250  250   3.385   1.428   5.995  0.2681  0.4457 -0.3781
    1MOL   O251  251   3.339   1.461   5.862 -0.4303  0.1717  0.3656
    1MOL   C252  252   3.287   1.340   5.801 -0.1979  0.0918  0.6225
    1MOL   C253  253   3.233   1.360   5.652  0.5241  0.3266 -0.2167
    1MOL   C254  254   3.108   1.457   5.648 -0.3249 -0.2064  0.1750
    1MOL   C255  255   3.199   1.225   5.581 -0.8962  0.0722 -0.4870
    1MOL   H256  256   3.270   1.561   6.123  3.2805 -0.6049  2.1204
    1MOL   H257  257   3.185   1.424   6.043 -0.3367 -1.4724  0.2217
    1MOL   H258  258   3.410   1.323   6.011  0.1756  0.6824  1.4954
    1MOL   H259  259   3.366   1.265   5.799 -0.9316 -0.6695 -2.6281
    1MOL   H260  260   3.209   1.310   5.870  0.3146  0.6823  1.4758
    1MOL   H261  261   3.321   1.412   5.613  1.4023 -1.0785 -0.1307
    1MOL   H262  262   3.106   1.542   5.716 -0.0763 -0.2496  0.2352
    1MOL   H263  263   3.017   1.404   5.679 -1.5448  0.5445 -2.0200
    1MOL   H264  264   3.089   1.482   5.544 -4.8454  0.3599  1.0274
    1MOL   H265  265   3.285   1.158   5.582  1.2425  2.7336 -1.8246
    1MOL   H266  266   3.131   1.176   5.650  0.1502 -0.4239  0.2073
    1MOL   H267  267   3.155   1.239   5.483 -1.9083 -0.6358 -0.1433
    1MOL   C268  268   3.502   1.515   6.028  0.2131 -0.5826  0.0851
    1MOL   C269  269   3.641   1.475   5.974 -0.3340  0.0771  0.1669
    1MOL   O270  270   3.729   1.475   6.087  0.9255 -0.3372 -0.9120
    1MOL   C271  271   3.783   1.352   6.140 -0.9818 -0.2022  1.1324
    1MOL   C272  272   3.879   1.396   6.256 -0.4581 -0.3710  0.4090
    1MOL   C273  273   3.912   1.289   6.352 -0.4570 -0.5624  0.7097
    1MOL   C274  274   4.002   1.472   6.203 -0.0083  0.4023  0.3922
    1MOL   H275  275   3.510   1.521   6.137 -1.5857  1.2632  0.1486
    1MOL   H276  276   3.488   1.617   5.992  2.8537 -0.3263 -0.3640
    1MOL   H277  277   3.640   1.370   5.942 -0.8605 -0.2384  1.1933
    1MOL   H278  278   3.706   1.279   6.165 -1.5007  0.7591  2.4474
    1MOL   H279  279   3.836   1.312   6.054 -2.9385 -0.0132 -0.1829
    1MOL   H280  280   3.822   1.473   6.309 -1.3383 -0.9462  0.3130
    1MOL   H281  281   3.820   1.243   6.387 -1.2000 -0.8369 -1.5511
    1MOL   H282  282   3.960   1.325   6.444 -1.5375  0.2006  0.9847
    1MOL   H283  283   3.977   1.207   6.322  0.0302  0.4846 -1.1508
    1MOL   H284  284   3.966   1.572   6.177 -1.3357  0.0984  1.0118
    1MOL   H285  285   4.051   1.429   6.116 -1.7152 -0.6466 -0.0631
    1MOL   H286  286   4.072   1.495   6.284 -0.3190  3.0790 -0.0571
    1MOL   C287  287   3.716   1.570   5.875 -0.0367  0.2283  0.6013
    1MOL   C288  288   3.851   1.516   5.832 -0.3394  0.1703  1.1717
    1MOL   O289  289   3.935   1.609   5.766 -0.1346  0.3023 -0.4590
    1MOL   C290  290   4.009   1.708   5.838  0.4860  0.2396  0.6914
    1MOL   C291  291   4.105   1.789   5.746  0.2637  0.0013  0.3816
    1MOL   C292  292   4.148   1.914   5.818 -0.1491  0.2831  0.0016
    1MOL   C293  293   4.035   1.829   5.616  0.5926  0.0996 -0.6602
    1MOL   H294  294   3.733   1.666   5.926  0.6582  0.5901 -0.3029
    1MOL   H295  295   3.654   1.587   5.787  0.4479 -0.5633  0.1151
    1MOL   H296  296   3.907   1.482   5.919  0.3444  1.3531  1.1981
    1MOL   H297  297   3.937   1.772   5.888  0.1367  1.3439 -1.1996
    1MOL   H298  298   4.078   1.668   5.912  2.0465  1.9857  0.2264
    1MOL   H299  299   4.193   1.727   5.732  0.3611  0.3848 -0.8343
    1MOL   H300  300   4.201   1.884   5.909  1.3032 -2.0995 -1.5561
    1MOL   H301  301   4.058   1.973   5.833 -1.3099 -1.7335  1.0956
    1MOL   H302  302   4.218   1.969   5.755  3.0122 -1.9002  1.4692
    1MOL   H303  303   3.996   1.737   5.572  0.0870  0.2222 -0.4687
    1MOL   H304  304   3.952   1.888   5.653  0.9396  0.2591 -0.1350
    1MOL   H305  305   4.103   1.884   5.550  3.5069 -0.1072  2.0349
    1MOL   C306  306   3.829   1.406   5.722  0.3292  0.0887 -0.3581
    1MOL   C307  307   3.948   1.308   5.695  0.2283  0.1216 -0.7688
    1MOL   O308  308   3.936   1.213   5.804 -0.4808  0.1878  0.1604
    1MOL   C309  309   4.061   1.180   5.865 -0.3521  0.0321  0.7903
    1MOL   C310  310   4.058   1.032   5.911 -0.0744  0.3575  0.2040
    1MOL   C311  311   4.037   0.932   5.800  0.1319  0.0520 -0.3323
    1MOL   C312  312   3.960   1.014   6.028 -0.4438 -0.0550  0.1940
    1MOL   H313  313   3.790   1.452   5.632 -1.3119  0.4576  0.5226
    1MOL   H314  314   3.743   1.346   5.753 -0.6297  0.4114 -2.3340
    1MOL   H315  315   4.038   1.369   5.705 -0.6658  0.9735  2.5891
    1MOL   H316  316   4.072   1.244   5.953  1.1148 -0.5613  1.0507
    1MOL   H317  317   4.143   1.196   5.795 -0.0368  0.0835  1.1728
    1MOL   H318  318   4.159   1.007   5.943  0.4077  1.1123 -0.7000
    1MOL   H319  319   3.943   0.952   5.748 -0.6647 -1.7427  0.3842
    1MOL   H320  320   4.037   0.832   5.842  0.2568  0.0818 -0.2600
    1MOL   H321  321   4.110   0.937   5.719  0.3551  1.5060 -0.0612
    1MOL   H322  322   3.970   0.916   6.074  0.3001  0.4721  1.1961
    1MOL   H323  323   3.858   1.028   5.992  0.5296  0.3842 -2.4945
    1MOL   H324  324   3.974   1.079   6.115  0.8945  0.5122 -0.4247
    1MOL   C325  325   3.930   1.239   5.561  0.0835 -0.4645 -0.2351
    1MOL   C326  326   3.970   1.334   5.451  0.2753  0.2798 -0.0461
    1MOL   O327  327   4.112   1.355   5.464 -0.2549  0.0484  1.1874
    1MOL   C328  328   4.148   1.489   5.464 -0.0489 -0.8586  0.1684
    1MOL   C329  329   4.295   1.506   5.447  0.6404  0.2067  0.5622
    1MOL   C330  330   4.377   1.441   5.559 -0.6326  0.0935 -0.2564
    1MOL   C331  331   4.337   1.450   5.304  0.3402 -0.6296 -0.7498
    1MOL   H332  332   3.826   1.209   5.572  0.2113 -0.6086  0.6300
    1MOL   H333  333   3.985   1.146   5.552 -1.6453 -1.5798  0.4740
    1MOL   H334  334   3.917   1.429   5.458 -2.5072 -1.3164  1.4597
    1MOL   H335  335   4.110   1.549   5.381 -0.3333  1.3821  1.8797
    1MOL   H336  336   4.115   1.532   5.558  0.8906  2.4222 -0.9216
    1MOL   H337  337   4.320   1.612   5.450  2.8242 -0.2918  0.8329
    1MOL   H338  338   4.343   1.477   5.656 -0.3838  2.0806 -0.8895
    1MOL   H339  339   4.369   1.332   5.555 -1.5098  0.1266  0.4242
    1MOL   H340  340   4.483   1.460   5.543 -0.7036  1.0779  0.3879
    1MOL   H341  341   4.445   1.453   5.292  0.2272  0.8650 -1.4919
    1MOL   H342  342   4.305   1.346   5.299 -1.5682 -0.0832 -0.5590
    1MOL   H343  343   4.293   1.520   5.232  0.9600  0.1152 -0.4134
    1MOL   C344  344   3.953   1.278   5.304 -0.2635 -0.1661  0.3716
    1MOL   C345  345   3.812   1.305   5.246  0.2533 -0.1785 -0.0644
    1MOL   O346  346   3.750   1.436   5.282  0.7447 -0.0148 -0.0187
    1MOL   C347  347   3.800   1.549   5.225 -0.2829  0.1181 -0.3675
    1MOL   C348  348   3.744   1.673   5.289 -0.7797  0.1327  0.1690
    1MOL   C349  349   3.828   1.804   5.250  0.2470  0.0848  0.2411
    1MOL   C350  350   3.730   1.659   5.447  0.4732  0.4995  0.1301
    1MOL   H351  351   3.968   1.171   5.318  2.5063 -0.1251 -1.8986
    1MOL   H352  352   4.019   1.325   5.231 -0.4951  0.7454  0.7406
    1MOL   H353  353   3.743   1.235   5.293  1.2500  0.0806  1.8210
    1MOL   H354  354   3.787   1.551   5.117  0.8030 -0.8433 -0.5205
    1MOL   H355  355   3.908   1.546   5.236 -0.2340 -0.8241 -1.1558
    1MOL   H356  356   3.638   1.688   5.266 -1.0648  0.1837  1.4903
    1MOL   H357  357   3.924   1.821   5.298  0.9572 -3.0692  0.0192
    1MOL   H358  358   3.757   1.887   5.258  0.9339  0.6875  0.0625
    1MOL   H359  359   3.854   1.800   5.145  2.4824  2.8465  0.6251
    1MOL   H360  360   3.825   1.636   5.495 -0.3351 -0.9508  1.0606
    1MOL   H361  361   3.699   1.756   5.486  1.2959  1.1880 -0.8654
    1MOL   H362  362   3.663   1.576   5.466 -0.1198  1.1135  0.7451
    1MOL   C363  363   3.805   1.264   5.096  0.0304 -0.0474  0.3524
    1MOL   C364  364   3.876   1.129   5.080 -0.1595  0.6434  0.2313
    1MOL   O365  365   3.810   1.018   5.143  0.3815 -0.0806  0.1018
    1MOL   C366  366   3.894   0.908   5.142  0.0856  0.2063 -0.6351
    1MOL   C367  367   3.827   0.777   5.150 -0.8353 -0.0463  0.4224
    1MOL   C368  368   3.764   0.737   5.017  0.1268  0.9712 -0.3986
    1MOL   C369  369   3.727   0.772   5.271  0.0987  0.0633 -0.1012
    1MOL   H370  370   3.704   1.253   5.058 -0.2251 -0.1537  1.0514
    1MOL   H371  371   3.861   1.338   5.040  1.0178 -0.8148  0.3131
    1MOL   H372  372   3.982   1.127   5.105 -0.4268 -1.0055  1.3406
    1MOL   H373  373   3.963   0.902   5.058  2.2907 -0.3738  1.1667
    1MOL   H374  374   3.958   0.917   5.230 -0.3102  0.4054 -0.3673
    1MOL   H375  375   3.902   0.700   5.170  1.0073  0.6892 -3.1330
    1MOL   H376  376   3.709   0.822   4.978  0.9911  0.9677 -1.6720
    1MOL   H377  377   3.699   0.651   5.036  0.1387  1.4076  1.8296
    1MOL   H378  378   3.817   0.692   4.933  1.1749  0.4648  0.5198
    1MOL   H379  379   3.780   0.824   5.352 -0.4973 -1.1944  1.1058
    1MOL   H380  380   3.703   0.670   5.301 -0.7688 -0.4220 -2.3176
    1MOL   H381  381   3.633   0.822   5.248  0.9582  1.8875  0.2525
    1MOL   H382  382   3.880   1.113   4.972 -0.7682 -2.1509  0.5704
    2MOL     C1  383   0.128   0.446   6.991  0.0510 -0.1799 -0.1742
    2MOL     C2  384   7.809   0.413   6.996  0.4576  0.0007 -0.6728
    2MOL     O3  385   7.744   0.507   6.903 -0.4132 -0.0662 -0.1423
    2MOL     C4  386   7.770   0.471   6.765 -0.1782  0.5601 -0.4504
    2MOL     C5  387   7.627   0.429   6.718  0.4812 -0.0690  0.1962
    2MOL     C6  388   7.631   0.371   6.580 -0.1323 -0.7317  0.1386
    2MOL     C7  389   7.519   0.539   6.745 -0.5319  0.4817  0.5185
    2MOL     H8  390   0.178   0.396   6.908  3.1578 -0.1961  1.6488
    2MOL     H9  391   0.137   0.555   6.994 -1.7705 -0.0519  1.9940
    2MOL    H10  392   7.769   0.438   7.095  0.3114 -0.5270 -0.6005
    2MOL    H11  393   0.018   0.394   6.739 -0.7117  1.0002 -3.4154
    2MOL    H12  394   7.799   0.566   6.720  0.6900  0.2244 -0.6084
    2MOL    H13  395   7.602   0.339   6.775  1.3512 -0.4816 -0.0639
    2MOL    H14  396   7.691   0.280   6.589 -1.4898 -1.7241 -0.7025
    2MOL    H15  397   7.531   0.344   6.547 -0.0523 -1.0000  0.1186
    2MOL    H16  398   7.668   0.451   6.516 -1.1397  1.1811  1.8494
    2MOL    H17  399   7.418   0.515   6.711 -1.3170  3.4986  0.5723
    2MOL    H18  400   7.516   0.564   6.851 -1.4493  0.5362  0.4872
    2MOL    H19  401   7.543   0.638   6.708 -0.5698  0.2237 -0.2119
    2MOL    H20  402   0.184   0.405   7.075 -0.4870 -0.1438  0.2045
    2MOL    C21  403   7.756   0.263   6.976  0.1856  0.0221 -0.3713
    2MOL    C22  404   7.792   0.158   7.079 -0.4873  0.3729 -0.4568
    2MOL    O23  405   0.108   0.154   7.099  0.0113 -0.4923  0.4040
    2MOL    C24  406   0.185   0.066   7.015  0.3551  0.6462  0.3136
    2MOL    C25  407   0.337   0.061   7.038  1.0278 -0.3895  0.1669
    2MOL    C26  408   0.384   0.048   7.179  0.4697 -0.0712 -0.2126
    2MOL    C27  409   0.396   7.775   6.954 -0.3830  0.3569 -0.2758
    2MOL    H28  410   7.648   0.266   6.967  0.1679 -2.9483 -1.7158
    2MOL    H29  411   7.792   0.225   6.880  0.1119 -0.8567 -0.0607
    2MOL    H30  412   7.741   0.065   7.051 -1.6765  0.0118  2.7317
    2MOL    H31  413   0.160   0.094   6.913 -0.9860  0.7150  0.6579
    2MOL    H32  414   0.146   7.789   7.016  1.9196 -0.0468 -2.5184
    2MOL    H33  415   0.382   0.146   6.987 -0.4573  0.1060 -0.3596
    2MOL    H34  416   0.484   0.085   7.200 -0.0068  0.4360  1.2475
    2MOL    H35  417   0.363   7.772   7.216 -1.5495  0.9595  1.5397
    2MOL    H36  418   0.323   0.103   7.251 -0.4452 -1.1803 -0.1088
    2MOL    H37  419   0.501   7.794   6.932 -0.5455  0.4707 -0.9578
    2MOL    H38  420   0.388   7.676   7.000 -1.9957  0.2718 -0.7059
    2MOL    H39  421   0.335   7.769   6.864 -1.1110 -0.0460  0.2385
    2MOL    C40  422   7.734   0.196   7.220 -0.1362  0.0187 -0.4961
    2MOL    C41  423   7.764   0.104   7.337  0.5124  0.0193  0.0135
    2MOL    O42  424   7.744   7.787   7.305  0.0587  0.3910  0.1560
    2MOL    C43  425   0.038   7.701   7.299 -0.4488 -0.4655  0.2262
    2MOL    C44  426   0.075   7.646   7.439 -0.5381  0.0968  0.5643
    2MOL    C45  427   7.800   7.544   7.494 -0.1698 -0.3018  0.1874
    2MOL    C46  428   0.219   7.588   7.439  0.0643 -0.1277 -0.7636
    2MOL    H47  429   7.627   0.182   7.205 -0.0964 -1.5880  0.6291
    2MOL    H48  430   7.748   0.297   7.259  1.6068 -0.3269 -0.1941
    2MOL    H49  431   0.044   0.120   7.363  0.5523  2.0438 -1.2305
    2MOL    H50  432   0.119   7.765   7.263 -1.6929  0.8098 -0.3624
    2MOL    H51  433   0.041   7.622   7.223  1.5431  0.1103 -0.3350
    2MOL    H52  434   0.093   7.732   7.503  1.4381 -0.7668  1.2095
    2MOL    H53  435   7.699   7.555   7.456 -0.0390 -2.0518 -0.6966
    2MOL    H54  436   0.003   7.444   7.462  0.7916  0.0259 -0.0189
    2MOL    H55  437   7.798   7.555   7.603 -0.6779 -2.2060  0.3884
    2MOL    H56  438   0.287   7.668   7.408  0.8993 -0.4135  0.3074
    2MOL    H57  439   0.239   7.512   7.363  0.7189  0.6578 -1.3942
    2MOL    H58  440   0.256   7.552   7.535 -1.7778  1.9951  0.7909
    2MOL    C59  441   7.664   0.112   7.463 -0.2695 -0.1809 -0.3451
    2MOL    C60  442   7.660   0.247   7.537 -0.0013  0.5676  0.2428
    2MOL    O61  443   7.627   0.225   7.674  0.5678  0.0035 -0.0548
    2MOL    C62  444   7.743   0.217   7.757  0.3846 -0.2298  0.1986
    2MOL    C63  445   7.720   0.122   0.053  0.2442 -0.3937  0.2319
    2MOL    C64  446   7.712   7.800   0.009  0.1562  0.6299  0.2292
    2MOL    C65  447   7.810   0.135   0.177  0.6981 -0.1928 -0.7360
    2MOL    H66  448   7.703   0.044   7.539  1.4658  0.8051 -0.3269
    2MOL    H67  449   7.564   0.081   7.433 -0.8457  1.0471  0.2694
    2MOL    H68  450   7.759   0.291   7.528 -0.5968  2.0801  0.9691
    2MOL    H69  451   0.009   0.187   7.704  0.1789 -0.9701  0.2600
    2MOL    H70  452   7.746   0.320   7.790 -1.3020 -0.4467  1.1109
    2MOL    H71  453   7.623   0.154   0.090  1.2563  1.4116  1.3860
    2MOL    H72  454   7.645   7.791   7.748  0.3474 -0.3246  0.1842
    2MOL    H73  455   7.671   7.730   0.082  1.6500 -0.5015  0.0003
    2MOL    H74  456   7.810   7.768   7.798  1.4592 -0.0104  4.1225
    2MOL    H75  457   0.088   0.136   0.139  1.4690  0.0344  1.2748
    2MOL    H76  458   7.800   0.223   0.241  0.1821 -0.4435 -0.4649
    2MOL    H77  459   7.800   0.047   0.241  1.1868  0.5593  0.4007
    2MOL    C78  460   7.549   0.341   7.482 -0.3711  0.4595  0.4015
    2MOL    C79  461   7.531   0.472   7.565 -0.1753  0.0947 -0.1690
    2MOL    O80  462   7.617   0.575   7.511 -0.2255 -0.1314 -0.6207
    2MOL    C81  463   7.743   0.595   7.575  0.5248  0.4130 -0.0707
    2MOL    C82  464   0.013   0.657   7.476 -0.1808  0.3816 -0.3282
    2MOL    C83  465   0.018   0.568   7.346  0.5164  0.5984  0.3078
    2MOL    C84  466   0.153   0.687   7.536  1.1668 -0.3313  0.2894
    2MOL    H85  467   7.457   0.284   7.489 -0.2386  0.2633  0.5459
    2MOL    H86  468   7.558   0.365   7.376 -1.2417 -0.5125  0.1028
    2MOL    H87  469   7.560   0.441   7.666 -1.3110  0.8453  0.3967
    2MOL    H88  470   7.741   0.660   7.663 -0.0867 -1.2111  1.1516
    2MOL    H89  471   7.772   0.504   7.626 -1.5762  0.0990  0.6148
    2MOL    H90  472   7.794   0.751   7.441 -1.5154  0.3417  1.1930
    2MOL    H91  473   7.744   0.551   7.303  0.8423  0.7384 -0.5033
    2MOL    H92  474   0.065   0.471   7.366  1.3766  0.7973 -0.7327
    2MOL    H93  475   0.071   0.621   7.267  0.0876  1.1147  0.3667
    2MOL    H94  476   0.199   0.592   7.563  0.9818 -0.5571 -0.1842
    2MOL    H95  477   0.142   0.767   7.610 -0.4766 -0.1312 -0.1546
    2MOL    H96  478   0.227   0.716   7.461  0.1421 -2.0322 -1.4302
    2MOL    C97  479   7.381   0.521   7.567  0.6300 -0.0609 -0.1844
    2MOL    C98  480   7.361   0.653   7.640  0.5690 -0.0047  0.1843
    2MOL    O99  481   7.373   0.628   7.780  0.6122 -0.1870  0.1283
    2MOL   C100  482   7.443   0.729   0.027 -1.0379 -0.1938  0.5199
    2MOL   C101  483   7.414   0.703   0.178 -0.1086 -0.1637  0.1325
    2MOL   C102  484   7.457   0.558   0.215 -0.0591 -0.0433 -0.2312
    2MOL   C103  485   7.487   0.805   0.267  0.0903 -1.1881  0.1125
    2MOL   H104  486   7.298   0.463   7.606  1.5786 -0.5314  1.1623
    2MOL   H105  487   7.356   0.542   7.463  2.6918 -1.2906 -0.9504
    2MOL   H106  488   7.439   0.721   7.606  0.4560 -0.2019 -0.4772
    2MOL   H107  489   7.424   0.833   7.823  0.5564  0.6521  2.4836
    2MOL   H108  490   7.549   0.710   0.013 -1.2442  0.1928 -1.8057
    2MOL   H109  491   7.307   0.719   0.193 -0.6000 -2.6019 -0.5383
    2MOL   H110  492   7.414   0.477   0.156  2.2024 -0.3087 -1.5526
    2MOL   H111  493   7.565   0.546   0.204  0.2781  1.0061  1.5737
    2MOL   H112  494   7.430   0.541   0.320 -0.3405 -2.0684 -0.6131
    2MOL   H113  495   7.466   0.905   0.230 -1.6323 -1.6507 -0.2225
    2MOL   H114  496   7.437   0.801   0.364 -0.5256  0.3603 -0.1351
    2MOL   H115  497   7.593   0.781   0.271  0.2022 -0.5404  1.0148
    2MOL   C116  498   7.229   0.721   7.589 -0.0787  0.3373 -0.3276
    2MOL   C117  499   7.212   0.796   7.457  0.8735 -0.3798 -0.2278
    2MOL   O118  500   7.214   0.700   7.351  0.3635  0.1516  0.5416
    2MOL   C119  501   7.236   0.763   7.225  1.0765  0.3665 -0.3340
    2MOL   C120  502   7.290   0.662   7.125 -0.0377 -0.4353  0.3451
    2MOL   C121  503   7.294   0.731   6.983  0.0738  0.4512  0.3599
    2MOL   C122  504   7.429   0.615   7.155  0.0846 -0.0868 -0.6757
    2MOL   H123  505   7.166   0.632   7.581  0.0426  0.1461  0.7496
    2MOL   H124  506   7.188   0.787   7.666 -0.9402  0.2682 -0.7236
    2MOL   H125  507   7.303   0.853   7.438  0.1968  1.8244  2.7818
    2MOL   H126  508   7.308   0.844   7.229 -0.9684  2.1717  1.8562
    2MOL   H127  509   7.144   0.809   7.189  2.0591  0.9484 -2.1749
    2MOL   H128  510   7.221   0.579   7.113 -2.1156  1.1142  1.4587
    2MOL   H129  511   7.352   0.823   6.987  0.0667  0.4658  0.0940
    2MOL   H130  512   7.192   0.762   6.960  0.3941  0.8513 -0.5180
    2MOL   H131  513   7.346   0.679   6.902  2.3645  1.9652  0.8161
    2MOL   H132  514   7.492   0.700   7.183  0.5708 -1.0620  1.2650
    2MOL   H133  515   7.413   0.557   7.246 -0.6305 -0.0297 -0.7600
    2MOL   H134  516   7.481   0.558   7.079  0.3915 -2.7717  1.4665
    2MOL   C135  517   7.081   0.881   7.467 -0.1622 -0.3314  0.2901
    2MOL   C136  518   7.090   1.002   7.562  0.2860  0.5758  0.4731
    2MOL   O137  519   7.220   1.061   7.533 -0.2073  0.1138 -0.6140
    2MOL   C138  520   7.278   1.140   7.637  0.0590 -0.2284  0.9100
    2MOL   C139  521   7.418   1.186   7.613 -0.2822 -0.0895 -0.1821
    2MOL   C140  522   7.528   1.084   7.620  0.3029  0.5946 -0.1366
    2MOL   C141  523   7.436   1.265   7.480  0.5014  0.2919 -0.7691
    2MOL   H142  524   7.057   0.923   7.369 -0.2317 -0.7532  0.1250
    2MOL   H143  525   6.999   0.813   7.492 -1.9399  0.8858 -2.0081
    2MOL   H144  526   7.086   0.958   7.662  0.1222 -1.0253 -0.2202
    2MOL   H145  527   7.276   1.073   7.723 -1.3378 -1.6441 -0.1957
    2MOL   H146  528   7.224   1.233   7.651 -0.2102 -0.0387 -1.2652
    2MOL   H147  529   7.436   1.257   7.693 -1.4515 -0.2293  0.2260
    2MOL   H148  530   7.533   1.032   7.716  1.6730 -1.5926 -1.3630
    2MOL   H149  531   7.632   1.116   7.607  0.9129 -1.2017  0.2247
    2MOL   H150  532   7.508   1.006   7.546  0.0248  0.6087 -0.0770
    2MOL   H151  533   7.532   1.314   7.466  0.4693  0.6276  0.1949
    2MOL   H152  534   7.416   1.200   7.394  0.9159 -1.2672  0.2792
    2MOL   H153  535   7.364   1.346   7.480 -0.9734 -0.9414  2.4652
    2MOL   C154  536   6.978   1.108   7.554 -0.2722  0.6460  0.4626
    2MOL   C155  537   6.840   1.045   7.546  0.2853 -0.2745 -0.3450
    2MOL   O156  538   6.795   1.026   7.676 -0.9309 -0.3811  0.0390
    2MOL   C157  539   6.735   0.900   7.698 -0.1996  0.2312 -0.5754
    2MOL   C158  540   6.721   0.875   0.021  0.2853 -0.6401 -0.0890
    2MOL   C159  541   6.860   0.905   0.089  0.8242  0.7197  0.4088
    2MOL   C160  542   6.611   0.951   0.089 -0.1615  0.0811  0.1721
    2MOL   H161  543   7.002   1.173   7.469  1.6940 -1.4429 -0.6422
    2MOL   H162  544   6.986   1.178   7.637 -2.6446  1.6217 -0.0754
    2MOL   H163  545   6.842   0.953   7.488  0.4735 -1.0944  0.9442
    2MOL   H164  546   6.783   0.810   7.660  1.3089  0.3329  1.0098
    2MOL   H165  547   6.635   0.907   7.655 -1.2322  0.4171  1.7661
    2MOL   H166  548   6.696   0.769   0.027 -1.3353 -0.3882 -1.7580
    2MOL   H167  549   6.928   0.832   0.044 -1.0809 -0.6126 -0.3524
    2MOL   H168  550   6.855   0.879   0.194  3.6086  1.7892  0.8479
    2MOL   H169  551   6.893   1.007   0.070 -1.0237  1.0222 -1.3044
    2MOL   H170  552   6.517   0.951   0.033  0.5149  1.1842 -0.9664
    2MOL   H171  553   6.596   0.902   0.186  1.2442 -2.0381 -0.6539
    2MOL   H172  554   6.644   1.052   0.113  0.5394 -0.1596  0.2180
    2MOL   C173  555   6.746   1.144   7.483 -0.0844  0.7003 -0.4711
    2MOL   C174  556   6.743   1.137   7.332 -0.4304 -0.2946  0.4779
    2MOL   O175  557   6.665   1.016   7.295 -0.0510 -0.2683 -0.3507
    2MOL   C176  558   6.735   0.925   7.208  0.9079  0.4960 -0.1072
    2MOL   C177  559   6.668   0.785   7.191  0.0919  0.0620  0.1788
    2MOL   C178  560   6.665   0.710   7.327  0.1732  0.2503 -0.1079
    2MOL   C179  561   6.530   0.798   7.115  0.6392  0.2168  0.0631
    2MOL   H180  562   6.646   1.116   7.517  0.8725  1.6590  3.4423
    2MOL   H181  563   6.750   1.245   7.524 -0.7837  0.3274  0.5544
    2MOL   H182  564   6.848   1.130   7.300 -0.5902 -1.8199  0.2560
    2MOL   H183  565   6.833   0.901   7.250 -0.1344  0.8416  2.5838
    2MOL   H184  566   6.747   0.978   7.113 -0.9425  0.0576 -0.6045
    2MOL   H185  567   6.725   0.724   7.122 -0.3828 -1.0228  0.7380
    2MOL   H186  568   6.625   0.771   7.407 -0.4824  1.2795 -1.2116
    2MOL   H187  569   6.600   0.622   7.329  1.6761 -0.8871 -0.2612
    2MOL   H188  570   6.765   0.676   7.357 -0.1098 -3.1686 -2.6240
    2MOL   H189  571   6.512   0.903   7.093  0.0527 -0.1050 -1.0407
    2MOL   H190  572   6.440   0.768   7.170 -0.1404  2.2439 -0.0740
    2MOL   H191  573   6.529   0.741   7.022 -0.7885 -0.7356  0.6451
    2MOL   C192  574   6.696   1.263   7.265 -0.2501 -0.0499 -0.3359
    2MOL   C193  575   6.726   1.278   7.111  0.0210  0.2439  0.0990
    2MOL   O194  576   6.868   1.287   7.093  0.4489 -0.4964 -0.3369
    2MOL   C195  577   6.932   1.195   7.006  0.1720 -0.1418 -0.1610
    2MOL   C196  578   7.089   1.207   7.027 -0.7261  0.5725  0.5898
    2MOL   C197  579   7.159   1.129   6.917 -0.5356 -0.2809  0.2458
    2MOL   C198  580   7.139   1.142   7.158  0.2181  0.2441 -0.1331
    2MOL   H199  581   6.748   1.345   7.315 -0.1161  0.1608 -0.8222
    2MOL   H200  582   6.590   1.271   7.288 -0.3592 -2.7503  0.2323
    2MOL   H201  583   6.670   1.207   7.050  1.0448 -1.3025  0.9411
    2MOL   H202  584   6.896   1.220   6.906 -2.4375  0.6536  0.9619
    2MOL   H203  585   6.912   1.090   7.027  0.8162 -0.6154 -1.7478
    2MOL   H204  586   7.124   1.310   7.027  1.0575 -0.0127 -0.1479
    2MOL   H205  587   7.266   1.150   6.919 -0.3897 -0.8660 -1.0011
    2MOL   H206  588   7.144   1.021   6.923 -1.7971 -0.0918  0.7305
    2MOL   H207  589   7.134   1.156   6.814  1.9905 -1.3930 -0.6912
    2MOL   H208  590   7.090   1.044   7.159 -4.0796  2.2791 -0.1750
    2MOL   H209  591   7.246   1.130   7.174  0.3204  2.5083  0.9406
    2MOL   H210  592   7.104   1.201   7.242 -0.2240  1.3919 -1.1122
    2MOL   C211  593   6.668   1.409   7.055  0.3995  0.7302  0.0550
    2MOL   C212  594   6.678   1.428   6.901 -0.2062 -0.3511  0.6284
    2MOL   O213  595   6.601   1.329   6.843 -0.0158  0.2935 -0.2243
    2MOL   C214  596   6.644   1.284   6.716  0.6428 -0.4095 -0.6104
    2MOL   C215  597   6.571   1.154   6.681  0.3984 -0.1016  0.0582
    2MOL   C216  598   6.598   1.105   6.537  0.3104  0.3163 -0.3735
    2MOL   C217  599   6.586   1.044   6.787  0.0911  0.0238  0.8581
    2MOL   H218  600   6.731   1.491   7.090  1.6461  0.6485 -1.9511
    2MOL   H219  601   6.565   1.413   7.092  0.6285  0.0221  0.8015
    2MOL   H220  602   6.782   1.416   6.869  0.2006 -1.4661  2.3030
    2MOL   H221  603   6.751   1.262   6.716  0.8865  0.3938  2.9146
    2MOL   H222  604   6.625   1.364   6.644  3.3594 -0.7823 -1.8018
    2MOL   H223  605   6.468   1.191   6.683  1.1702  2.2476 -1.3685
    2MOL   H224  606   6.547   1.009   6.533 -0.0431  0.5057 -0.4646
    2MOL   H225  607   6.565   1.182   6.466  2.0494  2.5941  1.2395
    2MOL   H226  608   6.704   1.083   6.525  0.3258 -0.0225  0.3952
    2MOL   H227  609   6.512   0.965   6.773 -0.1419  0.3495  0.2368
    2MOL   H228  610   6.575   1.091   6.885  1.8789  2.2449  0.0367
    2MOL   H229  611   6.689   1.006   6.780  0.1037  0.5760 -2.9327
    2MOL   C230  612   6.634   1.563   6.846 -0.2406  0.1253 -0.6106
    2MOL   C231  613   6.487   1.616   6.884 -0.4251 -0.0396  0.5358
    2MOL   O232  614   6.492   1.754   6.859 -0.0985 -0.1969 -0.5338
    2MOL   C233  615   6.473   1.834   6.972  0.5690  0.0546 -0.4200
    2MOL   C234  616   6.483   1.978   6.928  0.0661  0.0132  1.1992
    2MOL   C235  617   6.362   2.006   6.838 -0.2816  0.0872  0.6163
    2MOL   C236  618   6.485   2.078   7.048  0.6144  1.1173  0.0850
    2MOL   H237  619   6.654   1.568   6.739 -0.7486  0.9032 -0.6698
    2MOL   H238  620   6.693   1.638   6.899  1.6731 -2.1732  0.6062
    2MOL   H239  621   6.466   1.590   6.988  2.6129  2.6120  1.8899
    2MOL   H240  622   6.376   1.810   7.015  0.0319  2.6423 -0.0935
    2MOL   H241  623   6.547   1.805   7.046  0.8540  2.3276  0.2129
    2MOL   H242  624   6.570   1.993   6.864  1.6026 -1.0139  3.0045
    2MOL   H243  625   6.377   2.105   6.796  0.3927 -0.6059 -0.7868
    2MOL   H244  626   6.267   2.014   6.891 -1.9647  0.3550 -2.3585
    2MOL   H245  627   6.352   1.930   6.761 -0.0123  2.0731 -1.4097
    2MOL   H246  628   6.387   2.076   7.095  0.2928  1.7112 -0.5609
    2MOL   H247  629   6.564   2.056   7.120  0.1354  0.2837  0.3669
    2MOL   H248  630   6.494   2.183   7.021 -1.1383  0.6895 -2.2979
    2MOL   C249  631   6.382   1.554   6.795  0.7426  0.4784 -0.0764
    2MOL   C250  632   6.232   1.569   6.853  0.0670  0.8103 -0.5942
    2MOL   O251  633   6.139   1.545   6.740 -0.0876 -0.3490  0.0265
    2MOL   C252  634   6.119   1.665   6.665  0.0255 -0.1770 -0.3436
    2MOL   C253  635   5.993   1.656   6.581 -0.1420 -0.7877  0.1476
    2MOL   C254  636   5.977   1.787   6.496 -0.9324 -0.5967  0.1951
    2MOL   C255  637   5.858   1.622   6.655  0.0195 -0.1056 -0.1064
    2MOL   H256  638   6.392   1.449   6.768  0.0552  0.6309 -0.9614
    2MOL   H257  639   6.393   1.606   6.700  1.4524  2.9166  1.3234
    2MOL   H258  640   6.217   1.672   6.887  0.1543  0.7764 -0.4516
    2MOL   H259  641   6.101   1.751   6.729  0.3502 -0.8847  0.7051
    2MOL   H260  642   6.217   1.682   6.618  1.0600 -0.7588  1.5487
    2MOL   H261  643   6.011   1.569   6.517 -1.4229 -1.1408  0.2490
    2MOL   H262  644   5.876   1.811   6.463 -0.8457  1.2788  1.2436
    2MOL   H263  645   6.055   1.810   6.423 -0.8385  1.0954  0.8011
    2MOL   H264  646   5.991   1.864   6.572  2.3551  0.4737 -1.3944
    2MOL   H265  647   5.829   1.702   6.723  1.3401  2.3409 -2.2956
    2MOL   H266  648   5.773   1.592   6.593 -2.2110  1.1032  2.2849
    2MOL   H267  649   5.867   1.539   6.724  1.0691 -1.3415 -1.6961
    2MOL   C268  650   6.195   1.464   6.958  0.3099 -0.4227  0.0313
    2MOL   C269  651   6.058   1.498   7.024  0.3507  0.4410 -0.3270
    2MOL   O270  652   6.067   1.621   7.093  0.3654  0.2900  0.1175
    2MOL   C271  653   5.947   1.682   7.131 -0.1910  0.0919 -0.0162
    2MOL   C272  654   5.987   1.819   7.175  0.6576 -0.5441  0.3165
    2MOL   C273  655   6.067   1.897   7.074 -0.0246  0.0534  0.7434
    2MOL   C274  656   5.867   1.911   7.216  0.2375  0.5744 -0.2713
    2MOL   H275  657   6.280   1.460   7.026  0.4679 -0.9718 -0.1971
    2MOL   H276  658   6.196   1.362   6.921 -0.8637 -0.5896  0.4431
    2MOL   H277  659   5.974   1.490   6.956 -0.1110 -0.9736  0.3855
    2MOL   H278  660   5.876   1.699   7.050 -2.0597 -3.9396  0.6260
    2MOL   H279  661   5.899   1.624   7.210 -2.8935 -1.6926 -2.8373
    2MOL   H280  662   6.050   1.817   7.264 -0.6351  3.9818  1.4397
    2MOL   H281  663   6.105   1.989   7.118  1.2716 -0.5063  0.8205
    2MOL   H282  664   6.011   1.921   6.984  0.2068 -0.5383  0.4375
    2MOL   H283  665   6.161   1.846   7.054 -0.4611 -1.5543  2.6270
    2MOL   H284  666   5.886   2.005   7.268  0.9236  0.6664 -0.6896
    2MOL   H285  667   5.802   1.862   7.289 -2.5355  0.5534 -2.6579
    2MOL   H286  668   5.806   1.933   7.128 -1.8841  2.7233  1.6586
    2MOL   C287  669   6.031   1.387   7.135  0.4625 -0.5388 -0.2073
    2MOL   C288  670   5.954   1.260   7.083 -0.0208 -0.4711 -0.2845
    2MOL   O289  671   5.823   1.310   7.041 -0.4775 -0.4972 -0.5031
    2MOL   C290  672   5.781   1.289   6.913 -0.7484  0.5146 -0.1086
    2MOL   C291  673   5.626   1.324   6.892 -0.2259  0.3534  0.1008
    2MOL   C292  674   5.574   1.277   6.756 -0.3487 -0.3908 -0.4008
    2MOL   C293  675   5.608   1.478   6.911  0.4897  0.8071 -0.1593
    2MOL   H294  676   5.969   1.422   7.218 -2.0220 -2.7998 -1.0188
    2MOL   H295  677   6.123   1.365   7.189  0.5389 -1.0040 -0.5221
    2MOL   H296  678   6.017   1.217   7.006 -0.4126  3.5144 -3.0198
    2MOL   H297  679   5.852   1.327   6.840  1.3387 -0.1508  1.5250
    2MOL   H298  680   5.803   1.185   6.893  1.8545  1.6115 -3.3267
    2MOL   H299  681   5.569   1.278   6.972 -0.2148  2.3230  1.2839
    2MOL   H300  682   5.599   1.172   6.744  0.7271 -0.3234  1.1207
    2MOL   H301  683   5.607   1.341   6.675 -0.7432  0.5505  0.1651
    2MOL   H302  684   5.465   1.276   6.767 -0.5453  0.7825 -2.1897
    2MOL   H303  685   5.651   1.536   6.829  0.8283 -1.7975 -1.8984
    2MOL   H304  686   5.502   1.506   6.906  0.3384  0.1850 -0.5962
    2MOL   H305  687   5.653   1.519   7.001  0.7017 -1.6078  0.8749
    2MOL   C306  688   5.954   1.159   7.194 -0.8462  0.1412 -0.2372
    2MOL   C307  689   5.935   1.011   7.152 -0.6460 -0.1446 -0.5324
    2MOL   O308  690   6.047   0.974   7.082 -0.3348  0.8390  0.0902
    2MOL   C309  691   6.012   0.922   6.956  0.3576  0.4153 -0.0762
    2MOL   C310  692   6.134   0.852   6.894 -0.3554 -0.3299 -0.5881
    2MOL   C311  693   6.249   0.947   6.855 -0.0309 -0.2767 -0.6937
    2MOL   C312  694   6.100   0.752   6.781  0.6594  0.2644  0.7184
    2MOL   H313  695   5.870   1.179   7.260 -0.1100 -0.1882  0.8136
    2MOL   H314  696   6.044   1.168   7.254 -1.5424  0.0012  0.8394
    2MOL   H315  697   5.844   0.997   7.093  0.0725  0.8174 -1.8906
    2MOL   H316  698   5.971   0.993   6.885  2.7683  0.0862 -1.8797
    2MOL   H317  699   5.939   0.845   6.981  0.4640  0.4020  0.2003
    2MOL   H318  700   6.185   0.796   6.973 -2.4785 -0.5845  0.6467
    2MOL   H319  701   6.295   0.994   6.942  0.3955 -3.8092  1.0802
    2MOL   H320  702   6.209   1.022   6.787 -1.3679 -1.2817 -1.0296
    2MOL   H321  703   6.316   0.886   6.794 -0.4199  0.2711 -1.6904
    2MOL   H322  704   6.058   0.798   6.692  0.3858 -1.1766  0.0883
    2MOL   H323  705   6.026   0.681   6.819  1.4546 -0.9729 -0.0374
    2MOL   H324  706   6.188   0.698   6.746  0.9468  0.7052  0.7568
    2MOL   C325  707   5.921   0.926   7.276 -0.4172  0.1715  0.3342
    2MOL   C326  708   5.792   0.904   7.340 -0.5709 -0.9139  0.2494
    2MOL   O327  709   5.715   0.841   7.245  0.1491 -0.1869 -0.0441
    2MOL   C328  710   5.575   0.850   7.271 -0.4375 -0.2009  0.3417
    2MOL   C329  711   5.491   0.861   7.139 -0.5158  1.1167 -0.6149
    2MOL   C330  712   5.512   1.004   7.087 -0.3232 -0.7913 -0.1012
    2MOL   C331  713   5.541   0.763   7.035  0.2665 -0.2410  0.0767
    2MOL   H332  714   5.994   0.970   7.345 -0.1378  1.2534 -0.6398
    2MOL   H333  715   5.964   0.829   7.249 -1.2534 -0.1230  0.0618
    2MOL   H334  716   5.740   0.998   7.361 -0.9608 -1.5422  2.2173
    2MOL   H335  717   5.553   0.755   7.319 -1.3064 -0.3325 -0.3037
    2MOL   H336  718   5.554   0.936   7.334  0.0189 -0.4552  0.8407
    2MOL   H337  719   5.384   0.845   7.155 -0.4058 -0.8582 -1.6498
    2MOL   H338  720   5.613   1.015   7.048  0.0512  0.6502  1.2665
    2MOL   H339  721   5.437   1.036   7.014  0.9546 -0.1748 -1.1576
    2MOL   H340  722   5.496   1.078   7.165  0.2682  2.5635 -3.0458
    2MOL   H341  723   5.546   0.668   7.088 -0.3743 -0.9534 -1.1199
    2MOL   H342  724   5.465   0.753   6.957  0.9812 -0.4218 -0.6079
    2MOL   H343  725   5.639   0.788   6.994  0.5115  0.0281  0.8269
    2MOL   C344  726   5.819   0.830   7.476 -0.3863  0.4467 -0.1020
    2MOL   C345  727   5.888   0.908   7.592 -0.0846  0.1776 -0.3828
    2MOL   O346  728   6.032   0.921   7.572  0.4330 -0.0412  0.1089
    2MOL   C347  729   6.104   0.796   7.589 -0.0604 -0.4275 -0.5355
    2MOL   C348  730   6.247   0.819   7.544  0.6058 -0.0535 -0.7856
    2MOL   C349  731   6.268   0.817   7.393 -0.8900  0.3324  0.7317
    2MOL   C350  732   6.346   0.730   7.613 -0.4234  0.5544 -0.1596
    2MOL   H351  733   5.861   0.729   7.480 -4.1411 -1.3337 -2.9717
    2MOL   H352  734   5.718   0.816   7.515  0.6182  0.1810  2.5471
    2MOL   H353  735   5.896   0.844   7.681  0.9867  0.9799  0.1137
    2MOL   H354  736   6.066   0.720   7.521  1.7995 -2.1620  0.3144
    2MOL   H355  737   6.093   0.760   7.691  0.1849  1.0903  0.0434
    2MOL   H356  738   6.263   0.917   7.589  0.0412 -1.2541  2.1525
    2MOL   H357  739   6.282   0.720   7.347  0.0173  0.1394  1.4079
    2MOL   H358  740   6.344   0.888   7.360 -2.7789  0.4851 -3.6781
    2MOL   H359  741   6.183   0.854   7.335 -0.7520  1.8489  1.4783
    2MOL   H360  742   6.447   0.731   7.572 -1.3629  0.4775 -2.5717
    2MOL   H361  743   6.349   0.749   7.720  0.3972 -0.8918  0.0823
    2MOL   H362  744   6.313   0.626   7.609  0.1748  0.3856 -0.9916
    2MOL   C363  745   5.821   1.043   7.625 -0.2500 -0.9084  0.6602
    2MOL   C364  746   5.889   1.111   7.747  0.4424 -0.3409  0.1874
    2MOL   O365  747   5.817   1.228   7.775  0.5871 -0.5905 -0.2842
    2MOL   C366  748   5.876   1.313   0.048 -0.5198  0.1892 -0.4046
    2MOL   C367  749   5.803   1.440   0.037  0.5664 -0.0887  0.3801
    2MOL   C368  750   5.819   1.509   7.722 -0.1759 -0.5448 -0.2013
    2MOL   C369  751   5.845   1.531   0.151 -1.0429 -0.6237 -0.5650
    2MOL   H370  752   5.819   1.108   7.538  1.5093 -3.6781 -1.5243
    2MOL   H371  753   5.718   1.027   7.654 -0.4618 -3.3668 -1.3499
    2MOL   H372  754   5.992   1.139   7.726  0.7717 -1.0851  0.7943
    2MOL   H373  755   5.865   1.261   0.143  1.3846  0.6192  0.0625
    2MOL   H374  756   5.983   1.331   0.044 -0.0529 -1.8865  1.5065
    2MOL   H375  757   5.695   1.426   0.046 -0.0496  2.4444 -2.1810
    2MOL   H376  758   5.911   1.507   7.663  0.1353  0.4095  0.2500
    2MOL   H377  759   5.778   1.610   7.728  0.5218 -0.3589  2.0587
    2MOL   H378  760   5.761   1.456   7.647 -1.0412  1.7412 -1.1980
    2MOL   H379  761   5.763   1.597   0.181  2.1616  1.9784  2.8790
    2MOL   H380  762   5.937   1.581   0.123 -0.4985 -0.2683  1.7903
    2MOL   H381  763   5.878   1.478   0.241  2.3055  0.8915 -0.8392
    2MOL   H382  764   5.880   1.053   0.014 -2.4725 -0.4495 -0.1287
    3MOL     C1  765   0.085   1.958   3.248 -0.7017 -0.2129 -0.1378
    3MOL     C2  766   0.041   1.853   3.351  0.3471 -0.3929  0.1624
    3MOL     O3  767   0.107   1.728   3.327 -0.2893  0.1459  0.1278
    3MOL     C4  768   0.032   1.646   3.232 -0.2712  0.4984  0.1768
    3MOL     C5  769   0.093   1.509   3.222  0.3828 -0.0324  0.2270
    3MOL     C6  770   0.004   1.418   3.131 -0.4589  0.3035 -0.2311
    3MOL     C7  771   0.098   1.438   3.362 -0.1917 -0.0624  0.0455
    3MOL     H8  772   0.064   2.061   3.278  1.2785  0.7422 -1.8457
    3MOL     H9  773   0.194   1.959   3.240 -0.7971 -2.1877 -2.2748
    3MOL    H10  774   7.757   1.848   3.346  0.4091 -1.3758 -0.3670
    3MOL    H11  775   0.013   1.695   3.136 -0.1074 -1.5566 -0.9259
    3MOL    H12  776   7.762   1.626   3.283  0.4231 -1.1545  0.8146
    3MOL    H13  777   0.193   1.501   3.180 -1.3729  1.4759 -4.5497
    3MOL    H14  778   7.725   1.402   3.162  0.6153 -0.9870  2.9919
    3MOL    H15  779   7.823   1.467   3.035 -2.7030  1.7791  0.6097
    3MOL    H16  780   0.036   1.314   3.122 -1.3452 -0.2217  2.1174
    3MOL    H17  781   0.183   1.485   3.412 -0.5960  1.2784 -0.5044
    3MOL    H18  782   0.004   1.456   3.415 -0.4053  1.9630 -0.9444
    3MOL    H19  783   0.123   1.333   3.348 -0.9827 -0.2414 -0.0703
    3MOL    H20  784   0.035   1.943   3.153  0.6408  1.4833 -1.1497
    3MOL    C21  785   0.095   1.893   3.496  0.4098  0.7456 -0.7346
    3MOL    C22  786   0.042   1.797   3.604 -0.5438  0.4607  0.1693
    3MOL    O23  787   0.110   1.821   3.722  0.1281  0.0158 -0.0524
    3MOL    C24  788   0.208   1.722   3.744  0.2617  0.5849  0.4196
    3MOL    C25  789   0.312   1.768   3.846 -0.1866  0.3492 -0.4390
    3MOL    C26  790   0.409   1.655   3.860 -0.3719 -0.7004  0.0048
    3MOL    C27  791   0.386   1.904   3.822 -0.6556 -0.5334  0.7356
    3MOL    H28  792   0.203   1.905   3.503  0.3353  0.0366  3.0140
    3MOL    H29  793   0.057   1.993   3.516 -1.4803 -0.1734  0.4101
    3MOL    H30  794   0.049   1.694   3.570 -1.1676 -0.3754  2.4698
    3MOL    H31  795   0.258   1.706   3.649  1.9190  0.6270  1.2635
    3MOL    H32  796   0.168   1.624   3.766  4.6228 -0.8409  2.6327
    3MOL    H33  797   0.263   1.774   3.943  1.1703  1.9165  0.1743
    3MOL    H34  798   0.370   1.566   3.909 -0.8848 -1.0585 -1.0277
    3MOL    H35  799   0.490   1.681   3.927 -2.0397  2.8675  0.7832
    3MOL    H36  800   0.459   1.634   3.766  2.7085  0.9724  1.1889
    3MOL    H37  801   0.316   1.988   3.831  0.1374  0.2501 -0.1969
    3MOL    H38  802   0.464   1.913   3.898 -0.5847 -1.1174  0.7282
    3MOL    H39  803   0.431   1.913   3.723  2.0616 -2.9670  1.6989
    3MOL    C40  804   7.718   1.834   3.644 -0.1260 -0.5961  0.5648
    3MOL    C41  805   7.655   1.736   3.745 -0.0347 -0.6206 -0.4118
    3MOL    O42  806   7.620   1.616   3.677  0.1742  0.1926  0.3100
    3MOL    C43  807   7.640   1.497   3.747  0.0975 -1.5814  0.2075
    3MOL    C44  808   7.567   1.378   3.685 -0.5221  0.4954  0.6529
    3MOL    C45  809   7.624   1.342   3.555  0.4747  0.0612 -0.5981
    3MOL    C46  810   7.555   1.252   3.779  0.3962 -0.3188  0.7305
    3MOL    H47  811   7.648   1.851   3.562  1.1021  0.4602 -0.2743
    3MOL    H48  812   7.745   1.927   3.694 -2.1849 -0.5754  1.7071
    3MOL    H49  813   7.726   1.715   3.825  0.2174  0.3573 -0.3717
    3MOL    H50  814   7.614   1.514   3.851  0.0234  1.2509 -0.2187
    3MOL    H51  815   7.746   1.474   3.743  0.2799 -0.5123 -2.4721
    3MOL    H52  816   7.462   1.405   3.675 -0.7876 -0.7848 -0.1269
    3MOL    H53  817   7.731   1.334   3.575  0.0648  0.4115  1.8290
    3MOL    H54  818   7.587   1.248   3.515  0.7763  0.1027 -0.9807
    3MOL    H55  819   7.609   1.420   3.481  0.5253  0.3125 -0.3425
    3MOL    H56  820   7.518   1.269   3.880 -1.2094 -2.9061  0.6348
    3MOL    H57  821   7.648   1.201   3.804  0.2250 -1.0881 -0.1428
    3MOL    H58  822   7.472   1.199   3.731 -0.6709  1.7871  0.1956
    3MOL    C59  823   7.529   1.795   3.807 -0.7661 -0.2379 -0.1109
    3MOL    C60  824   7.553   1.908   3.905 -0.8649 -0.8483  0.6052
    3MOL    O61  825   7.612   1.854   4.024  0.3101  0.2637 -0.7750
    3MOL    C62  826   7.736   1.929   4.059  0.4048  0.2638  0.4694
    3MOL    C63  827   7.796   1.862   4.182 -0.2470 -0.2242  0.1810
    3MOL    C64  828   0.016   1.717   4.159  0.2606  0.0871  0.4430
    3MOL    C65  829   0.091   1.950   4.230  0.0644  0.1527  0.1998
    3MOL    H66  830   7.481   1.714   3.862 -2.3143 -1.3596 -3.0731
    3MOL    H67  831   7.458   1.834   3.735  0.5682 -1.1407 -1.9463
    3MOL    H68  832   7.612   1.983   3.853 -1.3743 -0.2630  0.8664
    3MOL    H69  833   7.801   1.934   3.973 -0.6352 -0.8810 -0.4012
    3MOL    H70  834   7.704   2.029   4.088  0.2309  0.9625 -2.0514
    3MOL    H71  835   7.720   1.874   4.259  2.0041  1.8469  2.1621
    3MOL    H72  836   0.077   1.679   4.241 -0.5161 -0.1660  0.9031
    3MOL    H73  837   0.079   1.713   4.070  0.1508 -0.3621  0.3815
    3MOL    H74  838   7.760   1.644   4.148 -1.9742  1.9012  3.8303
    3MOL    H75  839   0.149   1.907   4.312  0.1072 -1.4368 -0.6354
    3MOL    H76  840   0.156   1.964   4.143 -0.2975 -2.0731 -0.4813
    3MOL    H77  841   0.069   2.052   4.262 -0.1095  0.4610 -0.8852
    3MOL    C78  842   7.419   1.977   3.949  0.4286 -0.6489  0.2682
    3MOL    C79  843   7.327   2.042   3.843  0.2796  0.0911 -0.2929
    3MOL    O80  844   7.219   2.126   3.884 -0.9434 -0.8995  0.1146
    3MOL    C81  845   7.110   2.053   3.931  0.2705 -0.3340 -0.2730
    3MOL    C82  846   7.002   2.146   3.970  0.6726  0.2309 -0.0490
    3MOL    C83  847   6.925   2.216   3.853  0.5531  0.2672  0.0396
    3MOL    C84  848   7.055   2.251   4.066  0.1556  0.0742 -0.0012
    3MOL    H85  849   7.440   2.043   4.034 -1.5944  1.5136 -0.8564
    3MOL    H86  850   7.364   1.894   3.992 -1.1778  0.0610 -0.3791
    3MOL    H87  851   7.292   1.955   3.789 -1.6803  0.5768  0.1749
    3MOL    H88  852   7.067   2.000   3.846  0.4927 -0.5148 -0.2746
    3MOL    H89  853   7.148   1.996   4.016  1.6710  0.9509 -0.0105
    3MOL    H90  854   6.929   2.087   4.026  0.7522 -0.7336 -0.9676
    3MOL    H91  855   6.837   2.265   3.894  0.6822  0.9802 -0.5161
    3MOL    H92  856   6.902   2.152   3.768  0.6081 -1.3524  1.2177
    3MOL    H93  857   6.991   2.296   3.819 -0.9949  1.8502  0.6858
    3MOL    H94  858   7.112   2.218   4.153  0.8207  0.4807 -0.2797
    3MOL    H95  859   6.967   2.311   4.092  0.1872 -0.0453  0.3861
    3MOL    H96  860   7.113   2.322   4.006  1.6078  0.7166  2.1040
    3MOL    C97  861   7.407   2.132   3.754  0.7108 -1.3664 -0.5580
    3MOL    C98  862   7.330   2.183   3.640 -0.0554 -1.4473  0.1357
    3MOL    O99  863   7.322   2.086   3.534 -0.8463 -0.4083  0.0605
    3MOL   C100  864   7.231   2.100   3.431  0.0896 -0.5557  0.8058
    3MOL   C101  865   7.094   2.040   3.454 -0.5008 -0.0956  0.3169
    3MOL   C102  866   7.021   2.035   3.319 -0.0370 -0.3314 -0.1333
    3MOL   C103  867   7.104   1.906   3.527  0.5351 -0.0908 -0.1099
    3MOL   H104  868   7.489   2.075   3.710  1.6967  1.5071 -2.5427
    3MOL   H105  869   7.451   2.215   3.809 -0.8600  0.8531 -2.5526
    3MOL   H106  870   7.226   2.205   3.665 -0.4516  0.1945 -2.8137
    3MOL   H107  871   7.263   2.038   3.347 -1.7615 -0.8116  0.2839
    3MOL   H108  872   7.221   2.204   3.400 -1.5986 -0.1446  2.6794
    3MOL   H109  873   7.040   2.108   3.520 -0.9721  0.8912 -1.0551
    3MOL   H110  874   7.005   2.134   3.276 -0.7251 -0.4042 -0.0531
    3MOL   H111  875   7.064   1.969   3.244 -0.6631 -2.7534  1.6144
    3MOL   H112  876   6.920   1.997   3.334  0.1076 -0.4787  0.4864
    3MOL   H113  877   7.154   1.892   3.622 -0.1081  1.3426  0.4495
    3MOL   H114  878   7.005   1.867   3.549  0.9772 -0.2129  1.6928
    3MOL   H115  879   7.137   1.821   3.466 -2.4591  0.6234 -2.8347
    3MOL   C116  880   7.368   2.325   3.604  0.0105 -0.9846 -0.2268
    3MOL   C117  881   7.507   2.348   3.518  0.4888 -0.2478 -0.3391
    3MOL   O118  882   7.468   2.342   3.384 -0.2838 -0.1121  0.1536
    3MOL   C119  883   7.565   2.278   3.300  0.1131  0.4038  0.2058
    3MOL   C120  884   7.520   2.302   3.152  0.6648  0.0675  0.2219
    3MOL   C121  885   7.612   2.226   3.053 -0.1692  0.0247  0.3686
    3MOL   C122  886   7.378   2.247   3.141  0.4034 -0.5513 -0.3616
    3MOL   H123  887   7.283   2.365   3.548  0.2075  0.4652  0.4917
    3MOL   H124  888   7.361   2.390   3.691 -1.7223 -1.4156 -0.0200
    3MOL   H125  889   7.581   2.277   3.554  0.8255  0.0174 -0.5009
    3MOL   H126  890   7.557   2.172   3.324  1.2356  0.6761  1.8332
    3MOL   H127  891   7.667   2.314   3.314 -0.2093  1.7389 -0.7212
    3MOL   H128  892   7.528   2.407   3.125  0.3799 -0.5353 -2.3258
    3MOL   H129  893   7.714   2.266   3.052  0.7035 -2.1233 -3.0434
    3MOL   H130  894   7.565   2.237   2.956 -0.8604  0.6695  0.7778
    3MOL   H131  895   7.620   2.120   3.077 -2.3297  0.2285  2.0820
    3MOL   H132  896   7.315   2.317   3.196 -1.5238 -1.6334 -1.1311
    3MOL   H133  897   7.348   2.246   3.036 -0.0715  1.9419 -0.2842
    3MOL   H134  898   7.373   2.147   3.185 -1.1414 -0.2661  0.1154
    3MOL   C135  899   7.573   2.485   3.545 -0.1771  0.2047  0.2559
    3MOL   C136  900   7.636   2.499   3.687  0.1065 -0.1785  0.0084
    3MOL   O137  901   7.753   2.424   3.680  0.0337 -0.4178 -0.1601
    3MOL   C138  902   7.777   2.313   3.762 -0.3181  0.2085 -0.3151
    3MOL   C139  903   0.076   2.230   3.722 -0.2102 -0.1526 -0.2022
    3MOL   C140  904   0.113   2.238   3.571  0.4429 -0.6293  0.1538
    3MOL   C141  905   0.204   2.266   3.803 -0.2357 -0.5383  0.3856
    3MOL   H142  906   7.644   2.513   3.468  0.7673 -1.3980  0.5201
    3MOL   H143  907   7.490   2.555   3.532 -2.3799 -2.3128  0.2937
    3MOL   H144  908   7.574   2.462   3.768 -1.7328  0.2075 -1.1959
    3MOL   H145  909   7.690   2.248   3.750  1.3617 -2.1669  0.0853
    3MOL   H146  910   7.790   2.359   3.860  3.1310  2.0811 -1.5623
    3MOL   H147  911   0.042   2.127   3.737 -1.3642 -0.2201 -2.9922
    3MOL   H148  912   0.117   2.344   3.547  0.5582 -0.9310 -1.1781
    3MOL   H149  913   0.028   2.198   3.516 -0.7432 -0.5037  1.8459
    3MOL   H150  914   0.212   2.197   3.550  0.2784 -0.8027 -0.2958
    3MOL   H151  915   0.288   2.216   3.754  1.2410  3.3556 -1.2303
    3MOL   H152  916   0.237   2.370   3.799  0.4082 -0.7596 -0.2739
    3MOL   H153  917   0.196   2.234   3.907  1.5636  0.1070  0.7406
    3MOL   C154  918   7.674   2.646   3.715  0.1742  0.6343 -0.0045
    3MOL   C155  919   7.768   2.667   3.829 -0.3451  0.0105 -0.3335
    3MOL   O156  920   0.054   2.756   3.792  0.5085  0.2871  0.1858
    3MOL   C157  921   0.149   2.708   3.703 -0.1187 -0.2640 -0.0012
    3MOL   C158  922   0.243   2.830   3.691  0.3376  0.5654 -0.6696
    3MOL   C159  923   0.191   2.941   3.608  0.0556 -0.2369 -0.3388
    3MOL   C160  924   0.303   2.871   3.825  0.0836  0.0846 -0.0417
    3MOL   H161  925   7.579   2.698   3.724  1.1202  2.5672 -1.1036
    3MOL   H162  926   7.710   2.694   3.624  0.3224  1.1203  0.3112
    3MOL   H163  927   7.804   2.569   3.861  2.0123 -0.1875 -3.3604
    3MOL   H164  928   0.113   2.674   3.606  0.7018  0.4281 -0.5586
    3MOL   H165  929   0.199   2.618   3.737 -0.6496  0.8728  3.9947
    3MOL   H166  930   0.323   2.780   3.636 -0.9885 -3.2224  0.6931
    3MOL   H167  931   0.259   3.026   3.613 -0.6141  0.4371 -2.3576
    3MOL   H168  932   0.099   2.976   3.656 -0.2130 -0.9209 -0.3567
    3MOL   H169  933   0.166   2.919   3.504 -0.1117  1.7579 -0.7485
    3MOL   H170  934   0.370   2.956   3.815  0.2203  0.3273  2.6151
    3MOL   H171  935   0.226   2.920   3.884 -0.9076 -0.8122 -0.5716
    3MOL   H172  936   0.338   2.790   3.887  0.8244 -1.3235 -2.2287
    3MOL   C173  937   7.698   2.752   3.943  0.2842 -0.6054 -0.2145
    3MOL   C174  938   7.743   2.720   4.084  0.8135  0.0141 -0.0726
    3MOL   O175  939   7.698   2.590   4.110  0.3494  0.3375  0.1683
    3MOL   C176  940   7.560   2.587   4.153  0.1759 -0.1455 -0.6097
    3MOL   C177  941   7.532   2.438   4.199 -0.6368  0.5427  0.8364
    3MOL   C178  942   7.535   2.337   4.083 -0.3324 -0.0376 -0.0898
    3MOL   C179  943   7.627   2.399   4.312 -0.2935 -0.0056  0.0935
    3MOL   H180  944   7.712   2.858   3.919  1.2463 -0.3315  1.5154
    3MOL   H181  945   7.590   2.737   3.931  0.2696 -0.4236 -0.3193
    3MOL   H182  946   7.701   2.794   4.152 -2.0813 -1.1805 -0.4657
    3MOL   H183  947   7.491   2.607   4.071  1.3163  0.9815 -1.3007
    3MOL   H184  948   7.547   2.656   4.236 -0.7743 -0.9126 -0.1192
    3MOL   H185  949   7.429   2.440   4.235 -0.8144  1.6040  0.2941
    3MOL   H186  950   7.439   2.340   4.031 -0.6088 -0.8249  0.3592
    3MOL   H187  951   7.612   2.377   4.017 -1.0901 -2.4355 -2.5013
    3MOL   H188  952   7.566   2.238   4.117  0.8942  1.4573  3.3212
    3MOL   H189  953   7.623   2.467   4.397  2.4709  1.8319 -1.2005
    3MOL   H190  954   7.733   2.384   4.291 -0.0500 -2.1099  2.4576
    3MOL   H191  955   7.590   2.302   4.346  0.7201 -0.1261  0.9042
    3MOL   C192  956   0.069   2.735   4.108 -0.1263 -0.4001  0.0272
    3MOL   C193  957   0.109   2.704   4.253  0.0755  0.0492 -0.7753
    3MOL   O194  958   0.043   2.796   4.335  0.2913 -0.0008  0.1732
    3MOL   C195  959   7.784   2.734   4.427 -0.4263 -1.1775 -0.1497
    3MOL   C196  960   7.762   2.837   4.543 -0.0729 -0.6912  0.0221
    3MOL   C197  961   7.652   2.788   4.642  0.3620 -0.0936  0.0171
    3MOL   C198  962   7.730   2.985   4.493  0.4730 -0.4939 -0.2627
    3MOL   H199  963   0.106   2.830   4.070 -0.9855 -0.3845 -0.7956
    3MOL   H200  964   0.123   2.671   4.039 -0.0288 -1.9931  1.5489
    3MOL   H201  965   0.077   2.602   4.275  1.8967 -0.8893 -2.3398
    3MOL   H202  966   7.819   2.642   4.476 -1.4922 -0.3238  2.3009
    3MOL   H203  967   7.684   2.709   4.392 -0.6193 -1.4495  0.5836
    3MOL   H204  968   0.028   2.855   4.602 -1.3204 -1.2693  2.1767
    3MOL   H205  969   7.652   2.832   4.742 -2.2421 -1.8616  0.8409
    3MOL   H206  970   7.551   2.821   4.619  0.0178  1.0741  2.9703
    3MOL   H207  971   7.667   2.680   4.653 -0.3670 -0.0121  2.1024
    3MOL   H208  972   7.630   2.988   4.450  0.6893 -2.1951 -0.9269
    3MOL   H209  973   7.734   3.049   4.582 -2.3928 -2.9694  1.7513
    3MOL   H210  974   7.802   3.027   4.423 -0.1767 -0.0637 -0.6744
    3MOL   C211  975   0.261   2.709   4.266 -0.3388  0.2133 -0.0671
    3MOL   C212  976   0.318   2.675   4.402  0.1249  0.3781  0.4334
    3MOL   O213  977   0.250   2.569   4.458  0.0341  0.3177 -0.3220
    3MOL   C214  978   0.241   2.572   4.605  0.8307  0.0669  0.6501
    3MOL   C215  979   0.198   2.429   4.653 -0.0441  0.1409  0.0753
    3MOL   C216  980   0.163   2.436   4.802  0.8125 -0.1633 -0.2531
    3MOL   C217  981   0.071   2.381   4.581 -1.1397 -0.3203 -0.0791
    3MOL   H218  982   0.286   2.812   4.239  1.1461  0.4873  2.2360
    3MOL   H219  983   0.319   2.654   4.191 -2.7016  0.9462 -2.5158
    3MOL   H220  984   0.292   2.756   4.469 -1.3993  0.0746  0.2444
    3MOL   H221  985   0.167   2.643   4.642  1.2297 -0.7220  3.0070
    3MOL   H222  986   0.336   2.591   4.654 -0.0050  0.0568  2.2774
    3MOL   H223  987   0.278   2.356   4.633  0.1550  0.7087 -1.3151
    3MOL   H224  988   0.245   2.469   4.866 -0.2901 -1.6097  1.9527
    3MOL   H225  989   0.082   2.507   4.819  0.6852  0.3290 -2.6271
    3MOL   H226  990   0.139   2.338   4.844  0.0248  0.7362  1.4450
    3MOL   H227  991   0.095   2.392   4.475 -2.8511 -0.6662 -0.5206
    3MOL   H228  992   7.811   2.449   4.596 -1.5057 -0.4481 -1.4998
    3MOL   H229  993   0.049   2.276   4.602  0.7498 -0.5830  0.6508
    3MOL   C230  994   0.469   2.636   4.401  1.6197  0.1615 -0.1395
    3MOL   C231  995   0.567   2.734   4.325 -0.2064 -0.6764 -0.1805
    3MOL   O232  996   0.547   2.860   4.375  0.3425  0.0864 -0.0218
    3MOL   C233  997   0.605   2.973   4.309  0.3469  0.1740  0.1856
    3MOL   C234  998   0.539   3.105   4.358 -0.1013 -0.8965 -0.1834
    3MOL   C235  999   0.603   3.232   4.294  0.0975 -0.4508 -0.0325
    3MOL   C236 1000   0.384   3.094   4.323 -1.1659 -0.1325  0.1013
    3MOL   H237 1001   0.473   2.541   4.348 -0.7896  0.4881 -0.9456
    3MOL   H238 1002   0.503   2.614   4.503  0.2558 -1.0408  0.0731
    3MOL   H239 1003   0.552   2.747   4.218 -0.2156 -0.3277 -0.1378
    3MOL   H240 1004   0.711   2.983   4.329 -0.1053  0.2171  2.8293
    3MOL   H241 1005   0.583   2.948   4.206  0.1154  0.6829  0.1107
    3MOL   H242 1006   0.553   3.114   4.466 -0.1944  0.0597 -0.2554
    3MOL   H243 1007   0.549   3.324   4.317  0.6584 -0.4782  1.4794
    3MOL   H244 1008   0.606   3.208   4.188 -2.6535 -0.9326 -0.0271
    3MOL   H245 1009   0.704   3.247   4.334  0.8822 -0.8290 -1.8407
    3MOL   H246 1010   0.378   3.099   4.214  3.0091  0.4974 -0.1549
    3MOL   H247 1011   0.337   3.010   4.375  0.3408 -1.3176 -0.4346
    3MOL   H248 1012   0.334   3.184   4.357 -2.2722 -0.7568  0.1556
    3MOL   C249 1013   0.717   2.685   4.346 -0.0069 -0.0404  0.1270
    3MOL   C250 1014   0.757   2.578   4.246 -0.6076 -0.4812  0.4161
    3MOL   O251 1015   0.775   2.632   4.111  0.3529 -0.2156  0.3059
    3MOL   C252 1016   0.757   2.538   4.012  0.0487  0.1449 -0.1487
    3MOL   C253 1017   0.733   2.605   3.877  0.1704 -0.3851 -0.7028
    3MOL   C254 1018   0.604   2.693   3.884 -0.7103 -0.1479 -0.3099
    3MOL   C255 1019   0.735   2.511   3.759  0.2706 -0.2740 -0.1278
    3MOL   H256 1020   0.737   2.649   4.447 -2.1752 -2.8797 -0.3986
    3MOL   H257 1021   0.780   2.773   4.330 -1.0952  0.6802 -0.3102
    3MOL   H258 1022   0.676   2.505   4.247 -0.1618 -1.0345 -1.8394
    3MOL   H259 1023   0.843   2.472   4.007 -2.1408 -2.7966 -0.5083
    3MOL   H260 1024   0.672   2.472   4.027  0.0112  0.2088 -0.0810
    3MOL   H261 1025   0.808   2.684   3.861  0.4415 -0.8141 -1.5677
    3MOL   H262 1026   0.591   2.757   3.796  3.3237  0.7639 -0.3337
    3MOL   H263 1027   0.606   2.767   3.964 -0.6615 -0.8949  0.3746
    3MOL   H264 1028   0.516   2.630   3.897  0.2350 -1.2207  0.9787
    3MOL   H265 1029   0.837   2.474   3.750  1.6676  3.3765 -0.1456
    3MOL   H266 1030   0.669   2.424   3.762  1.2683 -1.0636 -0.9775
    3MOL   H267 1031   0.711   2.571   3.671  0.7729  1.5919  0.9619
    3MOL   C268 1032   0.890   2.503   4.283 -0.1710 -0.1933 -0.8689
    3MOL   C269 1033   0.872   2.370   4.359 -0.8067 -1.1551  0.1939
    3MOL   O270 1034   0.998   2.325   4.419 -0.0149  0.2902 -0.6239
    3MOL   C271 1035   1.049   2.405   4.521  0.5093 -0.6264  0.8600
    3MOL   C272 1036   1.025   2.339   4.657 -0.2525  0.3072  0.2033
    3MOL   C273 1037   1.100   2.198   4.670 -0.3142 -0.3354 -0.2434
    3MOL   C274 1038   1.059   2.436   4.768  0.6292  0.1563 -0.4050
    3MOL   H275 1039   0.959   2.574   4.329  1.6954 -1.4756 -1.6319
    3MOL   H276 1040   0.944   2.466   4.196  0.6009 -1.1607  0.0178
    3MOL   H277 1041   0.801   2.401   4.435 -1.0806  0.3937 -0.6594
    3MOL   H278 1042   1.156   2.420   4.504  0.0971  0.0629 -1.3779
    3MOL   H279 1043   1.022   2.511   4.511  3.7152  0.1020 -0.8930
    3MOL   H280 1044   0.917   2.325   4.669 -0.3066  0.3309 -0.2351
    3MOL   H281 1045   1.199   2.204   4.624  0.0863  0.0437  0.6563
    3MOL   H282 1046   1.052   2.122   4.608  1.8986 -2.1901  0.2499
    3MOL   H283 1047   1.106   2.163   4.773 -1.3188 -0.6177 -0.2762
    3MOL   H284 1048   0.982   2.511   4.785 -2.2864 -2.5845 -1.1209
    3MOL   H285 1049   1.160   2.474   4.758  0.0795  2.8471  3.1348
    3MOL   H286 1050   1.059   2.369   4.854  0.4730 -0.1523 -0.6432
    3MOL   C287 1051   0.817   2.257   4.261 -0.2293 -0.1079 -0.5455
    3MOL   C288 1052   0.724   2.160   4.322  0.1538  0.2322  0.4414
    3MOL   O289 1053   0.602   2.229   4.338 -0.0571  0.5969 -0.4991
    3MOL   C290 1054   0.507   2.216   4.234 -0.0329 -0.2861  0.2535
    3MOL   C291 1055   0.360   2.263   4.295 -0.1929  0.1539 -0.6980
    3MOL   C292 1056   0.323   2.166   4.407 -0.0853  0.3746  0.1981
    3MOL   C293 1057   0.265   2.269   4.176 -0.2165 -0.5356  0.5108
    3MOL   H294 1058   0.906   2.211   4.219 -0.4128  0.4646 -1.5818
    3MOL   H295 1059   0.767   2.297   4.173 -2.5566  0.5955  1.0253
    3MOL   H296 1060   0.714   2.079   4.249  2.0687  0.5512 -0.2038
    3MOL   H297 1061   0.534   2.281   4.150 -3.3986 -0.1115 -0.7397
    3MOL   H298 1062   0.504   2.117   4.188 -0.8599 -0.6749  1.1465
    3MOL   H299 1063   0.360   2.363   4.339 -0.7790 -0.6148  1.0867
    3MOL   H300 1064   0.338   2.066   4.366 -0.9415 -0.2847  1.4472
    3MOL   H301 1065   0.216   2.180   4.424 -0.3979  2.0430 -2.8417
    3MOL   H302 1066   0.378   2.167   4.501 -0.8156  1.1459  0.6242
    3MOL   H303 1067   0.302   2.344   4.106 -1.0586 -0.6240 -0.0434
    3MOL   H304 1068   0.247   2.175   4.125  2.2542  0.2114 -1.8500
    3MOL   H305 1069   0.173   2.317   4.212  0.5021 -0.3520  2.1103
    3MOL   C306 1070   0.770   2.112   4.464  0.4662  0.6349 -0.3783
    3MOL   C307 1071   0.675   2.000   4.524  0.1467  0.3183  0.1414
    3MOL   O308 1072   0.690   1.885   4.441 -0.2691  0.0168  0.0911
    3MOL   C309 1073   0.563   1.834   4.403  0.2634  0.0366 -0.1612
    3MOL   C310 1074   0.585   1.714   4.315  0.2817  0.3358  0.3933
    3MOL   C311 1075   0.663   1.760   4.190  0.2658  0.2624 -0.0676
    3MOL   C312 1076   0.451   1.652   4.257  0.3515 -0.0398  0.9864
    3MOL   H313 1077   0.782   2.199   4.528 -1.5140  0.8863 -0.3117
    3MOL   H314 1078   0.868   2.067   4.453  0.6737  0.6591  1.2256
    3MOL   H315 1079   0.577   2.046   4.511  0.9249  1.4823 -1.8568
    3MOL   H316 1080   0.514   1.914   4.347 -1.3569 -0.0255  1.1060
    3MOL   H317 1081   0.492   1.807   4.481  0.3449 -0.4050 -0.2402
    3MOL   H318 1082   0.640   1.636   4.366 -0.2037 -0.7047 -0.6675
    3MOL   H319 1083   0.612   1.837   4.133  0.8659  1.5517  1.1102
    3MOL   H320 1084   0.685   1.674   4.125 -0.3469  0.6818 -0.8324
    3MOL   H321 1085   0.747   1.827   4.210 -0.7884  1.1102  1.6168
    3MOL   H322 1086   0.452   1.566   4.189 -1.8809 -0.3128  1.2556
    3MOL   H323 1087   0.390   1.733   4.218 -0.8957 -1.1076  0.6777
    3MOL   H324 1088   0.393   1.614   4.341  0.4246 -0.7886  0.7084
    3MOL   C325 1089   0.715   1.966   4.668 -0.6100 -0.1756  0.0004
    3MOL   C326 1090   0.623   1.880   4.745 -0.5017  1.2248 -0.0881
    3MOL   O327 1091   0.701   1.825   4.849  0.1497  0.1607 -0.3113
    3MOL   C328 1092   0.767   1.700   4.819 -0.0873  0.0274 -0.7268
    3MOL   C329 1093   0.887   1.677   4.901  0.6813 -0.1502  0.8720
    3MOL   C330 1094   0.916   1.530   4.894  0.2135 -0.6874 -0.4153
    3MOL   C331 1095   1.009   1.764   4.859 -0.1493  0.8683  0.4550
    3MOL   H332 1096   0.731   2.057   4.726 -3.3327 -0.4454  1.2219
    3MOL   H333 1097   0.812   1.915   4.671 -1.5027 -1.8693  0.7215
    3MOL   H334 1098   0.591   1.802   4.675 -0.2522 -2.0240  3.2853
    3MOL   H335 1099   0.697   1.621   4.846 -1.1439  1.3437  0.4620
    3MOL   H336 1100   0.800   1.688   4.716  1.9410 -0.0508 -0.0881
    3MOL   H337 1101   0.864   1.705   5.004 -2.2968 -0.8959  0.4543
    3MOL   H338 1102   0.937   1.506   4.790 -0.5141  1.9336 -1.2031
    3MOL   H339 1103   1.002   1.496   4.952 -1.3418 -0.6818  1.9421
    3MOL   H340 1104   0.843   1.457   4.928  2.2251 -1.7935  1.6768
    3MOL   H341 1105   0.976   1.865   4.834  0.1517  1.0058  0.6174
    3MOL   H342 1106   1.082   1.774   4.939 -0.7833  3.6041  0.7628
    3MOL   H343 1107   1.063   1.736   4.769  2.0746  1.2792  1.6435
    3MOL   C344 1108   0.507   1.948   4.818  0.3558 -0.1778  0.2294
    3MOL   C345 1109   0.390   1.855   4.863  0.7154 -0.6124  0.2785
    3MOL   O346 1110   0.309   1.922   4.967 -0.3780  0.3609 -0.0109
    3MOL   C347 1111   0.349   1.892   5.101  0.6575  1.0810  0.5158
    3MOL   C348 1112   0.291   1.978   5.214 -0.2247  0.2906 -0.5554
    3MOL   C349 1113   0.131   1.978   5.210  0.0866  0.1490 -0.2188
    3MOL   C350 1114   0.335   2.120   5.198 -0.2016 -0.0511 -0.4259
    3MOL   H351 1115   0.464   2.021   4.749  1.8783  0.0952 -0.4531
    3MOL   H352 1116   0.543   1.999   4.908 -0.8067 -0.5427  0.9162
    3MOL   H353 1117   0.421   1.761   4.909  1.5819 -1.2384 -1.5451
    3MOL   H354 1118   0.456   1.876   5.107  0.2159 -1.7697  1.3598
    3MOL   H355 1119   0.305   1.793   5.110 -2.6312  2.0488 -3.1675
    3MOL   H356 1120   0.322   1.945   5.313  0.7701 -1.4679 -1.4303
    3MOL   H357 1121   0.087   1.893   5.264  0.5743 -0.3862 -0.6702
    3MOL   H358 1122   0.089   1.962   5.111 -0.1289  0.4408 -0.1737
    3MOL   H359 1123   0.085   2.068   5.250 -1.3362 -0.3046 -0.8041
    3MOL   H360 1124   0.260   2.186   5.155 -2.7281 -1.8015  1.2181
    3MOL   H361 1125   0.367   2.165   5.292  2.9374 -0.7576 -1.0774
    3MOL   H362 1126   0.430   2.128   5.145 -1.1696 -2.2741 -2.6120
    3MOL   C363 1127   0.280   1.839   4.751  0.0397 -0.4927 -0.3230
    3MOL   C364 1128   0.155   1.763   4.796 -0.5618 -0.4612  0.2436
    3MOL   O365 1129   0.084   1.736   4.680  0.5288 -0.2113  0.2100
    3MOL   C366 1130   7.779   1.675   4.701 -0.0568 -0.7386  0.6135
    3MOL   C367 1131   7.708   1.669   4.566  0.0909  0.4113 -0.1337
    3MOL   C368 1132   7.557   1.631   4.580  0.9375 -0.4350 -0.0187
    3MOL   C369 1133   7.775   1.564   4.475  0.7207  0.1672  0.3459
    3MOL   H370 1134   0.242   1.940   4.734  0.9656 -0.1003 -0.1150
    3MOL   H371 1135   0.321   1.803   4.656  2.0088 -0.7537  0.5933
    3MOL   H372 1136   0.095   1.822   4.866 -1.8335  0.0555 -1.2421
    3MOL   H373 1137   7.768   1.575   4.742 -0.0370 -1.0472 -0.1197
    3MOL   H374 1138   7.717   1.749   4.751 -0.6602  0.2829 -1.5911
    3MOL   H375 1139   7.732   1.766   4.522  1.8144  0.6143  1.2044
    3MOL   H376 1140   7.511   1.703   4.648 -1.9033 -1.9866 -0.2385
    3MOL   H377 1141   7.557   1.529   4.620 -1.0500 -0.9938 -1.3460
    3MOL   H378 1142   7.501   1.598   4.493 -0.1764 -0.7304  0.8046
    3MOL   H379 1143   7.707   1.561   4.390  1.7630  1.3395 -0.5432
    3MOL   H380 1144   7.783   1.464   4.518 -0.5025 -1.1632 -2.4263
    3MOL   H381 1145   0.051   1.588   4.442  1.1579 -0.6041  1.0894
    3MOL   H382 1146   0.179   1.676   4.857  1.7821  0.9730  1.4456
    4MOL     C1 1147   4.955   6.765   1.782  0.9358 -0.3726 -0.7481
    4MOL     C2 1148   5.034   6.884   1.718  0.4165  0.2856  0.1963
    4MOL     O3 1149   4.956   6.941   1.622  0.1930 -0.1183  0.0940
    4MOL     C4 1150   4.956   6.881   1.496 -0.0791 -0.6805  0.4199
    4MOL     C5 1151   4.824   6.926   1.413 -0.0815 -0.1333  0.1984
    4MOL     C6 1152   4.701   6.853   1.466 -0.3639  0.0506  0.0691
    4MOL     C7 1153   4.847   6.890   1.268  0.1594 -0.2736 -1.2448
    4MOL     H8 1154   4.857   6.800   1.817  2.0091  0.0298  1.9763
    4MOL     H9 1155   4.933   6.688   1.708 -0.7312  0.4561 -1.1412
    4MOL    H10 1156   5.133   6.848   1.690  0.0063 -1.0608  0.4328
    4MOL    H11 1157   4.949   6.772   1.492 -2.4500 -0.4785 -2.6543
    4MOL    H12 1158   5.050   6.916   1.455 -0.8024  0.1380 -0.5629
    4MOL    H13 1159   4.821   7.035   1.416  0.8876 -0.0785 -0.6272
    4MOL    H14 1160   4.702   6.748   1.434  1.5077 -0.7583  2.5802
    4MOL    H15 1161   4.710   6.847   1.574 -3.1816  1.4406  0.4397
    4MOL    H16 1162   4.607   6.899   1.437 -0.4465 -1.8258 -2.8385
    4MOL    H17 1163   4.933   6.941   1.226  0.0929  1.9275  1.1722
    4MOL    H18 1164   4.841   6.786   1.237 -0.0568 -0.9350  0.9325
    4MOL    H19 1165   4.761   6.930   1.214 -0.5129  0.4468  0.3226
    4MOL    H20 1166   5.002   6.721   1.870 -0.1202 -2.2833 -1.1271
    4MOL    C21 1167   5.073   6.991   1.821  0.0091 -0.7932 -0.7509
    4MOL    C22 1168   5.135   7.122   1.757  0.1609  0.2225  0.3738
    4MOL    O23 1169   5.153   7.219   1.860  0.2377 -0.1488  0.5295
    4MOL    C24 1170   5.026   7.268   1.905  0.1855  0.7046 -0.2419
    4MOL    C25 1171   5.053   7.393   1.989 -0.1157 -0.2058  0.9255
    4MOL    C26 1172   5.100   7.364   2.134 -0.4828 -0.6173 -0.4229
    4MOL    C27 1173   5.156   7.492   1.922 -0.0677  0.1084  0.5595
    4MOL    H28 1174   4.995   7.004   1.896  1.7186 -1.2479  1.1835
    4MOL    H29 1175   5.147   6.955   1.893  0.4011  0.5873 -0.4471
    4MOL    H30 1176   5.054   7.165   1.697 -1.9720 -0.6748  2.5169
    4MOL    H31 1177   4.967   7.193   1.958 -1.7096  2.0265 -0.4586
    4MOL    H32 1178   4.962   7.307   1.826 -0.6816  0.2744  0.2347
    4MOL    H33 1179   4.961   7.449   2.008  1.0524  2.1675 -0.1631
    4MOL    H34 1180   5.205   7.337   2.132 -0.4764 -0.6050 -0.2433
    4MOL    H35 1181   5.046   7.287   2.189 -0.3886  0.3294  1.0060
    4MOL    H36 1182   5.087   7.454   2.194 -2.9923 -1.1135 -0.1485
    4MOL    H37 1183   5.254   7.447   1.933 -0.4813 -0.7625  0.7148
    4MOL    H38 1184   5.135   7.504   1.815 -0.4439  0.5150  0.6781
    4MOL    H39 1185   5.155   7.589   1.971 -1.7062 -0.4534  1.6723
    4MOL    C40 1186   5.275   7.113   1.694  0.2299  0.4992  0.5964
    4MOL    C41 1187   5.327   7.246   1.624 -0.4501 -0.1386  0.3949
    4MOL    O42 1188   5.254   7.252   1.500 -0.0182 -0.1611  0.3290
    4MOL    C43 1189   5.177   7.369   1.485 -0.1304 -0.5888 -0.9395
    4MOL    C44 1190   5.093   7.359   1.357  0.3238 -0.1382  1.2167
    4MOL    C45 1191   5.169   7.392   1.225  0.9054 -0.2720 -0.2990
    4MOL    C46 1192   5.021   7.221   1.355  0.0982 -0.2579  0.4549
    4MOL    H47 1193   5.266   7.039   1.614  1.8386  1.6402 -0.6910
    4MOL    H48 1194   5.345   7.080   1.770 -0.4437  2.0772  1.9250
    4MOL    H49 1195   5.310   7.328   1.695 -0.1644 -0.9436  1.3982
    4MOL    H50 1196   5.246   7.453   1.491  0.8951 -1.3750 -1.7089
    4MOL    H51 1197   5.114   7.373   1.574 -0.0309  0.5926 -0.9153
    4MOL    H52 1198   5.012   7.431   1.368  1.8181  1.4277  2.1902
    4MOL    H53 1199   5.108   7.376   1.136 -0.0125 -0.7649  0.3980
    4MOL    H54 1200   5.192   7.498   1.228  0.1936 -0.1094 -0.4021
    4MOL    H55 1201   5.257   7.327   1.220  2.4572  1.8920 -1.5231
    4MOL    H56 1202   4.959   7.205   1.266  1.4250  0.5015 -0.6240
    4MOL    H57 1203   4.963   7.212   1.447  0.3199  0.0763  0.6297
    4MOL    H58 1204   5.095   7.142   1.348  1.4486  0.9852  0.4185
    4MOL    C59 1205   5.473   7.220   1.580  0.2302 -0.5339  0.0106
    4MOL    C60 1206   5.554   7.348   1.578 -0.0807 -0.7054 -0.0115
    4MOL    O61 1207   5.667   7.319   1.501  0.0273  0.7354 -0.4095
    4MOL    C62 1208   5.641   7.320   1.357  0.1109  0.4733  0.2181
    4MOL    C63 1209   5.763   7.318   1.263 -0.2734  0.1761  0.2797
    4MOL    C64 1210   5.804   7.457   1.217 -0.3707 -0.2292  0.2116
    4MOL    C65 1211   5.878   7.248   1.333 -0.0919  0.4091  0.1723
    4MOL    H66 1212   5.457   7.158   1.492  0.5690 -0.1650 -0.3136
    4MOL    H67 1213   5.528   7.162   1.655  2.7714  1.1817 -0.4740
    4MOL    H68 1214   5.489   7.418   1.526  2.4367  1.8434  0.1214
    4MOL    H69 1215   5.580   7.233   1.336  0.6315  0.5233 -1.5118
    4MOL    H70 1216   5.573   7.403   1.340 -0.0965  0.3101  0.2541
    4MOL    H71 1217   5.753   7.267   1.168 -1.0886  1.2359 -0.2115
    4MOL    H72 1218   5.852   7.505   1.302 -0.4358  0.3696 -0.0879
    4MOL    H73 1219   5.720   7.520   1.189  0.5245 -0.0614 -2.2242
    4MOL    H74 1220   5.881   7.474   1.141  1.7504  0.2890  2.4016
    4MOL    H75 1221   5.913   7.314   1.412  2.7959 -1.1808  0.2948
    4MOL    H76 1222   5.841   7.163   1.390 -3.3062  0.9229 -0.9934
    4MOL    H77 1223   5.964   7.231   1.268  0.5443  1.8375  0.6125
    4MOL    C78 1224   5.613   7.391   1.717  0.2440  0.0065  0.3821
    4MOL    C79 1225   5.662   7.535   1.725  0.3136  0.1413  0.1403
    4MOL    O80 1226   5.551   7.615   1.726 -0.4900  0.0766 -0.3968
    4MOL    C81 1227   5.567   7.740   1.677  0.1668  0.0353 -0.0800
    4MOL    C82 1228   5.428   7.812   1.663 -0.2400  0.0062 -0.3759
    4MOL    C83 1229   5.347   7.788   1.798  0.6705 -0.3352 -0.2546
    4MOL    C84 1230   5.341   7.773   1.542 -0.5618  0.5256  0.0542
    4MOL    H85 1231   5.684   7.314   1.748 -1.2932 -1.6857 -0.1784
    4MOL    H86 1232   5.530   7.387   1.788 -0.5376 -1.5393 -0.5951
    4MOL    H87 1233   5.724   7.546   1.635 -0.4308 -0.7939 -0.5050
    4MOL    H88 1234   5.627   7.802   1.744  0.3771 -1.2172  0.8957
    4MOL    H89 1235   5.617   7.742   1.580  0.9275 -2.0314  0.2669
    4MOL    H90 1236   5.453   0.092   1.647 -0.4910  0.0060 -0.7602
    4MOL    H91 1237   5.391   0.015   1.884 -2.8403  0.1725  1.3260
    4MOL    H92 1238   5.333   7.684   1.826 -1.3187 -0.9750 -3.4085
    4MOL    H93 1239   5.253   0.017   1.782  1.8509  1.6770 -0.6285
    4MOL    H94 1240   5.240   7.810   1.555 -0.1900  0.9304  1.9036
    4MOL    H95 1241   5.346   7.665   1.541  1.5187  0.6021 -0.1455
    4MOL    H96 1242   5.373   7.805   1.442 -0.7889  0.4344 -0.0467
    4MOL    C97 1243   5.731   7.570   1.857 -0.4515 -0.9696 -0.2082
    4MOL    C98 1244   5.868   7.500   1.884 -0.5958 -0.1656 -0.4514
    4MOL    O99 1245   5.852   7.361   1.903 -0.5723 -0.1911 -0.0423
    4MOL   C100 1246   5.923   7.275   1.816  0.0644  0.2893 -0.1824
    4MOL   C101 1247   5.875   7.127   1.850 -0.5109  0.0873 -0.4650
    4MOL   C102 1248   5.908   7.037   1.727 -0.0227  0.0386  0.0575
    4MOL   C103 1249   5.933   7.069   1.980 -0.0617 -0.1213  0.4697
    4MOL   H104 1250   5.667   7.556   1.944  1.0689 -2.1258  0.7491
    4MOL   H105 1251   5.750   7.678   1.849 -2.7462 -0.4650  0.8969
    4MOL   H106 1252   5.927   7.527   1.796  0.5689 -2.6230 -0.4682
    4MOL   H107 1253   6.029   7.295   1.831  0.5884  0.4733 -3.8482
    4MOL   H108 1254   5.892   7.304   1.716 -2.4006 -0.1849  0.4297
    4MOL   H109 1255   5.767   7.132   1.858 -0.5900  0.1533 -1.5061
    4MOL   H110 1256   6.008   7.051   1.686  0.1570  1.2617  0.8858
    4MOL   H111 1257   5.904   6.930   1.751 -0.7961 -0.0806 -0.5934
    4MOL   H112 1258   5.838   7.067   1.649 -0.9185  0.0796  0.8629
    4MOL   H113 1259   6.040   7.085   1.976 -0.4984  2.3885 -3.3334
    4MOL   H114 1260   5.892   7.120   2.067 -3.7847 -1.3626 -0.4324
    4MOL   H115 1261   5.897   6.966   1.990 -5.4606  1.4481 -1.0429
    4MOL   C116 1262   5.943   7.555   2.006 -0.0156 -0.2692 -0.0386
    4MOL   C117 1263   6.037   7.676   1.979 -0.3156 -0.0053  0.2147
    4MOL   O118 1264   6.067   7.725   2.114  0.5798  0.2614  0.5326
    4MOL   C119 1265   6.092   0.040   2.108  0.1932  0.7382 -0.1360
    4MOL   C120 1266   6.062   0.105   2.243  0.5004 -0.4880  0.4478
    4MOL   C121 1267   5.915   0.129   2.263 -0.2614  0.0018 -0.0799
    4MOL   C122 1268   6.123   0.036   2.362 -0.4917 -0.1350  0.4103
    4MOL   H123 1269   5.872   7.586   2.083  0.4663  2.1468 -0.5093
    4MOL   H124 1270   6.001   7.477   2.054  0.7557 -1.4740 -2.8394
    4MOL   H125 1271   5.986   7.741   1.909 -1.6750 -0.9290  0.3296
    4MOL   H126 1272   6.025   0.078   2.031 -2.7135 -0.3892  1.7439
    4MOL   H127 1273   6.197   0.057   2.084  0.7993 -0.0180  1.9209
    4MOL   H128 1274   6.103   0.206   2.244  0.0541 -0.3147  1.7036
    4MOL   H129 1275   5.863   0.034   2.246 -1.5101  0.5137  0.8073
    4MOL   H130 1276   5.872   0.196   2.189 -0.8149  1.8895  1.8896
    4MOL   H131 1277   5.894   0.156   2.366  0.7281 -2.9082  0.9511
    4MOL   H132 1278   6.074   7.763   2.373  0.9619 -0.9521 -0.2300
    4MOL   H133 1279   6.228   0.013   2.347 -0.9004 -1.2022 -0.9327
    4MOL   H134 1280   6.109   0.079   2.461  0.4480  0.1111  0.4369
    4MOL   C135 1281   6.175   7.625   1.919 -0.2595  0.2518 -0.4550
    4MOL   C136 1282   6.231   7.724   1.816  0.1920 -0.6501  0.1303
    4MOL   O137 1283   6.363   7.692   1.787 -0.0042  0.3313  0.1286
    4MOL   C138 1284   6.459   7.729   1.892  0.6803 -0.8112  0.1109
    4MOL   C139 1285   6.583   7.636   1.884  0.2928 -0.0438  0.0194
    4MOL   C140 1286   6.543   7.488   1.899 -0.2176  0.6928  0.2479
    4MOL   C141 1287   6.649   7.668   1.748  0.8442 -0.1714  0.1599
    4MOL   H142 1288   6.250   7.601   1.994  0.8314  1.9246 -0.9685
    4MOL   H143 1289   6.172   7.530   1.867  1.4796 -0.3652  0.5348
    4MOL   H144 1290   6.231   0.002   1.854 -0.3864 -1.3363  2.0706
    4MOL   H145 1291   6.414   7.710   1.989 -0.8983 -0.5109 -0.5520
    4MOL   H146 1292   6.486   0.010   1.898  3.0709 -1.3003 -1.2209
    4MOL   H147 1293   6.655   7.643   1.965  0.9742 -1.9627 -0.4009
    4MOL   H148 1294   6.475   7.457   1.819 -0.3506 -1.0875  1.0496
    4MOL   H149 1295   6.502   7.469   1.998 -0.8941  0.2560 -0.1130
    4MOL   H150 1296   6.638   7.435   1.899  0.4160  1.7895 -0.5425
    4MOL   H151 1297   6.585   7.633   1.667  1.8185  0.5884 -0.9432
    4MOL   H152 1298   6.649   7.777   1.746 -1.8298 -0.0906  1.1848
    4MOL   H153 1299   6.739   7.607   1.741  1.8822  1.1332  1.6445
    4MOL   C154 1300   6.152   7.716   1.686  0.0209 -0.0513 -0.9719
    4MOL   C155 1301   6.194   7.819   1.575  0.3223 -0.5274 -0.1549
    4MOL   O156 1302   6.124   7.795   1.453 -0.0967 -0.2956  0.1216
    4MOL   C157 1303   6.210   7.793   1.341  0.0545  0.3386 -0.0473
    4MOL   C158 1304   6.158   7.732   1.212 -0.2462  0.2629  0.3120
    4MOL   C159 1305   6.162   7.576   1.205 -0.1157 -0.6320 -0.9390
    4MOL   C160 1306   6.017   7.782   1.196 -0.0410  0.0372  0.9852
    4MOL   H161 1307   6.046   7.728   1.708  0.7563  2.9386  1.3566
    4MOL   H162 1308   6.169   7.617   1.644  1.2458 -0.1850 -0.2136
    4MOL   H163 1309   6.300   7.796   1.559  0.8505  1.8754 -0.2717
    4MOL   H164 1310   6.294   7.727   1.366 -0.2342  0.0943  0.2845
    4MOL   H165 1311   6.255   0.065   1.315 -1.6353  1.6893  1.8988
    4MOL   H166 1312   6.217   7.767   1.127 -2.6041 -0.0526 -1.5040
    4MOL   H167 1313   6.261   7.549   1.241  0.1463 -1.0868 -1.9597
    4MOL   H168 1314   6.150   7.526   1.108  0.6353 -1.4887 -0.5985
    4MOL   H169 1315   6.081   7.543   1.269 -0.3258 -2.0971 -1.9328
    4MOL   H170 1316   5.962   7.733   1.276 -3.4132 -0.5743 -1.5490
    4MOL   H171 1317   6.004   0.066   1.202 -2.4042  0.1075 -3.2041
    4MOL   H172 1318   5.974   7.755   1.099 -2.6094  1.7733  1.5847
    4MOL   C173 1319   6.174   0.144   1.616  0.2581  0.1572  0.0043
    4MOL   C174 1320   6.026   0.191   1.652 -0.6707  0.5701 -0.4205
    4MOL   O175 1321   6.035   0.329   1.683 -0.8801 -0.1421 -0.0618
    4MOL   C176 1322   6.053   0.354   1.824 -0.3039 -0.1043 -0.0809
    4MOL   C177 1323   6.093   0.499   1.864 -0.1052 -0.0609 -0.2424
    4MOL   C178 1324   5.984   0.589   1.814 -0.2186  0.0914  0.1055
    4MOL   C179 1325   6.118   0.518   2.017  0.1834 -0.8226  1.1675
    4MOL   H180 1326   6.243   0.174   1.695  0.0394 -0.1894  0.3272
    4MOL   H181 1327   6.197   0.211   1.533  0.2125  1.3201  0.9088
    4MOL   H182 1328   5.990   0.121   1.727  1.9951  2.1286  2.4304
    4MOL   H183 1329   6.130   0.286   1.859 -1.8363 -1.7460  0.1365
    4MOL   H184 1330   5.965   0.329   1.884 -0.5475  2.7782  0.8484
    4MOL   H185 1331   6.195   0.517   1.829 -0.1986  2.7478  0.8358
    4MOL   H186 1332   5.966   0.567   1.709 -1.7113  1.8951 -0.0430
    4MOL   H187 1333   5.898   0.585   1.880  0.8140 -0.9984  1.4158
    4MOL   H188 1334   6.024   0.690   1.823  1.8373 -0.9100  2.8431
    4MOL   H189 1335   6.025   0.503   2.072 -2.1542  1.2565 -1.9464
    4MOL   H190 1336   6.138   0.624   2.030  0.9991 -0.6542 -1.1391
    4MOL   H191 1337   6.205   0.467   2.057 -0.0541 -1.2068  1.1958
    4MOL   C192 1338   5.932   0.172   1.531  0.3812 -0.2959  0.1868
    4MOL   C193 1339   5.794   0.248   1.537 -0.7500 -0.2293  0.2564
    4MOL   O194 1340   5.726   0.215   1.657  0.6185  0.1898 -0.2041
    4MOL   C195 1341   5.657   0.328   1.712 -0.0036 -0.2214  0.0101
    4MOL   C196 1342   5.594   0.273   1.840 -0.0705  0.7405 -0.4777
    4MOL   C197 1343   5.486   0.361   1.899  0.3810  0.6528 -0.1414
    4MOL   C198 1344   5.698   0.243   1.946 -0.3540  0.1549  0.0511
    4MOL   H199 1345   5.919   0.067   1.506 -2.8200  0.2641 -0.6186
    4MOL   H200 1346   5.985   0.210   1.444  2.9092 -1.5135  1.1404
    4MOL   H201 1347   5.814   0.355   1.533  1.3160 -0.5533  1.0341
    4MOL   H202 1348   5.576   0.367   1.651 -1.5935 -1.5597  1.2169
    4MOL   H203 1349   5.725   0.412   1.726 -0.6178  0.3924 -0.6795
    4MOL   H204 1350   5.545   0.180   1.813  0.6683  0.6196 -1.4086
    4MOL   H205 1351   5.531   0.458   1.922  0.3244  0.0945  2.4866
    4MOL   H206 1352   5.401   0.375   1.831 -2.1580 -1.0291  2.5813
    4MOL   H207 1353   5.455   0.332   1.999  0.8091 -0.8393 -0.4241
    4MOL   H208 1354   5.653   0.209   2.039  1.3732 -1.1226  0.4502
    4MOL   H209 1355   5.760   0.162   1.908  1.5005  0.2805  2.6701
    4MOL   H210 1356   5.756   0.333   1.967 -2.3095  0.8865  2.5418
    4MOL   C211 1357   5.699   0.206   1.424  0.3354  0.0935  0.4329
    4MOL   C212 1358   5.738   0.264   1.286  0.4278 -0.3861  0.7503
    4MOL   O213 1359   5.655   0.206   1.187 -0.0131  0.2522  0.1809
    4MOL   C214 1360   5.711   0.097   1.108  0.0498 -0.6008 -0.2715
    4MOL   C215 1361   5.585   0.019   1.063 -0.1523  0.0845  0.2528
    4MOL   C216 1362   5.609   7.755   0.944 -0.1694  0.1740 -0.6245
    4MOL   C217 1363   5.528   7.768   1.182  0.5507 -0.4420 -0.0923
    4MOL   H218 1364   5.598   0.241   1.446  0.3510  1.1913 -1.1104
    4MOL   H219 1365   5.699   0.098   1.412  1.7684  0.1849 -0.4353
    4MOL   H220 1366   5.840   0.234   1.262 -0.1665 -1.0682 -1.0646
    4MOL   H221 1367   5.774   0.040   1.177  1.8461  1.9874  0.3087
    4MOL   H222 1368   5.775   0.131   1.027  1.4931 -0.6630  0.8036
    4MOL   H223 1369   5.515   0.101   1.046  0.4187 -0.0304 -2.9551
    4MOL   H224 1370   5.656   7.810   0.862  3.1773 -0.5889  0.7344
    4MOL   H225 1371   5.669   7.668   0.971  3.0313  2.4363 -0.2031
    4MOL   H226 1372   5.520   7.724   0.888 -2.1392 -0.4402  2.7199
    4MOL   H227 1373   5.592   7.686   1.217  0.1003 -0.0094  1.7413
    4MOL   H228 1374   5.432   7.726   1.154 -1.3186  1.7738  2.7636
    4MOL   H229 1375   5.510   0.006   1.268 -0.4490  0.5655 -1.0282
    4MOL   C230 1376   5.720   0.420   1.271 -0.3183 -0.6054 -0.2621
    4MOL   C231 1377   5.767   0.474   1.135  0.7427 -0.5024  0.0276
    4MOL   O232 1378   5.738   0.610   1.148 -0.2709  0.1928  0.3796
    4MOL   C233 1379   5.661   0.666   1.042 -0.2388  0.5574  0.5675
    4MOL   C234 1380   5.645   0.819   1.049  0.0292 -0.3767 -0.1305
    4MOL   C235 1381   5.573   0.859   1.181 -0.4016 -0.4079  0.5860
    4MOL   C236 1382   5.783   0.889   1.034  0.1986  0.9121 -0.0178
    4MOL   H237 1383   5.766   0.475   1.354  0.0830 -0.6348 -0.4621
    4MOL   H238 1384   5.613   0.439   1.282 -0.9303 -3.1982 -1.3658
    4MOL   H239 1385   5.703   0.421   1.064 -2.5629 -1.1246  3.3484
    4MOL   H240 1386   5.699   0.635   0.944  2.7076 -0.4492  1.9649
    4MOL   H241 1387   5.561   0.623   1.038  0.6359 -1.5374  0.7062
    4MOL   H242 1388   5.583   0.843   0.962 -0.2741  0.2182  0.2441
    4MOL   H243 1389   5.466   0.836   1.178 -0.4834 -0.0802  1.1317
    4MOL   H244 1390   5.577   0.964   1.208 -1.3632  0.1314 -1.2544
    4MOL   H245 1391   5.619   0.807   1.265  0.8974  4.2015  2.8594
    4MOL   H246 1392   5.857   0.888   1.114  0.3251 -1.4006 -0.1294
    4MOL   H247 1393   5.844   0.848   0.954 -1.4454 -1.8924  0.0963
    4MOL   H248 1394   5.763   0.995   1.019 -0.2299  0.8097 -0.1573
    4MOL   C249 1395   5.914   0.452   1.109 -0.3803 -0.0276  0.1105
    4MOL   C250 1396   6.011   0.513   1.218 -0.0553 -0.3038  0.0655
    4MOL   O251 1397   6.140   0.477   1.193 -0.4834  0.5988  0.4097
    4MOL   C252 1398   6.204   0.395   1.281  0.0625  0.1566  0.5591
    4MOL   C253 1399   6.346   0.375   1.232 -0.4088  0.3896  0.6330
    4MOL   C254 1400   6.360   0.278   1.121  0.0389  0.5282  0.2021
    4MOL   C255 1401   6.439   0.318   1.349 -0.9080  0.2495 -0.0214
    4MOL   H256 1402   5.933   0.491   1.009  0.9186  2.1150  1.1600
    4MOL   H257 1403   5.940   0.346   1.109  2.7604  0.6906  1.7296
    4MOL   H258 1404   5.974   0.480   1.315  1.3853 -0.9686  0.4018
    4MOL   H259 1405   6.202   0.450   1.375  0.5633  0.7817  0.2071
    4MOL   H260 1406   6.158   0.299   1.305 -1.4342  0.4974 -0.8311
    4MOL   H261 1407   6.386   0.466   1.186 -1.4306  0.7900  0.5176
    4MOL   H262 1408   6.297   0.190   1.137  0.6598  0.3456  1.7017
    4MOL   H263 1409   6.461   0.247   1.096  0.4444  0.8875  1.3629
    4MOL   H264 1410   6.325   0.321   1.027  0.3323  1.2245  0.4145
    4MOL   H265 1411   6.451   0.395   1.426 -0.1563  0.8006 -0.6965
    4MOL   H266 1412   6.411   0.230   1.408  0.9555  0.8363  1.7946
    4MOL   H267 1413   6.534   0.285   1.307 -0.1648 -0.1686  1.9024
    4MOL   C268 1414   6.012   0.669   1.232 -0.9219  0.2502 -0.2222
    4MOL   C269 1415   6.122   0.746   1.315  0.3018  0.3116  0.6211
    4MOL   O270 1416   6.067   0.864   1.378 -0.3545  0.4231 -0.4507
    4MOL   C271 1417   6.131   0.907   1.496  0.0182 -0.3423  0.0371
    4MOL   C272 1418   6.043   1.005   1.571  0.5342  0.0729 -1.0652
    4MOL   C273 1419   6.029   1.148   1.512  0.8304  0.2804  0.1103
    4MOL   C274 1420   5.908   0.947   1.607  0.2403  0.5063  0.5963
    4MOL   H275 1421   5.918   0.701   1.276 -0.7393  0.3846  0.0749
    4MOL   H276 1422   6.017   0.712   1.132 -0.1219 -0.4924 -0.5075
    4MOL   H277 1423   6.140   0.675   1.396  0.2551 -1.5558 -0.9701
    4MOL   H278 1424   6.141   0.823   1.565 -1.5608 -0.6043 -0.0289
    4MOL   H279 1425   6.228   0.949   1.469 -0.5404  0.7530 -0.2996
    4MOL   H280 1426   6.087   1.021   1.669  0.2804 -0.6934 -0.8267
    4MOL   H281 1427   5.998   1.232   1.574  0.4444 -1.9373  3.0238
    4MOL   H282 1428   5.957   1.152   1.430  2.4485  0.1851 -1.3374
    4MOL   H283 1429   6.121   1.177   1.462  1.2507  0.4821  0.9909
    4MOL   H284 1430   5.854   1.009   1.679  0.3754  0.3993  0.7910
    4MOL   H285 1431   5.910   0.850   1.657 -0.9676  0.6332  0.9229
    4MOL   H286 1432   5.849   0.941   1.516 -0.7756  1.4718  1.1756
    4MOL   C287 1433   6.255   0.777   1.241  0.5294 -0.1794  1.0443
    4MOL   C288 1434   6.240   0.871   1.118  0.7867  0.5129 -0.4378
    4MOL   O289 1435   6.305   0.810   1.007 -0.0440 -0.6335 -0.3128
    4MOL   C290 1436   6.218   0.741   0.921 -0.3389 -0.6061  0.3929
    4MOL   C291 1437   6.315   0.706   0.794  0.8563 -0.5594  0.6959
    4MOL   C292 1438   6.455   0.664   0.829 -0.7500 -0.2791  0.2323
    4MOL   C293 1439   6.327   0.826   0.701 -0.1340  0.5908  0.7533
    4MOL   H294 1440   6.298   0.682   1.210 -1.4659 -0.3378 -1.4252
    4MOL   H295 1441   6.318   0.821   1.318  1.1364  0.7557  0.0347
    4MOL   H296 1442   6.134   0.888   1.104  0.3847 -1.3097  0.2395
    4MOL   H297 1443   6.184   0.648   0.968 -0.1900 -1.4838 -1.1916
    4MOL   H298 1444   6.129   0.797   0.892 -1.4528 -3.0344 -1.0997
    4MOL   H299 1445   6.271   0.627   0.733  1.0612  0.2790 -0.5619
    4MOL   H300 1446   6.512   0.650   0.737  0.3042  2.5868  0.3875
    4MOL   H301 1447   6.451   0.564   0.872  0.1172 -0.7301 -0.7184
    4MOL   H302 1448   6.516   0.717   0.903  1.8134 -2.1762 -0.4597
    4MOL   H303 1449   6.378   0.914   0.740 -2.6267  1.1100  2.9797
    4MOL   H304 1450   6.372   0.786   0.610 -0.0904 -1.0887  1.4914
    4MOL   H305 1451   6.229   0.856   0.665  0.5251  1.1117 -0.6447
    4MOL   C306 1452   6.297   1.014   1.133  0.1869  0.5396  0.8588
    4MOL   C307 1453   6.324   1.106   1.010  0.1300 -0.1690  0.0642
    4MOL   O308 1454   6.206   1.171   0.979 -0.5338 -0.3262 -0.5810
    4MOL   C309 1455   6.120   1.096   0.898  0.5503  0.1032  0.2500
    4MOL   C310 1456   6.006   1.190   0.861  0.3137 -0.5466 -0.5898
    4MOL   C311 1457   5.928   1.239   0.982  0.1439  0.4243  0.0128
    4MOL   C312 1458   5.913   1.128   0.757 -0.5809  0.1672 -0.6895
    4MOL   H313 1459   6.388   1.009   1.194  1.2164  0.5276 -0.6583
    4MOL   H314 1460   6.242   1.074   1.205 -1.5093 -1.9632  1.7090
    4MOL   H315 1461   6.361   1.055   0.921 -1.1087  0.4553 -0.8098
    4MOL   H316 1462   6.082   1.017   0.963  0.5041 -0.2468 -0.1988
    4MOL   H317 1463   6.161   1.051   0.807  0.0157 -0.3311  0.2219
    4MOL   H318 1464   6.049   1.283   0.825 -0.1333  0.8668  2.3680
    4MOL   H319 1465   5.971   1.331   1.023  0.3069 -1.3649  4.0487
    4MOL   H320 1466   5.917   1.163   1.059 -3.0201 -1.1698 -1.8881
    4MOL   H321 1467   5.823   1.257   0.959  0.1202  2.3704  1.4791
    4MOL   H322 1468   5.870   1.032   0.786 -1.2499  0.0722 -1.9488
    4MOL   H323 1469   5.975   1.095   0.674  0.8592 -1.7379  1.1218
    4MOL   H324 1470   5.830   1.191   0.722  0.5190  1.7966 -0.4420
    4MOL   C325 1471   6.438   1.210   1.047  0.0995 -0.5032  0.3016
    4MOL   C326 1472   6.460   1.332   0.943 -0.7033  0.0520  0.5669
    4MOL   O327 1473   6.547   1.416   1.013 -0.6338 -0.1041 -0.2685
    4MOL   C328 1474   6.482   1.523   1.083 -0.0354 -0.2982  0.4293
    4MOL   C329 1475   6.579   1.601   1.178 -0.2446  0.7248 -0.0429
    4MOL   C330 1476   6.704   1.652   1.098  0.5471 -0.5296 -0.5794
    4MOL   C331 1477   6.515   1.720   1.244 -0.6574  0.0736 -0.2745
    4MOL   H332 1478   6.534   1.157   1.045  0.7927  0.8032 -1.4167
    4MOL   H333 1479   6.425   1.249   1.148 -3.0740 -0.5608 -0.0376
    4MOL   H334 1480   6.365   1.385   0.940 -0.9670 -0.2040  3.4616
    4MOL   H335 1481   6.433   1.594   1.015 -0.8542  1.2247  2.5457
    4MOL   H336 1482   6.399   1.487   1.144  0.1520 -0.2079  0.7366
    4MOL   H337 1483   6.626   1.532   1.248 -0.3128 -0.2999 -0.9868
    4MOL   H338 1484   6.680   1.721   1.017 -1.0096 -0.0769  0.2321
    4MOL   H339 1485   6.771   1.702   1.168 -0.9325  1.0889 -0.2694
    4MOL   H340 1486   6.767   1.573   1.057  0.1288 -1.3367  0.3110
    4MOL   H341 1487   6.442   1.772   1.183  0.4926  0.2631 -1.5205
    4MOL   H342 1488   6.470   1.677   1.334 -1.0866  0.1768 -0.4447
    4MOL   H343 1489   6.594   1.788   1.278 -0.8368  1.2882 -2.2160
    4MOL   C344 1490   6.524   1.305   0.800 -0.5225 -0.7626  0.1671
    4MOL   C345 1491   6.636   1.202   0.780 -0.9101  0.6600  0.4397
    4MOL   O346 1492   6.664   1.180   0.642  0.0850  0.3044  0.3095
    4MOL   C347 1493   6.580   1.080   0.585 -0.9591 -0.1352 -0.4715
    4MOL   C348 1494   6.601   1.080   0.433 -0.2746 -0.1858  1.3238
    4MOL   C349 1495   6.746   1.055   0.392  0.7073 -0.0246  0.3243
    4MOL   C350 1496   6.560   1.219   0.377 -0.6589 -0.0118  0.7468
    4MOL   H351 1497   6.566   1.394   0.752  0.4497 -0.8815  0.7948
    4MOL   H352 1498   6.438   1.287   0.735 -2.2903  0.6987  2.0064
    4MOL   H353 1499   6.597   1.111   0.825 -1.2788  0.3896 -0.4145
    4MOL   H354 1500   6.475   1.096   0.610 -0.5029 -0.6358  1.8874
    4MOL   H355 1501   6.608   0.977   0.607 -1.1791  0.0487  0.6870
    4MOL   H356 1502   6.541   0.996   0.398 -1.0175  0.2929  1.4384
    4MOL   H357 1503   6.815   1.117   0.448  0.8889  0.9832 -0.9684
    4MOL   H358 1504   6.770   1.095   0.293 -1.4146  0.1022 -0.1628
    4MOL   H359 1505   6.776   0.951   0.399 -2.7320 -1.1679 -0.7720
    4MOL   H360 1506   6.452   1.225   0.386 -0.9750 -1.4071 -1.6008
    4MOL   H361 1507   6.597   1.307   0.429 -1.1604 -0.3902  1.7599
    4MOL   H362 1508   6.585   1.226   0.271 -1.5300 -0.6342  0.4874
    4MOL   C363 1509   6.770   1.232   0.850  0.1882 -0.1055  0.3156
    4MOL   C364 1510   6.889   1.148   0.797  0.3126 -0.1490 -0.5653
    4MOL   O365 1511   6.995   1.140   0.895  0.3495  0.6685  0.0254
    4MOL   C366 1512   7.095   1.051   0.866 -0.5417 -0.2845  0.8786
    4MOL   C367 1513   7.225   1.089   0.949 -0.2171 -0.1046  0.1925
    4MOL   C368 1514   7.212   1.066   1.101 -0.4669  0.7628 -0.5823
    4MOL   C369 1515   7.282   1.232   0.906  1.1067 -0.8552  0.8377
    4MOL   H370 1516   6.798   1.338   0.854  0.2335 -0.1047 -0.0658
    4MOL   H371 1517   6.742   1.205   0.952 -0.1232 -0.5123  0.1248
    4MOL   H372 1518   6.920   1.192   0.702  1.6120  0.8171  0.2883
    4MOL   H373 1519   7.050   0.955   0.888 -1.1104 -0.2785 -0.2185
    4MOL   H374 1520   7.125   1.049   0.761 -2.4513 -1.4877  0.3418
    4MOL   H375 1521   7.302   1.018   0.920  1.2421  0.8520  1.5833
    4MOL   H376 1522   7.300   1.107   1.151  1.8946 -1.2531 -2.9559
    4MOL   H377 1523   7.218   0.958   1.110 -2.3877  0.7895  1.4879
    4MOL   H378 1524   7.121   1.098   1.153  0.0650  0.8148  0.3269
    4MOL   H379 1525   7.385   1.248   0.937  1.1821  0.3639 -0.0337
    4MOL   H380 1526   7.221   1.308   0.953  0.8910  0.4662 -1.5195
    4MOL   H381 1527   7.285   1.245   0.798  1.9645 -1.1001  0.8261
    4MOL   H382 1528   6.849   1.049   0.774  1.6348 -0.8071 -0.0842
    5MOL     C1 1529   6.479   4.169   6.388  0.5658 -0.1932 -0.0204
    5MOL     C2 1530   6.591   4.280   6.393 -0.1885 -1.2230  0.2137
    5MOL     O3 1531   6.660   4.279   6.268  0.4834  0.1372  0.0915
    5MOL     C4 1532   6.778   4.195   6.266  0.3737 -0.7882 -0.0775
    5MOL     C5 1533   6.862   4.197   6.145 -0.2728 -0.2340 -0.1633
    5MOL     C6 1534   6.786   4.159   6.020 -0.2580 -0.0719  0.4584
    5MOL     C7 1535   6.969   4.090   6.160 -0.4127  0.1364  0.1676
    5MOL     H8 1536   6.417   4.177   6.477 -0.7032  3.5526 -1.1582
    5MOL     H9 1537   6.426   4.183   6.293  1.1892  0.1011 -0.3306
    5MOL    H10 1538   6.664   4.268   6.473  0.1446  1.3709  0.3428
    5MOL    H11 1539   6.757   4.090   6.288 -0.3633 -1.2328 -2.7738
    5MOL    H12 1540   6.836   4.234   6.349  0.7014 -2.2933  0.4296
    5MOL    H13 1541   6.906   4.296   6.137  0.3772 -0.4919  0.1798
    5MOL    H14 1542   6.721   4.242   5.994 -2.4220 -1.8333  0.1658
    5MOL    H15 1543   6.861   4.139   5.943 -1.2545 -0.2676 -0.4588
    5MOL    H16 1544   6.722   4.071   6.016  1.6346 -1.4550 -0.2551
    5MOL    H17 1545   7.058   4.106   6.099 -0.4587  2.4457  0.6869
    5MOL    H18 1546   7.000   4.095   6.264 -2.1864  0.8336  0.6789
    5MOL    H19 1547   6.933   3.989   6.142 -0.5046  0.1168  0.4634
    5MOL    H20 1548   6.514   4.067   6.400  2.8472  0.5427 -0.1390
    5MOL    C21 1549   6.535   4.422   6.417 -0.2829 -0.3736 -0.3126
    5MOL    C22 1550   6.436   4.457   6.525 -0.2485  0.2882 -0.0829
    5MOL    O23 1551   6.503   4.438   6.652  0.7846  0.3675  0.6796
    5MOL    C24 1552   6.407   4.391   6.745 -0.5910 -0.2130  0.0429
    5MOL    C25 1553   6.494   4.346   6.867  0.1235 -0.2396  0.4105
    5MOL    C26 1554   6.581   4.219   6.836  0.0550  0.6128 -0.5136
    5MOL    C27 1555   6.569   4.465   6.938 -0.5895 -0.0097  0.6009
    5MOL    H28 1556   6.627   4.479   6.414 -1.2783  1.3826  1.7183
    5MOL    H29 1557   6.493   4.448   6.319  2.3287  1.3209 -1.0084
    5MOL    H30 1558   6.350   4.392   6.513 -0.7886  0.9173  0.3488
    5MOL    H31 1559   6.345   4.308   6.711 -2.3181  1.8251 -1.8959
    5MOL    H32 1560   6.349   4.474   6.786  0.1873  0.7187 -0.7150
    5MOL    H33 1561   6.438   4.315   6.955  1.4141  0.8060  1.6309
    5MOL    H34 1562   6.615   4.172   6.928 -0.1231 -1.7710 -1.6273
    5MOL    H35 1563   6.676   4.241   6.788  1.3730 -0.0613  1.6834
    5MOL    H36 1564   6.530   4.148   6.770  0.7878  1.8178 -2.3923
    5MOL    H37 1565   6.647   4.494   6.868 -1.9156 -0.0750 -0.9455
    5MOL    H38 1566   6.509   4.554   6.961 -0.2963  0.6471 -1.1554
    5MOL    H39 1567   6.611   4.432   7.033  1.9176 -0.6817 -0.7129
    5MOL    C40 1568   6.382   4.598   6.528  0.3807  0.2869 -0.1099
    5MOL    C41 1569   6.328   4.648   6.390  0.5304 -0.5064 -0.0178
    5MOL    O42 1570   6.275   4.777   6.414  0.2324  0.1891  0.2585
    5MOL    C43 1571   6.299   4.872   6.308 -0.3413  0.2239  0.1169
    5MOL    C44 1572   6.229   5.002   6.347 -0.1276  0.0124  0.2868
    5MOL    C45 1573   6.084   4.987   6.317  0.2563  0.3651 -1.0398
    5MOL    C46 1574   6.247   5.045   6.494 -0.6898  0.5041 -0.9054
    5MOL    H47 1575   6.460   4.670   6.554  0.4174 -0.5821  2.3190
    5MOL    H48 1576   6.306   4.606   6.606  0.2401 -1.9440  0.0120
    5MOL    H49 1577   6.417   4.654   6.326 -1.9344 -0.6182 -3.5965
    5MOL    H50 1578   6.264   4.826   6.215  0.2017 -0.2437  0.1400
    5MOL    H51 1579   6.403   4.897   6.289 -0.8979  1.1183 -1.9296
    5MOL    H52 1580   6.273   5.077   6.281  1.6518  1.5791  3.1761
    5MOL    H53 1581   6.034   5.084   6.326 -0.1236 -0.1071  3.0944
    5MOL    H54 1582   6.078   4.944   6.217  2.2017 -0.2081 -0.9136
    5MOL    H55 1583   6.039   4.911   6.381  1.6060 -0.7081 -1.3442
    5MOL    H56 1584   6.216   4.970   6.567 -0.2035  1.6202  0.4708
    5MOL    H57 1585   6.180   5.128   6.515 -0.6110  0.4545 -0.4576
    5MOL    H58 1586   6.348   5.079   6.516 -0.6034  0.0683 -0.6296
    5MOL    C59 1587   6.208   4.559   6.343  0.2045 -0.0781 -0.0667
    5MOL    C60 1588   6.239   4.472   6.216  0.3159  0.2242 -0.4903
    5MOL    O61 1589   6.303   4.549   6.122  0.5233 -0.3399  0.6619
    5MOL    C62 1590   6.412   4.486   6.051 -0.3460 -0.2734  0.1348
    5MOL    C63 1591   6.496   4.593   5.963 -1.0791  0.8418 -0.3953
    5MOL    C64 1592   6.516   4.718   6.042  0.7382  0.4796 -0.4118
    5MOL    C65 1593   6.628   4.541   5.902 -0.2885 -0.3098  0.1905
    5MOL    H66 1594   6.116   4.616   6.334 -0.8853 -1.9431 -1.2343
    5MOL    H67 1595   6.179   4.499   6.429  1.2040  0.5713  0.7256
    5MOL    H68 1596   6.303   4.387   6.238  1.0860  0.5924 -1.2886
    5MOL    H69 1597   6.475   4.433   6.122 -1.4879  0.1046  1.4622
    5MOL    H70 1598   6.373   4.409   5.985  0.8610  0.2230 -1.1848
    5MOL    H71 1599   6.425   4.614   5.884  1.5033 -0.4361 -3.1629
    5MOL    H72 1600   6.556   4.695   6.141 -0.1766  0.0455 -0.1312
    5MOL    H73 1601   6.424   4.776   6.056  0.0543  0.0063 -2.7853
    5MOL    H74 1602   6.587   4.784   5.993  2.1549 -1.5575 -1.1697
    5MOL    H75 1603   6.684   4.615   5.845  0.5156 -1.1411 -0.1054
    5MOL    H76 1604   6.693   4.513   5.985  0.9193  3.3704  0.5610
    5MOL    H77 1605   6.595   4.458   5.839 -3.8393  1.5599 -0.5731
    5MOL    C78 1606   6.116   4.408   6.150  0.2330 -0.7003 -0.0876
    5MOL    C79 1607   6.022   4.322   6.246 -0.3219 -1.1176  0.3763
    5MOL    O80 1608   5.893   4.308   6.191 -0.1666  0.2422  0.5892
    5MOL    C81 1609   5.792   4.402   6.238 -0.4544  0.0058 -0.0496
    5MOL    C82 1610   5.664   4.383   6.164 -0.3538 -0.1093  0.0398
    5MOL    C83 1611   5.602   4.254   6.185  0.0380 -0.4861  0.0282
    5MOL    C84 1612   5.686   4.414   6.017  0.0389 -0.8228  0.2457
    5MOL    H85 1613   6.141   4.340   6.069 -0.2681 -0.7704 -0.1859
    5MOL    H86 1614   6.054   4.486   6.105  0.5415  0.0725  0.7973
    5MOL    H87 1615   6.015   4.368   6.345 -1.4512  2.8356 -1.4551
    5MOL    H88 1616   5.777   4.397   6.346  2.0882 -3.1120  0.2205
    5MOL    H89 1617   5.823   4.505   6.220 -0.8372 -0.0326 -0.9258
    5MOL    H90 1618   5.599   4.468   6.183 -0.9177 -0.4119 -0.5553
    5MOL    H91 1619   5.665   4.174   6.145 -1.0390 -0.2040 -2.3330
    5MOL    H92 1620   5.506   4.262   6.134 -1.1443 -1.0240  2.1542
    5MOL    H93 1621   5.594   4.220   6.288  0.8605  0.1165  0.2924
    5MOL    H94 1622   5.716   4.518   6.002  0.4196 -0.8104  1.0315
    5MOL    H95 1623   5.591   4.392   5.968 -0.0220 -0.0687  0.0249
    5MOL    H96 1624   5.771   4.361   5.974 -1.1347 -2.3005 -0.3247
    5MOL    C97 1625   6.075   4.172   6.277  0.2179 -0.4131  0.2060
    5MOL    C98 1626   5.994   4.105   6.384  0.3220 -0.0710 -0.1561
    5MOL    O99 1627   5.999   4.192   6.499 -0.2840 -0.0040  0.6060
    5MOL   C100 1628   5.883   4.175   6.578 -0.0247  0.1174 -0.1211
    5MOL   C101 1629   5.912   4.242   6.708  0.2630 -0.1524  0.2193
    5MOL   C102 1630   6.018   4.169   6.785 -0.7586  0.9823  0.8098
    5MOL   C103 1631   5.943   4.390   6.698  0.3179  0.4308 -0.5961
    5MOL   H104 1632   6.182   4.175   6.294  0.4727 -2.9952 -0.6920
    5MOL   H105 1633   6.065   4.102   6.194 -0.3502  0.8586 -0.8131
    5MOL   H106 1634   5.891   4.106   6.349  1.4238  0.6362 -3.5173
    5MOL   H107 1635   5.859   4.072   6.603 -1.1024  0.3264 -0.2940
    5MOL   H108 1636   5.795   4.215   6.528  1.2605  1.8585 -1.0576
    5MOL   H109 1637   5.819   4.233   6.765 -0.0921  1.3139 -0.1051
    5MOL   H110 1638   6.011   4.214   6.884 -2.5712 -1.7184  1.9956
    5MOL   H111 1639   5.980   4.066   6.791  1.3593  0.0676 -0.9360
    5MOL   H112 1640   6.111   4.172   6.730 -1.8442 -0.0319 -1.1412
    5MOL   H113 1641   5.956   4.425   6.801 -2.4336  0.8575 -0.3519
    5MOL   H114 1642   6.036   4.418   6.650  0.3592 -0.3530 -0.9675
    5MOL   H115 1643   5.866   4.449   6.648 -0.5894 -0.8351 -0.7373
    5MOL   C116 1644   6.043   3.968   6.422  0.1944  0.0195  0.0872
    5MOL   C117 1645   6.038   3.862   6.307  0.0685  0.1784 -0.1695
    5MOL   O118 1646   6.163   3.861   6.232  0.1417  0.0662  0.6295
    5MOL   C119 1647   6.142   3.859   6.090  1.0536 -0.3256  0.8595
    5MOL   C120 1648   6.275   3.851   6.017  0.2364 -0.6110  0.1968
    5MOL   C121 1649   6.256   3.838   5.864 -0.1789 -0.3680  0.0427
    5MOL   C122 1650   6.360   3.977   6.051 -0.2144 -0.6703  0.4506
    5MOL   H123 1651   6.139   3.977   6.473 -0.9207 -2.1981  2.6785
    5MOL   H124 1652   5.975   3.925   6.495  0.0505 -2.2914 -1.3602
    5MOL   H125 1653   5.950   3.869   6.243  0.2282  0.0054 -0.4105
    5MOL   H126 1654   6.095   3.954   6.065  0.3264 -0.9154 -0.0717
    5MOL   H127 1655   6.071   3.781   6.061 -0.1854  1.0071  0.2699
    5MOL   H128 1656   6.326   3.760   6.049  1.8233  0.3550  0.4899
    5MOL   H129 1657   6.354   3.836   5.816  0.5033  3.7137  1.0810
    5MOL   H130 1658   6.194   3.918   5.825 -0.3689  0.2790  1.6092
    5MOL   H131 1659   6.193   3.749   5.862 -1.0759  0.2795 -3.8989
    5MOL   H132 1660   6.393   3.971   6.154 -1.4136  0.3823  0.8996
    5MOL   H133 1661   6.445   3.968   5.983  0.2975  2.3652  0.6251
    5MOL   H134 1662   6.309   4.073   6.049  1.2444  0.1465  1.4623
    5MOL   C135 1663   6.043   3.722   6.376 -0.1196 -0.4060 -0.2608
    5MOL   C136 1664   6.003   3.597   6.286 -0.6012 -1.0657 -0.0693
    5MOL   O137 1665   6.018   3.479   6.374 -0.4993  0.0822 -0.5837
    5MOL   C138 1666   6.140   3.409   6.377 -0.1827 -0.2469 -0.3098
    5MOL   C139 1667   6.148   3.314   6.489 -0.2508 -0.4561  0.2209
    5MOL   C140 1668   6.116   3.389   6.631  0.2108 -0.4508  0.3932
    5MOL   C141 1669   6.062   3.191   6.469 -0.2270  0.0569 -0.2847
    5MOL   H142 1670   6.145   3.705   6.409 -1.0726  0.6342  3.3933
    5MOL   H143 1671   5.993   3.727   6.472  0.0896  2.7304 -0.2505
    5MOL   H144 1672   6.075   3.588   6.205 -0.1458  0.8640  0.0910
    5MOL   H145 1673   6.209   3.492   6.394  0.9992 -1.1332 -0.7567
    5MOL   H146 1674   6.157   3.361   6.281  1.4137  1.1696 -0.7591
    5MOL   H147 1675   6.252   3.281   6.488 -0.0868  0.0452  0.2842
    5MOL   H148 1676   6.148   3.346   6.726  1.6093  1.7805  0.9672
    5MOL   H149 1677   6.008   3.406   6.633  0.1669 -0.6322 -0.2076
    5MOL   H150 1678   6.163   3.487   6.631  0.0098 -0.3501  1.8908
    5MOL   H151 1679   6.084   3.135   6.378  1.4757  1.6332 -0.8698
    5MOL   H152 1680   6.075   3.117   6.548  0.3858  0.5501  0.0760
    5MOL   H153 1681   5.955   3.212   6.472 -0.3619 -0.4883 -1.2280
    5MOL   C154 1682   5.851   3.601   6.248 -0.3132 -0.1738  0.1466
    5MOL   C155 1683   5.804   3.473   6.159 -0.1705 -0.3244  0.3485
    5MOL   O156 1684   5.677   3.441   6.210 -0.3363  0.1262 -0.2068
    5MOL   C157 1685   5.635   3.308   6.183  0.0479  0.0203 -0.5930
    5MOL   C158 1686   5.482   3.311   6.174 -0.7437 -0.1537  0.2479
    5MOL   C159 1687   5.413   3.309   6.308  0.4971 -0.0286  0.2720
    5MOL   C160 1688   5.432   3.424   6.082  0.5934  0.0914  0.1001
    5MOL   H161 1689   5.828   3.693   6.195 -0.7724  0.2595  1.0712
    5MOL   H162 1690   5.798   3.597   6.343  0.9562  3.9313  1.1115
    5MOL   H163 1691   5.873   3.391   6.176  0.5115  0.2709  0.5117
    5MOL   H164 1692   5.677   3.235   6.253 -1.7980  0.1602  0.7006
    5MOL   H165 1693   5.672   3.266   6.089  1.6950  0.7594 -0.2971
    5MOL   H166 1694   5.451   3.213   6.139 -1.4648  0.2887 -0.3721
    5MOL   H167 1695   5.305   3.305   6.296  0.5748 -0.5163 -0.2475
    5MOL   H168 1696   5.434   3.399   6.366  0.0985  0.3649 -0.1908
    5MOL   H169 1697   5.453   3.221   6.358 -0.3306 -0.4580  0.1775
    5MOL   H170 1698   5.330   3.405   6.049  0.4077  0.8163  0.2580
    5MOL   H171 1699   5.455   3.517   6.133 -0.4395  0.2281  0.3242
    5MOL   H172 1700   5.478   3.417   5.983 -1.6591  1.7421 -1.0911
    5MOL   C173 1701   5.795   3.509   6.011  0.3191 -0.0971  0.2919
    5MOL   C174 1702   5.929   3.525   5.941 -0.3567  0.2890 -0.7818
    5MOL   O175 1703   5.997   3.400   5.938 -0.4081 -0.2756 -0.5648
    5MOL   C176 1704   6.139   3.421   5.930 -0.0247 -0.4217  0.0650
    5MOL   C177 1705   6.192   3.283   5.901  0.2793  1.0282 -0.0520
    5MOL   C178 1706   6.152   3.179   6.015  0.1105 -0.5200  0.0855
    5MOL   C179 1707   6.156   3.234   5.761  0.6632 -0.0513  0.5447
    5MOL   H180 1708   5.745   3.428   5.958 -0.0745 -0.0340  0.5632
    5MOL   H181 1709   5.734   3.598   5.996  0.5917  0.2856  1.3963
    5MOL   H182 1710   5.988   3.602   5.991 -2.8332  1.7747 -0.1028
    5MOL   H183 1711   6.178   3.458   6.025  0.5682 -0.0509 -0.3186
    5MOL   H184 1712   6.158   3.495   5.852 -3.3894  0.3247 -0.1278
    5MOL   H185 1713   6.300   3.282   5.895  0.4889 -1.6335  2.7225
    5MOL   H186 1714   6.216   3.092   6.004  1.1804  0.3259 -0.4423
    5MOL   H187 1715   6.164   3.211   6.118  1.9543 -0.6688 -0.0627
    5MOL   H188 1716   6.050   3.146   5.993 -0.4462  0.5073  1.0616
    5MOL   H189 1717   6.172   3.317   5.692 -0.3463  0.3189  0.7321
    5MOL   H190 1718   6.048   3.216   5.752  0.4738  0.8327  0.9757
    5MOL   H191 1719   6.208   3.150   5.716 -0.1359 -1.3857  2.0532
    5MOL   C192 1720   5.919   3.558   5.790 -0.1544 -0.2843  0.8368
    5MOL   C193 1721   5.823   3.672   5.741 -0.3210  0.3488 -0.0555
    5MOL   O194 1722   5.792   3.689   5.603  0.2601 -0.2719  0.1757
    5MOL   C195 1723   5.713   3.592   5.542 -0.1361 -0.6364  0.3282
    5MOL   C196 1724   5.709   3.619   5.393  1.1468 -0.4980  0.0658
    5MOL   C197 1725   5.840   3.619   5.327 -0.1225  0.3091  0.1718
    5MOL   C198 1726   5.637   3.745   5.348 -0.5352 -0.2784 -0.2121
    5MOL   H199 1727   5.894   3.469   5.731  2.0907 -1.0215  0.9793
    5MOL   H200 1728   6.016   3.582   5.748 -1.0442  1.1038 -0.5066
    5MOL   H201 1729   5.726   3.648   5.785  0.8505 -0.5320  2.1316
    5MOL   H202 1730   5.611   3.571   5.576 -0.9990 -0.6127 -2.1888
    5MOL   H203 1731   5.768   3.498   5.549 -0.7629 -0.8663  2.7913
    5MOL   H204 1732   5.652   3.533   5.358  0.1798  0.7402 -1.5498
    5MOL   H205 1733   5.824   3.646   5.223  0.8152  1.7494  0.3862
    5MOL   H206 1734   5.909   3.689   5.374 -0.1561 -0.9251  2.1378
    5MOL   H207 1735   5.886   3.519   5.326 -2.2020 -0.7315  2.6422
    5MOL   H208 1736   5.616   3.736   5.242  3.8425 -0.0340 -1.1898
    5MOL   H209 1737   5.544   3.771   5.398 -0.0469 -1.4529  1.3689
    5MOL   H210 1738   5.698   3.832   5.369 -1.7462  0.8296 -1.2617
    5MOL   C211 1739   5.860   3.810   5.799 -0.3266  0.3218  1.0323
    5MOL   C212 1740   5.760   3.928   5.776  0.3747 -0.6602 -0.5115
    5MOL   O213 1741   5.672   3.912   5.893  0.3108  0.6980 -0.7519
    5MOL   C214 1742   5.544   3.968   5.875  0.1072 -0.0968  0.3230
    5MOL   C215 1743   5.428   3.862   5.887 -0.1278 -0.4038  0.4674
    5MOL   C216 1744   5.413   3.813   6.037 -0.0432 -0.4097  0.3595
    5MOL   C217 1745   5.300   3.917   5.822  0.1051 -0.3241  0.2128
    5MOL   H218 1746   5.948   3.844   5.745 -1.3802  1.1232 -0.1985
    5MOL   H219 1747   5.902   3.803   5.900  0.9383 -0.9100  0.4331
    5MOL   H220 1748   5.708   3.902   5.684 -0.3395 -1.7072  0.1883
    5MOL   H221 1749   5.531   4.025   5.784  1.3105  1.0694  0.8746
    5MOL   H222 1750   5.533   4.038   5.958 -1.3398 -1.8701  1.6779
    5MOL   H223 1751   5.461   3.778   5.826  1.0734 -0.1768  0.7916
    5MOL   H224 1752   5.358   3.891   6.089  0.1609 -1.5101  2.2591
    5MOL   H225 1753   5.370   3.713   6.040  2.4369 -1.5313 -0.1124
    5MOL   H226 1754   5.515   3.802   6.072  0.8076  1.0486 -1.5422
    5MOL   H227 1755   5.262   4.012   5.859 -2.4704 -0.8255 -1.0476
    5MOL   H228 1756   5.217   3.850   5.844  0.6884 -0.4765  2.0127
    5MOL   H229 1757   5.310   3.930   5.714  1.6872  0.8175  0.4770
    5MOL   C230 1758   5.839   4.064   5.784  0.2168 -0.1037  0.0321
    5MOL   C231 1759   5.881   4.132   5.648  0.2989 -0.6310  0.1088
    5MOL   O232 1760   5.967   4.244   5.661  0.7126 -0.0057 -0.2205
    5MOL   C233 1761   5.942   4.337   5.756 -0.2897 -0.1686 -0.5952
    5MOL   C234 1762   6.042   4.449   5.716 -0.1694  0.0289  0.1008
    5MOL   C235 1763   6.186   4.391   5.697 -0.7290  0.2452 -0.1266
    5MOL   C236 1764   6.005   4.523   5.591 -0.5328 -0.5043 -0.1921
    5MOL   H237 1765   5.929   4.063   5.846 -0.3862  2.1835  1.0092
    5MOL   H238 1766   5.770   4.132   5.835  0.2055 -0.2745  0.2435
    5MOL   H239 1767   5.790   4.164   5.597 -0.9118  0.4489  2.8272
    5MOL   H240 1768   5.842   4.381   5.753 -0.4941 -0.4535  1.2115
    5MOL   H241 1769   5.962   4.294   5.855 -1.6910 -1.7549 -0.9779
    5MOL   H242 1770   6.037   4.526   5.793 -0.8386  0.8602 -0.7628
    5MOL   H243 1771   6.251   4.475   5.672  0.7705 -0.9970 -0.4720
    5MOL   H244 1772   6.196   4.321   5.614  4.5262 -0.5581  1.0216
    5MOL   H245 1773   6.221   4.339   5.786  1.1744 -0.7052 -1.3732
    5MOL   H246 1774   6.015   4.460   5.502 -1.3922 -0.3412 -0.4104
    5MOL   H247 1775   5.899   4.550   5.592 -0.3225  0.4336 -1.6441
    5MOL   H248 1776   6.071   4.608   5.579 -0.1323 -0.4050  2.5608
    5MOL   C249 1777   5.955   4.035   5.549 -0.1553 -0.0981  0.0759
    5MOL   C250 1778   6.003   4.098   5.420  0.5676 -0.8848 -0.6938
    5MOL   O251 1779   6.072   4.002   5.348 -0.1701 -0.5928 -0.6733
    5MOL   C252 1780   6.208   4.006   5.372  0.0744 -0.6909 -0.2752
    5MOL   C253 1781   6.285   3.901   5.295 -0.2205 -0.8256  0.2856
    5MOL   C254 1782   6.229   3.761   5.294  0.4275  0.0319  0.2063
    5MOL   C255 1783   6.431   3.892   5.343  0.0205 -0.3113 -0.2265
    5MOL   H256 1784   5.887   3.955   5.520 -1.2289  0.8993 -0.2067
    5MOL   H257 1785   6.044   3.994   5.595 -1.0299 -0.5697  1.3791
    5MOL   H258 1786   6.070   4.183   5.437  1.8220 -1.8029 -1.0353
    5MOL   H259 1787   6.251   4.104   5.350 -0.1820  0.0229  2.2441
    5MOL   H260 1788   6.231   3.996   5.478 -0.5460 -0.8392 -0.1582
    5MOL   H261 1789   6.283   3.930   5.190 -2.6254 -0.8916  0.2805
    5MOL   H262 1790   6.214   3.719   5.393  1.7090  0.9806  0.8202
    5MOL   H263 1791   6.304   3.694   5.251  2.6742  2.2486  0.5538
    5MOL   H264 1792   6.143   3.751   5.228  0.8915  0.7155 -0.5157
    5MOL   H265 1793   6.479   3.986   5.316  0.7622 -0.4224  0.6596
    5MOL   H266 1794   6.447   3.875   5.449  0.1070  2.0608  0.1838
    5MOL   H267 1795   6.483   3.818   5.283  3.2329 -1.0762  3.3125
    5MOL   C268 1796   5.884   4.149   5.329  0.0981 -0.2037 -0.3089
    5MOL   C269 1797   5.926   4.220   5.201 -0.6548  0.0672  0.1878
    5MOL   O270 1798   5.846   4.334   5.171  0.3761  0.1603 -0.0141
    5MOL   C271 1799   5.868   4.447   5.260  0.2399  0.6513  0.8257
    5MOL   C272 1800   5.801   4.571   5.205  0.4081 -0.0805 -0.5661
    5MOL   C273 1801   5.805   4.686   5.306 -0.4176  0.1030  0.4360
    5MOL   C274 1802   5.869   4.610   5.071 -0.2521  0.0402 -0.6140
    5MOL   H275 1803   5.829   4.222   5.389 -1.0414 -0.1158 -1.4360
    5MOL   H276 1804   5.813   4.068   5.315 -0.1956  0.3229 -1.9170
    5MOL   H277 1805   6.030   4.252   5.209 -1.1287  0.9167  3.7241
    5MOL   H278 1806   5.823   4.434   5.359 -0.1649  0.7217  0.6526
    5MOL   H279 1807   5.974   4.466   5.277  0.3603 -0.5815  1.4780
    5MOL   H280 1808   5.697   4.545   5.183 -0.4528 -0.2327  3.4473
    5MOL   H281 1809   5.744   4.765   5.261 -1.5143 -1.1664 -0.3657
    5MOL   H282 1810   5.907   4.723   5.307  0.1028 -1.3220  1.1610
    5MOL   H283 1811   5.764   4.658   5.402 -0.7221 -1.3742 -0.1163
    5MOL   H284 1812   5.854   4.532   4.996 -3.1333  1.5511 -1.6648
    5MOL   H285 1813   5.977   4.622   5.082 -0.5878  0.8156  2.0334
    5MOL   H286 1814   5.824   4.700   5.029  0.4002  0.4085 -0.5240
    5MOL   C287 1815   5.915   4.119   5.078 -0.2722 -0.1008 -0.6689
    5MOL   C288 1816   6.000   4.170   4.965  0.3632  0.0797  0.0740
    5MOL   O289 1817   5.958   4.111   4.838  0.2920  0.3516 -0.2751
    5MOL   C290 1818   5.870   4.197   4.762  0.3501 -0.2275  0.1671
    5MOL   C291 1819   5.788   4.108   4.666  0.7670 -0.2355 -0.0398
    5MOL   C292 1820   5.696   4.006   4.737  0.1696  0.2109  0.1586
    5MOL   C293 1821   5.870   4.028   4.564 -0.3410 -0.0564  0.6775
    5MOL   H294 1822   5.810   4.120   5.050 -0.6994 -0.1621  0.9076
    5MOL   H295 1823   5.936   4.016   5.106 -2.0851 -0.2635  0.1883
    5MOL   H296 1824   5.999   4.279   4.961 -1.5637  0.0587 -0.5161
    5MOL   H297 1825   5.805   4.256   4.827  0.5558  1.6798 -1.3430
    5MOL   H298 1826   5.926   4.273   4.709  0.1450 -1.1359 -1.3740
    5MOL   H299 1827   5.730   4.178   4.606 -0.5444  0.1922  1.6761
    5MOL   H300 1828   5.743   3.933   4.803 -0.8315 -1.0467 -0.4980
    5MOL   H301 1829   5.629   3.956   4.666  0.7186  1.4758 -1.2784
    5MOL   H302 1830   5.638   4.067   4.806  0.9325  2.4789 -1.1425
    5MOL   H303 1831   5.960   3.985   4.609  1.6613  0.8416 -2.3309
    5MOL   H304 1832   5.816   3.942   4.523  1.5484 -1.2511  0.6414
    5MOL   H305 1833   5.911   4.090   4.484  3.1700 -0.2105  2.2467
    5MOL   C306 1834   6.146   4.121   4.977  0.1169 -0.2902 -0.0224
    5MOL   C307 1835   6.238   4.181   4.859 -0.2417  0.0420  0.4561
    5MOL   O308 1836   6.365   4.222   4.925 -0.4786  0.0319  0.7829
    5MOL   C309 1837   6.366   4.355   4.963  0.4096 -0.1520  0.1537
    5MOL   C310 1838   6.499   4.399   5.019 -0.5108  0.7143  0.0766
    5MOL   C311 1839   6.616   4.374   4.917 -0.2574 -0.5653 -0.2369
    5MOL   C312 1840   6.530   4.314   5.150  0.1548 -0.2918  0.6715
    5MOL   H313 1841   6.143   4.012   4.980 -2.7312 -0.3188 -2.0522
    5MOL   H314 1842   6.182   4.159   5.073  1.3684 -0.9763 -0.2102
    5MOL   H315 1843   6.200   4.264   4.800 -0.8166  0.9488  2.0773
    5MOL   H316 1844   6.285   4.366   5.036 -1.6102 -0.3397 -2.0106
    5MOL   H317 1845   6.337   4.428   4.888 -0.8066  2.6044  3.1573
    5MOL   H318 1846   6.492   4.500   5.058  2.0448  0.7711  0.4877
    5MOL   H319 1847   6.616   4.276   4.870 -1.2644 -0.7838  0.2211
    5MOL   H320 1848   6.713   4.396   4.962  0.2332  0.1288 -1.6050
    5MOL   H321 1849   6.607   4.444   4.834  1.0391 -2.5303 -2.0709
    5MOL   H322 1850   6.437   4.314   5.206 -1.2786  3.1461 -1.5443
    5MOL   H323 1851   6.611   4.370   5.197 -0.3241 -0.4630  1.7047
    5MOL   H324 1852   6.557   4.212   5.124  0.9165 -0.3206  1.5320
    5MOL   C325 1853   6.288   4.076   4.754  0.3686  0.5780 -0.1757
    5MOL   C326 1854   6.381   4.141   4.653  0.3856 -1.0587  1.0257
    5MOL   O327 1855   6.450   4.047   4.574  0.1149  0.1633 -0.2922
    5MOL   C328 1856   6.558   3.979   4.632 -0.3022  0.5553  0.5330
    5MOL   C329 1857   6.661   3.952   4.516 -0.0670 -0.1990  0.7175
    5MOL   C330 1858   6.697   4.085   4.449 -0.3547  0.0828 -0.2245
    5MOL   C331 1859   6.792   3.878   4.557 -0.4720 -0.0358 -0.2429
    5MOL   H332 1860   6.205   4.020   4.712  1.0462 -0.5355 -0.0474
    5MOL   H333 1861   6.347   4.004   4.810 -1.4603 -3.2480 -2.9501
    5MOL   H334 1862   6.450   4.212   4.698 -1.8652  1.8735  0.0154
    5MOL   H335 1863   6.600   4.025   4.721  0.2484  1.3350 -0.1342
    5MOL   H336 1864   6.515   3.889   4.678  0.9799 -0.4481 -0.1955
    5MOL   H337 1865   6.622   3.891   4.434  0.1529  0.6887 -0.0614
    5MOL   H338 1866   6.724   4.161   4.523 -0.3869 -1.1739  1.1108
    5MOL   H339 1867   6.772   4.074   4.371  1.4766  0.0945  1.4835
    5MOL   H340 1868   6.610   4.122   4.395 -1.2432  1.1636  1.8934
    5MOL   H341 1869   6.863   3.870   4.475  0.8539  0.9338  0.7937
    5MOL   H342 1870   6.845   3.917   4.643  1.5757 -1.0735 -1.0147
    5MOL   H343 1871   6.763   3.774   4.571  3.7601 -1.3995 -0.8474
    5MOL   C344 1872   6.288   4.215   4.554  0.1377 -0.1669  0.0692
    5MOL   C345 1873   6.366   4.304   4.456  0.4279 -0.2388  0.3104
    5MOL   O346 1874   6.270   4.374   4.380  0.3621 -0.8537  0.1585
    5MOL   C347 1875   6.242   4.324   4.251  0.1299 -0.0619 -0.4277
    5MOL   C348 1876   6.129   4.411   4.200  0.4150 -0.0299 -0.6642
    5MOL   C349 1877   6.000   4.370   4.264  0.0692  0.1023  0.4530
    5MOL   C350 1878   6.127   4.415   4.044 -0.3827 -0.7604 -0.1304
    5MOL   H351 1879   6.203   4.271   4.593 -0.5973 -1.2826  0.0915
    5MOL   H352 1880   6.237   4.133   4.504  0.6909 -0.2037 -0.4355
    5MOL   H353 1881   6.438   4.265   4.384  0.9010  2.4366 -0.7369
    5MOL   H354 1882   6.220   4.218   4.245 -1.8185  0.1870  1.8584
    5MOL   H355 1883   6.335   4.334   4.195  0.7850 -0.5298  0.5687
    5MOL   H356 1884   6.158   4.514   4.223 -1.9569  0.1872  1.6481
    5MOL   H357 1885   6.009   4.378   4.372 -0.9753  2.1108  0.4074
    5MOL   H358 1886   5.989   4.263   4.242  0.3497  0.0414  0.6148
    5MOL   H359 1887   5.913   4.427   4.232  0.3804  0.8126  0.8644
    5MOL   H360 1888   6.042   4.474   4.008  0.2288  1.0034  1.2336
    5MOL   H361 1889   6.224   4.440   4.002 -0.0597 -0.9465  0.5043
    5MOL   H362 1890   6.103   4.313   4.013  0.8400 -1.7881  2.1577
    5MOL   C363 1891   6.434   4.434   4.517 -0.4927 -0.2467  0.2521
    5MOL   C364 1892   6.511   4.514   4.413 -0.2580 -0.5453 -0.1686
    5MOL   O365 1893   6.553   4.631   4.477 -0.5156 -0.2330  0.0908
    5MOL   C366 1894   6.615   4.722   4.388  0.3956 -0.2308  0.4180
    5MOL   C367 1895   6.562   4.866   4.408  0.3673  0.2745  0.1624
    5MOL   C368 1896   6.416   4.889   4.372 -0.3035  0.0139 -0.2354
    5MOL   C369 1897   6.650   4.968   4.339  0.6168 -0.3041 -0.6980
    5MOL   H370 1898   6.353   4.490   4.564 -1.5424 -0.9250 -0.7029
    5MOL   H371 1899   6.506   4.406   4.594  0.1958 -0.3104 -0.4110
    5MOL   H372 1900   6.450   4.555   4.333  0.1638  0.9876  0.2766
    5MOL   H373 1901   6.723   4.730   4.403  0.5282  0.0682 -0.6775
    5MOL   H374 1902   6.593   4.693   4.286 -0.9819 -1.7190  1.1239
    5MOL   H375 1903   6.562   4.874   4.516 -1.3023 -3.4772  0.5361
    5MOL   H376 1904   6.413   4.898   4.264 -0.1515  3.7134 -0.0008
    5MOL   H377 1905   6.370   4.986   4.392  2.4454  1.5851 -1.2349
    5MOL   H378 1906   6.354   4.807   4.409  1.4790 -1.5332 -0.5827
    5MOL   H379 1907   6.670   4.935   4.236  1.2620 -1.9504 -0.0686
    5MOL   H380 1908   6.748   4.966   4.387 -0.2410 -1.4677  1.0524
    5MOL   H381 1909   6.601   5.065   4.334 -0.4379 -0.9158 -2.9544
    5MOL   H382 1910   6.591   4.451   4.373 -0.7570 -0.9281 -0.5648
    6MOL     C1 1911   6.510   0.370   6.151 -0.1549 -0.4791  1.0120
    6MOL     C2 1912   6.459   0.256   6.228  0.3537 -0.0158  0.1840
    6MOL     O3 1913   6.471   0.273   6.367  0.1466 -0.0794 -0.4747
    6MOL     C4 1914   6.596   0.239   6.425 -0.0459 -0.1267  0.0042
    6MOL     C5 1915   6.615   0.089   6.430 -0.3595  0.1556  0.0360
    6MOL     C6 1916   6.507   0.019   6.504 -0.5822 -0.1996 -0.0949
    6MOL     C7 1917   6.752   0.056   6.488  0.2763  0.4026  0.1499
    6MOL     H8 1918   6.469   0.463   6.192  0.6250 -0.2752  1.3261
    6MOL     H9 1919   6.618   0.380   6.150 -0.3348  2.2605 -1.4685
    6MOL    H10 1920   6.518   0.172   6.190  0.6441  0.3353 -0.1440
    6MOL    H11 1921   6.593   0.288   6.523  0.2891  0.3377 -0.2167
    6MOL    H12 1922   6.671   0.286   6.362 -1.3763 -0.0407 -1.5271
    6MOL    H13 1923   6.623   0.050   6.328 -2.9354  3.8892 -1.6829
    6MOL    H14 1924   6.411   0.014   6.453  0.2782  0.7958 -1.8191
    6MOL    H15 1925   6.532   7.737   6.506 -0.4026 -0.2345 -2.5692
    6MOL    H16 1926   6.491   0.053   6.606 -0.2934 -1.4805  0.3952
    6MOL    H17 1927   6.745   0.063   6.597 -0.4374 -0.7783  0.1867
    6MOL    H18 1928   6.788   7.788   6.445  0.0835  0.4214 -0.0554
    6MOL    H19 1929   6.825   0.127   6.449  1.1801  0.0590  1.2209
    6MOL    H20 1930   6.471   0.366   6.049 -2.0910  0.5433  1.6816
    6MOL    C21 1931   6.310   0.224   6.194  0.2376  0.0710  0.6267
    6MOL    C22 1932   6.250   0.086   6.230 -0.4225  0.2036 -0.0072
    6MOL    O23 1933   6.118   0.072   6.170  0.1302 -0.1881  0.5004
    6MOL    C24 1934   6.011   0.119   6.255  0.6435  0.1972 -0.0361
    6MOL    C25 1935   5.873   0.102   6.180  0.3928  0.1932  0.0826
    6MOL    C26 1936   5.847   7.777   6.132 -0.4976 -0.0085 -0.0302
    6MOL    C27 1937   5.752   0.140   6.275  0.0156 -0.0743  0.4370
    6MOL    H28 1938   6.252   0.313   6.220  0.0470  1.0056 -2.7314
    6MOL    H29 1939   6.291   0.234   6.087  0.1581 -1.1779  0.5167
    6MOL    H30 1940   6.253   0.079   6.339 -2.1462 -0.5571  0.0036
    6MOL    H31 1941   6.034   0.224   6.274 -2.7630  1.7727 -3.8878
    6MOL    H32 1942   6.012   0.069   6.352 -0.2551  0.7554  0.2675
    6MOL    H33 1943   5.871   0.183   6.108  1.9300  0.2578  0.0894
    6MOL    H34 1944   5.868   7.761   6.026 -0.0769 -0.6080  0.1418
    6MOL    H35 1945   5.741   7.757   6.149  0.0129 -1.9083  1.1138
    6MOL    H36 1946   5.894   7.698   6.191 -0.6895  0.4378  0.7213
    6MOL    H37 1947   5.661   0.149   6.216 -2.4181  0.4900  4.0615
    6MOL    H38 1948   5.729   0.072   6.357 -0.2054  0.3092  0.6995
    6MOL    H39 1949   5.758   0.242   6.313 -1.8281 -0.3013  1.4118
    6MOL    C40 1950   6.328   7.785   6.165  0.1835  0.2405 -0.1925
    6MOL    C41 1951   6.264   7.640   6.201 -0.3960  0.2963  0.8362
    6MOL    O42 1952   6.301   7.592   6.333 -0.1313 -1.3542  0.3072
    6MOL    C43 1953   6.198   7.620   6.428  0.0425 -0.8581 -0.6957
    6MOL    C44 1954   6.209   7.522   6.548 -1.0881  0.0260 -0.4537
    6MOL    C45 1955   6.119   7.575   6.658 -0.1409 -1.0930 -0.2014
    6MOL    C46 1956   6.172   7.378   6.511 -0.1670  0.1803 -0.7548
    6MOL    H47 1957   6.433   7.773   6.190  0.7205  1.7989 -1.6025
    6MOL    H48 1958   6.330   7.801   6.057  1.9907 -0.4248 -0.2700
    6MOL    H49 1959   6.157   7.659   6.198  0.0227  2.5674 -0.6553
    6MOL    H50 1960   6.095   7.628   6.392 -0.3754 -0.7016  0.5128
    6MOL    H51 1961   6.210   7.723   6.463 -0.4017 -0.8436 -0.5900
    6MOL    H52 1962   6.315   7.517   6.576 -0.7109  0.8360 -1.6947
    6MOL    H53 1963   6.113   7.501   6.738 -0.4842 -0.3914  0.4304
    6MOL    H54 1964   6.154   7.660   6.715 -0.0545 -1.4451  0.2748
    6MOL    H55 1965   6.015   7.597   6.633  0.1874  0.8612  0.0658
    6MOL    H56 1966   6.177   7.312   6.597  2.0002  0.6989 -0.4719
    6MOL    H57 1967   6.231   7.345   6.425 -1.6960 -3.0217 -0.6530
    6MOL    H58 1968   6.070   7.370   6.471 -1.4454  0.4046  2.3534
    6MOL    C59 1969   6.302   7.535   6.102  0.0584 -0.5736 -0.5415
    6MOL    C60 1970   6.209   7.416   6.099 -0.1114  0.3214  0.1690
    6MOL    O61 1971   6.276   7.294   6.041 -0.0623  0.3595 -0.3355
    6MOL    C62 1972   6.364   7.231   6.137 -0.5650 -0.2463  0.0413
    6MOL    C63 1973   6.492   7.175   6.066  0.0781  0.2266 -0.1045
    6MOL    C64 1974   6.475   7.089   5.948 -0.6542  0.6610  1.0139
    6MOL    C65 1975   6.602   7.285   6.044  0.1694 -0.2668  0.0485
    6MOL    H66 1976   6.406   7.504   6.113  0.1838 -0.3239 -1.0104
    6MOL    H67 1977   6.298   7.583   6.004 -2.2497 -1.8259 -1.0930
    6MOL    H68 1978   6.181   7.382   6.198 -0.6515  2.5362  0.8005
    6MOL    H69 1979   6.389   7.309   6.209  1.9191 -1.1392  0.1971
    6MOL    H70 1980   6.317   7.147   6.187  2.0595 -1.5505  0.3834
    6MOL    H71 1981   6.533   7.109   6.143 -0.3433 -0.9404 -0.8750
    6MOL    H72 1982   6.428   7.002   5.993 -3.1644  1.4082 -0.0632
    6MOL    H73 1983   6.570   7.048   5.914 -0.8123 -0.8510  2.3656
    6MOL    H74 1984   6.408   7.110   5.865  1.5427 -1.4184 -1.3777
    6MOL    H75 1985   6.606   7.354   6.129  1.7751 -2.3582  1.7055
    6MOL    H76 1986   6.702   7.244   6.031 -1.4039 -3.5763 -2.1785
    6MOL    H77 1987   6.581   7.352   5.960 -0.0923  0.5860  0.7791
    6MOL    C78 1988   6.084   7.439   6.009 -0.3398 -0.0588 -0.2918
    6MOL    C79 1989   5.978   7.332   6.019  0.6319 -0.5328  0.1476
    6MOL    O80 1990   5.868   7.385   6.093 -0.5780  0.0438  0.1543
    6MOL    C81 1991   5.898   7.396   6.232  0.7136 -0.1693  0.0431
    6MOL    C82 1992   5.769   7.442   6.297  0.8662 -0.9484 -0.6027
    6MOL    C83 1993   5.788   7.520   6.429  0.3126  0.2154 -0.5482
    6MOL    C84 1994   5.673   7.326   6.303  0.3733  0.5321 -0.2149
    6MOL    H85 1995   6.125   7.468   5.912  3.2289  1.4712  1.5816
    6MOL    H86 1996   6.048   7.539   6.034 -0.0079  0.3287 -1.3427
    6MOL    H87 1997   6.013   7.237   6.061  2.4835  0.5603  1.1496
    6MOL    H88 1998   5.940   7.302   6.266 -1.2409 -1.5535 -1.2516
    6MOL    H89 1999   5.975   7.473   6.242  0.9228 -0.3870  0.0994
    6MOL    H90 2000   5.729   7.512   6.224 -1.2519  1.6091  2.8474
    6MOL    H91 2001   5.697   7.544   6.484  0.2717 -2.5498  0.6729
    6MOL    H92 2002   5.858   7.601   6.408  2.0723 -0.8604  1.0241
    6MOL    H93 2003   5.829   7.451   6.503  0.1147  1.0385  0.3301
    6MOL    H94 2004   5.575   7.355   6.338 -0.0595  1.3654 -2.0307
    6MOL    H95 2005   5.708   7.250   6.373  1.1253  1.1888  0.1368
    6MOL    H96 2006   5.668   7.278   6.205 -0.5841  1.1653 -0.4834
    6MOL    C97 2007   5.912   7.304   5.883  0.1162 -0.5323  0.1241
    6MOL    C98 2008   5.813   7.177   5.878  0.6867 -0.5724 -0.0961
    6MOL    O99 2009   5.887   7.058   5.854  0.0834  0.2064 -0.4840
    6MOL   C100 2010   5.842   6.945   5.929 -0.0340 -0.3005  0.4430
    6MOL   C101 2011   5.945   6.828   5.903  0.4151 -0.2927 -0.2178
    6MOL   C102 2012   6.086   6.847   5.952  0.0470  0.0923  0.1546
    6MOL   C103 2013   5.877   6.694   5.940 -0.4245 -1.0088  0.1984
    6MOL   H104 2014   5.992   7.289   5.811  0.3994 -0.1339  0.3510
    6MOL   H105 2015   5.859   7.396   5.857 -0.7373 -1.1710 -0.4463
    6MOL   H106 2016   5.760   7.169   5.973  2.2845 -0.3899  0.8258
    6MOL   H107 2017   5.741   6.922   5.895  0.4745 -1.1806 -0.4896
    6MOL   H108 2018   5.837   6.964   6.036  0.9318  0.2240  0.4080
    6MOL   H109 2019   5.961   6.816   5.796  0.8239 -1.3397 -0.0448
    6MOL   H110 2020   6.096   6.948   5.991  0.1597  0.3436 -0.5303
    6MOL   H111 2021   6.122   6.787   6.036  0.5207 -2.2064 -1.6517
    6MOL   H112 2022   6.161   6.850   5.874 -2.6116  2.0058 -2.4281
    6MOL   H113 2023   5.794   6.673   5.873 -0.3617 -2.3725  0.5240
    6MOL   H114 2024   5.942   6.606   5.947  0.9641  0.0663  1.1217
    6MOL   H115 2025   5.838   6.709   6.041  0.4731  1.4687  0.2119
    6MOL   C116 2026   5.721   7.197   5.757  1.2713  0.5558 -0.7867
    6MOL   C117 2027   5.579   7.135   5.781  0.1661 -0.0914  0.5660
    6MOL   O118 2028   5.485   7.234   5.812  0.0584  0.6061 -0.3629
    6MOL   C119 2029   5.512   7.294   5.941 -0.3948  0.4684 -0.1022
    6MOL   C120 2030   5.381   7.370   5.980  0.1968  0.0525 -0.2318
    6MOL   C121 2031   5.264   7.269   6.017  0.4391  0.0323  0.1940
    6MOL   C122 2032   5.395   7.488   6.085  0.3191  0.1032  0.3037
    6MOL   H123 2033   5.709   7.304   5.740 -1.4289  0.1214 -1.8215
    6MOL   H124 2034   5.757   7.142   5.670  0.4829 -1.8690  0.3706
    6MOL   H125 2035   5.584   7.065   5.864 -1.2919 -2.3243 -1.1764
    6MOL   H126 2036   5.595   7.364   5.936 -0.2776  0.1833 -2.5473
    6MOL   H127 2037   5.524   7.214   6.014 -0.2877 -0.9989 -1.7185
    6MOL   H128 2038   5.349   7.399   5.880  1.3606 -1.1923 -0.9886
    6MOL   H129 2039   5.165   7.307   6.042 -0.6404 -1.3406 -1.8196
    6MOL   H130 2040   5.291   7.213   6.106  1.0273  2.0459  1.2973
    6MOL   H131 2041   5.239   7.201   5.935 -0.9592 -2.6491  2.7731
    6MOL   H132 2042   5.460   7.560   6.037  2.7639 -0.6775  2.3123
    6MOL   H133 2043   5.300   7.539   6.101 -0.6407 -2.0764  1.9199
    6MOL   H134 2044   5.448   7.459   6.176  0.0592 -0.0889  0.3969
    6MOL   C135 2045   5.532   7.055   5.655 -0.0612  0.4914  0.4093
    6MOL   C136 2046   5.384   7.008   5.663 -0.4208  0.4231 -0.1410
    6MOL   O137 2047   5.336   6.954   5.542  0.3314 -0.3867 -0.5600
    6MOL   C138 2048   5.251   7.038   5.464  0.7497  0.8145 -0.8986
    6MOL   C139 2049   5.224   6.973   5.325 -0.4053 -0.0384 -0.3315
    6MOL   C140 2050   5.148   6.845   5.344 -0.0478 -0.3241  0.2224
    6MOL   C141 2051   5.137   7.065   5.239  0.2146 -0.6008  0.4420
    6MOL   H142 2052   5.542   7.122   5.569 -1.5207  0.2958  0.0708
    6MOL   H143 2053   5.590   6.964   5.642 -1.0965 -0.1714  0.3256
    6MOL   H144 2054   5.322   7.090   5.697  1.1525  1.1640  1.0040
    6MOL   H145 2055   5.308   7.132   5.471  0.3945  0.8285  4.0644
    6MOL   H146 2056   5.156   7.063   5.510  0.8972  2.5376 -1.4979
    6MOL   H147 2057   5.314   6.946   5.270  0.7828  1.8793  0.6274
    6MOL   H148 2058   5.206   6.772   5.400  1.2233  0.5155  0.0178
    6MOL   H149 2059   5.128   6.798   5.248  1.3813 -0.2273 -0.1390
    6MOL   H150 2060   5.052   6.861   5.393 -0.5126 -1.3368 -0.3388
    6MOL   H151 2061   5.041   7.092   5.283  1.0299 -0.1665  1.9750
    6MOL   H152 2062   5.188   7.155   5.205  0.2306 -0.9889 -0.5899
    6MOL   H153 2063   5.102   7.009   5.152 -1.8506  0.1326  0.7704
    6MOL   C154 2064   5.375   6.897   5.770  0.2934 -0.0606 -0.5125
    6MOL   C155 2065   5.231   6.820   5.788  1.0809  0.2948 -0.0067
    6MOL   O156 2066   5.235   6.711   5.881 -0.0045  0.1131  0.1478
    6MOL   C157 2067   5.290   6.737   6.014  0.0901 -0.0998  0.0322
    6MOL   C158 2068   5.280   6.612   6.096  0.2488 -0.5216 -0.0721
    6MOL   C159 2069   5.139   6.557   6.101 -0.0538  0.4152 -0.6528
    6MOL   C160 2070   5.368   6.501   6.040  0.1549  0.1070  0.2170
    6MOL   H161 2071   5.397   6.931   5.871 -0.0678 -1.4071  0.0395
    6MOL   H162 2072   5.458   6.827   5.767  0.8427  0.5921 -0.6182
    6MOL   H163 2073   5.207   6.761   5.700  1.8207  0.1340 -0.1047
    6MOL   H164 2074   5.258   6.833   6.054 -0.7809 -1.5722  3.0350
    6MOL   H165 2075   5.396   6.761   6.003  0.2175  0.2432  1.9108
    6MOL   H166 2076   5.306   6.633   6.200 -0.9602  0.5188  0.0337
    6MOL   H167 2077   5.114   6.503   6.009  0.8627  0.1330 -0.7402
    6MOL   H168 2078   5.068   6.639   6.108  1.2181  1.6180 -1.7338
    6MOL   H169 2079   5.138   6.488   6.185 -1.1154  0.7837 -0.3556
    6MOL   H170 2080   5.347   6.405   6.088 -0.3111  0.1771  0.1518
    6MOL   H171 2081   5.347   6.482   5.935 -1.4556 -0.3336  0.6082
    6MOL   H172 2082   5.473   6.525   6.057  0.1778 -0.1518  0.4535
    6MOL   C173 2083   5.107   6.907   5.827  0.4273 -1.0113  0.2108
    6MOL   C174 2084   4.975   6.825   5.836 -0.0765  0.2474 -0.5777
    6MOL   O175 2085   4.896   6.918   5.917  0.3057 -0.6706 -0.1375
    6MOL   C176 2086   4.863   6.876   6.057 -0.2648  0.2008  0.3783
    6MOL   C177 2087   4.833   6.996   6.148 -0.2877  0.2912 -0.0333
    6MOL   C178 2088   4.962   7.087   6.147 -0.3233  0.4307 -0.3058
    6MOL   C179 2089   4.708   7.079   6.104 -0.0647  0.1605 -0.8472
    6MOL   H180 2090   5.129   6.957   5.921  1.9558  0.2856 -0.8025
    6MOL   H181 2091   5.094   6.983   5.749 -0.0570  0.6514  1.8797
    6MOL   H182 2092   4.979   6.729   5.886 -0.9427  0.9247  0.8256
    6MOL   H183 2093   4.945   6.819   6.101  1.0258  0.2823 -1.8327
    6MOL   H184 2094   4.772   6.816   6.048  0.3633 -1.1743  2.5634
    6MOL   H185 2095   4.815   6.957   6.248 -2.2759  0.4831 -0.2966
    6MOL   H186 2096   5.047   7.020   6.162 -3.0647 -3.4302 -1.1220
    6MOL   H187 2097   4.976   7.139   6.052 -1.1571 -2.1598 -1.9069
    6MOL   H188 2098   4.963   7.159   6.229  1.9390  0.1504 -0.0697
    6MOL   H189 2099   4.722   7.119   6.004 -0.5696  0.7889 -0.6614
    6MOL   H190 2100   4.701   7.166   6.169  0.7609 -1.6327  1.7810
    6MOL   H191 2101   4.617   7.019   6.106  0.7611 -1.1114 -0.5516
    6MOL   C192 2102   4.905   6.817   5.698 -0.3512 -0.7709  0.5629
    6MOL   C193 2103   4.760   6.761   5.715 -0.0929 -0.6791  0.3372
    6MOL   O194 2104   4.779   6.625   5.749 -0.0883  0.6950  0.1853
    6MOL   C195 2105   4.668   6.553   5.807 -0.5265 -0.0519  0.4133
    6MOL   C196 2106   4.720   6.425   5.860  0.0359  0.2884 -0.4113
    6MOL   C197 2107   4.614   6.321   5.874  0.0437  0.1446 -0.1511
    6MOL   C198 2108   4.785   6.444   5.993  0.3569 -0.4779 -0.8013
    6MOL   H199 2109   4.969   6.754   5.637 -0.3729 -0.9810  0.7591
    6MOL   H200 2110   4.894   6.915   5.651 -0.4122  0.4682  3.1157
    6MOL   H201 2111   4.709   6.810   5.798 -1.5024  2.5457 -2.3039
    6MOL   H202 2112   4.593   6.543   5.729  0.2502  0.8580 -0.4669
    6MOL   H203 2113   4.612   6.601   5.886  1.0184  0.3535  1.2894
    6MOL   H204 2114   4.792   6.387   5.788 -1.2184 -0.8908 -1.0800
    6MOL   H205 2115   4.557   6.296   5.784 -0.0004 -2.2571  0.5163
    6MOL   H206 2116   4.664   6.228   5.900  1.4780  0.2121 -2.5172
    6MOL   H207 2117   4.543   6.348   5.952 -0.4873 -0.2859 -0.4836
    6MOL   H208 2118   4.726   6.506   6.060 -0.7923 -0.3605 -1.9067
    6MOL   H209 2119   4.830   6.356   6.039  1.9403  0.2036 -1.0230
    6MOL   H210 2120   4.870   6.503   5.960 -0.2013  0.6685 -0.2104
    6MOL   C211 2121   4.681   6.759   5.577 -0.5381  0.1446  0.2205
    6MOL   C212 2122   4.587   6.883   5.565 -0.1451  0.7582  0.2873
    6MOL   O213 2123   4.662   6.973   5.486 -0.1114  0.3025 -0.1806
    6MOL   C214 2124   4.631   7.111   5.500  0.7297  0.7916  0.1913
    6MOL   C215 2125   4.731   7.195   5.420  0.5060 -0.3401 -0.1255
    6MOL   C216 2126   4.875   7.210   5.486 -0.2229 -0.5018  0.1127
    6MOL   C217 2127   4.739   7.167   5.264 -0.0206 -0.0180 -0.1728
    6MOL   H218 2128   4.640   6.660   5.558  1.0220 -0.7785  1.5230
    6MOL   H219 2129   4.756   6.774   5.499 -2.2024  1.0976 -1.2434
    6MOL   H220 2130   4.548   6.923   5.659 -0.8015 -0.7140  0.6570
    6MOL   H221 2131   4.641   7.134   5.606  0.1357  1.4438  0.1068
    6MOL   H222 2132   4.526   7.133   5.480  1.0121  0.4084 -1.8567
    6MOL   H223 2133   4.677   7.289   5.423  0.2714 -0.4542 -0.7235
    6MOL   H224 2134   4.943   7.275   5.431  0.1662 -2.1240 -1.3730
    6MOL   H225 2135   4.885   7.242   5.589  2.1059  1.9252 -0.7999
    6MOL   H226 2136   4.919   7.111   5.481 -0.2724 -0.6210  1.9010
    6MOL   H227 2137   4.637   7.147   5.231  0.0847  0.2784 -0.6748
    6MOL   H228 2138   4.806   7.082   5.251 -1.0736 -0.8965  0.0048
    6MOL   H229 2139   4.774   7.254   5.210  0.0661  0.8409  1.2607
    6MOL   C230 2140   4.458   6.846   5.483 -0.1185 -0.3898  0.0903
    6MOL   C231 2141   4.344   6.760   5.546 -0.6512 -0.4351 -0.8003
    6MOL   O232 2142   4.295   6.821   5.662  0.3610  0.7494  0.2559
    6MOL   C233 2143   4.334   6.748   5.775 -1.0354 -0.3595 -0.7951
    6MOL   C234 2144   4.251   6.804   5.889  0.0259  0.9783  0.1924
    6MOL   C235 2145   4.107   6.779   5.866 -0.6918 -0.2669 -0.1278
    6MOL   C236 2146   4.306   6.769   6.025  1.1424 -0.3104 -0.0995
    6MOL   H237 2147   4.488   6.785   5.398  2.6056 -0.9542  1.3905
    6MOL   H238 2148   4.404   6.934   5.448  1.1029  0.3904  0.1108
    6MOL   H239 2149   4.386   6.660   5.554 -2.6601 -1.2340  0.0413
    6MOL   H240 2150   4.305   6.643   5.773 -0.2268 -0.6529  1.1244
    6MOL   H241 2151   4.440   6.753   5.801 -1.4409  1.4251  0.5726
    6MOL   H242 2152   4.262   6.912   5.884  1.9237  0.8875  1.6302
    6MOL   H243 2153   4.054   6.819   5.952 -1.5221 -0.0916 -0.7164
    6MOL   H244 2154   4.068   6.677   5.871 -0.7062 -0.1451  3.1862
    6MOL   H245 2155   4.079   6.847   5.786  1.1226 -1.0322 -1.4524
    6MOL   H246 2156   4.275   6.670   6.059 -1.2498  0.4491  0.0773
    6MOL   H247 2157   4.414   6.779   6.033  1.0610  0.8214 -0.3105
    6MOL   H248 2158   4.260   6.839   6.095  0.0544 -1.1677  0.0625
    6MOL   C249 2159   4.224   6.745   5.450 -0.6805  0.0210  0.1379
    6MOL   C250 2160   4.119   6.637   5.489  0.1489  0.4313  0.4963
    6MOL   O251 2161   4.002   6.646   5.397 -0.7309 -0.1600  0.6184
    6MOL   C252 2162   3.885   6.691   5.453 -0.3139 -0.5800 -0.3545
    6MOL   C253 2163   3.757   6.679   5.357  0.1276  1.2560  0.8734
    6MOL   C254 2164   3.726   6.533   5.330  0.0471 -0.0152 -0.5502
    6MOL   C255 2165   3.777   6.762   5.232  0.4012  0.2394  0.0331
    6MOL   H256 2166   4.255   6.732   5.347 -1.6040 -3.2563  0.2282
    6MOL   H257 2167   4.177   6.842   5.434  1.9480  1.0990 -1.3661
    6MOL   H258 2168   4.084   6.648   5.591  0.0991 -1.7244  0.7434
    6MOL   H259 2169   3.865   6.628   5.540  1.0395 -0.1908  0.2395
    6MOL   H260 2170   3.897   6.789   5.498 -1.8920 -1.1928  1.5048
    6MOL   H261 2171   3.671   6.721   5.409 -0.2619  1.4816  0.0516
    6MOL   H262 2172   3.652   6.521   5.251 -0.0375 -1.4959 -0.2713
    6MOL   H263 2173   3.690   6.484   5.421  0.5440  1.4388  0.4433
    6MOL   H264 2174   3.817   6.479   5.305  1.9531  1.8224  2.1773
    6MOL   H265 2175   3.856   6.714   5.174 -0.1016 -1.0123  0.3609
    6MOL   H266 2176   3.688   6.760   5.170  1.4896  1.6789 -1.6127
    6MOL   H267 2177   3.795   6.869   5.235  0.2107  0.3267 -1.7626
    6MOL   C268 2178   4.182   6.494   5.480 -0.4917 -0.3798 -0.5612
    6MOL   C269 2179   4.079   6.376   5.477  0.0664  0.2955 -0.1319
    6MOL   O270 2180   4.027   6.381   5.609  0.0440 -0.2964  0.1738
    6MOL   C271 2181   3.907   6.303   5.629 -0.1249 -0.5318  0.5205
    6MOL   C272 2182   3.847   6.335   5.768  0.6599 -0.5379  1.0591
    6MOL   C273 2183   3.934   6.278   5.883 -0.1397 -0.2026 -0.1025
    6MOL   C274 2184   3.806   6.483   5.789  0.2033 -0.4292  0.0375
    6MOL   H275 2185   4.261   6.497   5.555  1.3023  3.0312 -2.4549
    6MOL   H276 2186   4.248   6.489   5.393  1.0052 -2.4891  0.6536
    6MOL   H277 2187   3.997   6.389   5.406 -0.5267 -2.2020  0.0397
    6MOL   H278 2188   3.835   6.325   5.550  2.1988 -0.8217 -1.7324
    6MOL   H279 2189   3.913   6.194   5.630 -0.7144 -0.5856 -0.9351
    6MOL   H280 2190   3.755   6.277   5.769  1.3885 -1.7667 -0.7262
    6MOL   H281 2191   4.019   6.345   5.896 -0.1540 -0.0771 -0.6028
    6MOL   H282 2192   3.959   6.173   5.872 -0.9565 -0.4148  0.0419
    6MOL   H283 2193   3.876   6.283   5.974  0.6933 -0.5431  0.4507
    6MOL   H284 2194   3.744   6.506   5.876  0.6206  0.3016  0.1490
    6MOL   H285 2195   3.755   6.517   5.699  0.5701 -0.7619 -0.2933
    6MOL   H286 2196   3.894   6.547   5.793 -1.1374  1.4823 -0.3614
    6MOL   C287 2197   4.154   6.237   5.460 -0.5116  0.0640 -0.5401
    6MOL   C288 2198   4.218   6.209   5.325 -0.3886  0.2525 -0.6833
    6MOL   O289 2199   4.113   6.196   5.228 -0.5154 -0.5625 -0.3732
    6MOL   C290 2200   4.142   6.228   5.093 -0.1408 -0.1804 -0.3062
    6MOL   C291 2201   4.149   6.380   5.070 -0.5242  0.4442  0.5058
    6MOL   C292 2202   4.008   6.432   5.058  0.2279 -0.3512 -0.1671
    6MOL   C293 2203   4.236   6.403   4.939 -0.3091  0.2182 -0.4804
    6MOL   H294 2204   4.089   6.150   5.471 -0.6413  0.1455 -0.6593
    6MOL   H295 2205   4.227   6.238   5.541 -0.1054  0.8643 -0.9083
    6MOL   H296 2206   4.287   6.290   5.304 -1.4315  2.2316  3.0720
    6MOL   H297 2207   4.233   6.172   5.070 -0.1939 -0.3672 -0.0596
    6MOL   H298 2208   4.056   6.197   5.033  0.7295 -0.8246 -1.2460
    6MOL   H299 2209   4.207   6.431   5.147  0.4905  2.8851 -1.8253
    6MOL   H300 2210   3.972   6.431   4.955 -1.4345  3.2813  0.2956
    6MOL   H301 2211   3.997   6.538   5.077  1.1352 -0.2170 -0.3742
    6MOL   H302 2212   3.933   6.397   5.128 -2.3832  3.2821 -0.9794
    6MOL   H303 2213   4.341   6.383   4.963 -0.2524 -0.3278 -1.1638
    6MOL   H304 2214   4.214   6.348   4.848  0.8092  0.3709 -0.8480
    6MOL   H305 2215   4.240   6.508   4.909 -2.6416  0.3573 -0.3625
    6MOL   C306 2216   4.297   6.069   5.331 -0.2336 -0.6566  0.1590
    6MOL   C307 2217   4.417   6.065   5.434  0.3561 -0.2962  0.0353
    6MOL   O308 2218   4.383   5.995   5.550 -0.1082  0.0799 -0.5191
    6MOL   C309 2219   4.440   6.032   5.675  0.1740  0.0493  0.5453
    6MOL   C310 2220   4.342   5.985   5.779 -0.6904  0.2495  0.5048
    6MOL   C311 2221   4.202   6.034   5.735  0.1375  0.2485 -0.1530
    6MOL   C312 2222   4.384   6.037   5.918 -0.1525  0.2179  0.1808
    6MOL   H313 2223   4.332   6.056   5.229  0.8130 -1.6951  0.6445
    6MOL   H314 2224   4.232   5.981   5.341 -1.0027  0.0239  1.2751
    6MOL   H315 2225   4.429   6.172   5.449  0.6875 -0.4139  0.6200
    6MOL   H316 2226   4.448   6.139   5.696  0.8201  0.3850 -1.3734
    6MOL   H317 2227   4.545   6.004   5.691 -0.2486 -0.8074  1.9978
    6MOL   H318 2228   4.349   5.876   5.775  1.5641  0.4117 -1.3384
    6MOL   H319 2229   4.189   6.141   5.722 -1.0285  0.0608 -0.6476
    6MOL   H320 2230   4.135   6.018   5.820  0.5203  0.1507  0.1323
    6MOL   H321 2231   4.161   5.982   5.648 -4.2063  0.3586  1.7076
    6MOL   H322 2232   4.378   6.146   5.906 -0.1449  0.1189 -0.7885
    6MOL   H323 2233   4.486   6.017   5.950  0.1571 -0.8224 -1.3753
    6MOL   H324 2234   4.314   5.996   5.991  0.6030  0.1162  0.8537
    6MOL   C325 2235   4.545   5.991   5.381 -0.0601  0.3069 -0.4244
    6MOL   C326 2236   4.650   6.088   5.319 -0.3015  0.1761 -0.4515
    6MOL   O327 2237   4.612   6.110   5.184  0.0704  0.2793 -0.1571
    6MOL   C328 2238   4.688   6.048   5.088  0.2411  0.6356 -0.1149
    6MOL   C329 2239   4.628   6.052   4.953  0.3614  0.0567 -0.7184
    6MOL   C330 2240   4.542   5.933   4.914 -0.0752  0.4688  0.2843
    6MOL   C331 2241   4.561   6.186   4.919  0.0389 -0.1627  0.4130
    6MOL   H332 2242   4.512   5.911   5.315 -2.5604  0.3640  0.6854
    6MOL   H333 2243   4.599   5.947   5.464 -0.3099  0.2316 -0.3011
    6MOL   H334 2244   4.745   6.033   5.329 -0.5398 -0.3712 -1.1615
    6MOL   H335 2245   4.788   6.089   5.098 -0.3942  2.1579  0.0115
    6MOL   H336 2246   4.701   5.941   5.109  0.6642  0.5442 -0.8088
    6MOL   H337 2247   4.721   6.046   4.897 -0.4303 -0.6395 -1.9981
    6MOL   H338 2248   4.582   5.832   4.927 -2.1190 -0.3480  0.5010
    6MOL   H339 2249   4.456   5.939   4.982 -0.6923 -1.2754 -0.3103
    6MOL   H340 2250   4.504   5.944   4.813 -3.1012  0.8910  1.4041
    6MOL   H341 2251   4.628   6.270   4.941 -0.0877  0.3512 -1.0830
    6MOL   H342 2252   4.541   6.203   4.813  1.0697  2.5339  0.5943
    6MOL   H343 2253   4.462   6.202   4.961 -0.4209 -0.6234 -0.5020
    6MOL   C344 2254   4.664   6.229   5.388  1.0369 -0.4534  0.1026
    6MOL   C345 2255   4.780   6.316   5.345  0.4728  0.2566 -0.2028
    6MOL   O346 2256   4.747   6.443   5.386  0.4101  0.4138 -0.1020
    6MOL   C347 2257   4.780   6.546   5.291  0.1230 -0.0663  0.7644
    6MOL   C348 2258   4.653   6.602   5.212  0.0937 -0.2975  0.1170
    6MOL   C349 2259   4.567   6.496   5.135  0.7337 -0.2569  0.2017
    6MOL   C350 2260   4.701   6.704   5.108 -1.0437  0.3139  0.1350
    6MOL   H351 2261   4.658   6.212   5.496 -0.3521  0.6451  0.2160
    6MOL   H352 2262   4.574   6.288   5.369  0.6033 -1.3825 -0.7324
    6MOL   H353 2263   4.776   6.313   5.236 -1.0394 -2.0889 -0.1171
    6MOL   H354 2264   4.858   6.511   5.223 -2.7826 -2.6366 -1.3865
    6MOL   H355 2265   4.828   6.627   5.347  0.2041 -0.6885  1.6034
    6MOL   H356 2266   4.579   6.642   5.282 -1.8099 -2.6487 -0.4376
    6MOL   H357 2267   4.605   6.473   5.035 -0.0577  0.5905 -0.3051
    6MOL   H358 2268   4.462   6.526   5.129  0.4519 -0.3741  3.6229
    6MOL   H359 2269   4.570   6.397   5.179 -1.3467 -0.0504  0.8904
    6MOL   H360 2270   4.805   6.682   5.082 -1.2147  0.2411 -0.5040
    6MOL   H361 2271   4.646   6.698   5.014  0.0679  2.4805 -0.6975
    6MOL   H362 2272   4.697   6.809   5.135 -1.3830  0.3033  0.1285
    6MOL   C363 2273   4.914   6.272   5.407  0.2481  0.2357 -0.8441
    6MOL   C364 2274   5.038   6.302   5.331 -0.6912 -0.0282  0.7317
    6MOL   O365 2275   5.018   6.243   5.203  0.4221  0.0952 -0.0783
    6MOL   C366 2276   5.105   6.290   5.103 -0.0957 -0.0915 -0.4938
    6MOL   C367 2277   5.081   6.217   4.972  0.7384 -0.1024 -0.6707
    6MOL   C368 2278   5.196   6.242   4.879  0.3435  0.2353 -0.2108
    6MOL   C369 2279   4.947   6.267   4.914  0.0887  0.0329  0.3180
    6MOL   H370 2280   4.920   6.318   5.506  0.8787 -1.1170 -0.2397
    6MOL   H371 2281   4.918   6.165   5.427  1.7316  0.5136  0.4877
    6MOL   H372 2282   5.127   6.254   5.371  1.1281  0.9823 -1.9872
    6MOL   H373 2283   5.088   6.397   5.092 -2.8464 -0.1750  2.0681
    6MOL   H374 2284   5.205   6.270   5.141 -1.2459 -3.2607  1.0625
    6MOL   H375 2285   5.070   6.110   4.989 -0.9859 -0.0297 -1.2199
    6MOL   H376 2286   5.186   6.345   4.846 -1.4024 -0.2677 -1.3492
    6MOL   H377 2287   5.190   6.172   4.795 -2.7047  0.2717 -0.0880
    6MOL   H378 2288   5.295   6.222   4.921 -0.4317 -0.3216  1.3934
    6MOL   H379 2289   4.939   6.216   4.818 -2.0096  0.5533  0.1923
    6MOL   H380 2290   4.956   6.373   4.886 -0.0457  0.2866  1.2232
    6MOL   H381 2291   4.860   6.265   4.979 -0.2834  1.9838 -0.0697
    6MOL   H382 2292   5.051   6.410   5.317 -0.8691 -0.0155  0.6568
    7MOL     C1 2293   1.173   2.263   5.164  0.3031 -0.3671 -0.5264
    7MOL     C2 2294   1.293   2.163   5.146  0.6122  0.8734  0.0853
    7MOL     O3 2295   1.377   2.142   5.256  0.1460  0.4781  0.1406
    7MOL     C4 2296   1.439   2.267   5.307 -0.5599 -0.5161 -0.6620
    7MOL     C5 2297   1.544   2.331   5.210 -0.4411 -0.6847 -0.7725
    7MOL     C6 2298   1.666   2.235   5.194  0.3217 -0.4026 -0.1898
    7MOL     C7 2299   1.573   2.475   5.254  0.2904 -1.0163  0.1093
    7MOL     H8 2300   1.207   2.366   5.157 -0.0196 -0.2233 -0.0168
    7MOL     H9 2301   1.091   2.250   5.093 -0.2657  0.6782 -0.0604
    7MOL    H10 2302   1.340   2.200   5.055  0.3888 -2.3843 -1.4240
    7MOL    H11 2303   1.481   2.238   5.403 -0.3915 -1.5160 -1.0302
    7MOL    H12 2304   1.364   2.338   5.341  0.7587  0.4204  0.3624
    7MOL    H13 2305   1.502   2.339   5.109  1.8146 -0.3393 -1.7012
    7MOL    H14 2306   1.734   2.282   5.123  0.1410 -0.0115 -0.1067
    7MOL    H15 2307   1.725   2.220   5.285 -0.1804 -1.5162 -0.0405
    7MOL    H16 2308   1.649   2.134   5.158 -2.1026  0.0747 -0.4384
    7MOL    H17 2309   1.500   2.544   5.210 -2.5819 -2.6092  2.1748
    7MOL    H18 2310   1.574   2.496   5.361 -0.2237 -0.6014  0.0355
    7MOL    H19 2311   1.668   2.509   5.214  0.1750 -1.2276 -0.3489
    7MOL    H20 2312   1.135   2.251   5.266  1.0615  0.9202 -0.0870
    7MOL    C21 2313   1.234   2.023   5.108  0.1951 -0.2522 -0.0938
    7MOL    C22 2314   1.338   1.914   5.079 -0.2843 -0.6454  0.2894
    7MOL    O23 2315   1.271   1.790   5.086  0.2472  0.2224 -0.0370
    7MOL    C24 2316   1.309   1.733   5.210 -0.7579  0.0522  0.1992
    7MOL    C25 2317   1.191   1.623   5.222  0.3916  0.7011 -0.3539
    7MOL    C26 2318   1.223   1.511   5.325 -0.5236 -0.3110  0.2869
    7MOL    C27 2319   1.046   1.676   5.254  0.0870  0.7705 -0.0003
    7MOL    H28 2320   1.181   1.985   5.195 -0.1922 -0.5794 -0.4653
    7MOL    H29 2321   1.152   2.028   5.035 -0.6373  1.3544  0.9307
    7MOL    H30 2322   1.430   1.905   5.137 -1.5359 -1.2989  2.1854
    7MOL    H31 2323   1.303   1.795   5.299 -2.2683  0.3895 -0.1256
    7MOL    H32 2324   1.402   1.677   5.201  0.3726  2.3032 -2.6418
    7MOL    H33 2325   1.189   1.571   5.126  0.5452  1.4223 -0.7605
    7MOL    H34 2326   1.145   1.436   5.332 -2.8226  1.9517 -0.4106
    7MOL    H35 2327   1.241   1.557   5.422  0.7850 -0.0746 -0.0477
    7MOL    H36 2328   1.321   1.465   5.309  0.2516  1.3276  0.2012
    7MOL    H37 2329   1.032   1.695   5.361  0.8763 -1.0922  0.4594
    7MOL    H38 2330   1.017   1.766   5.201 -1.2708 -0.6882 -1.7887
    7MOL    H39 2331   0.976   1.594   5.241  1.0873 -0.4216  1.8402
    7MOL    C40 2332   1.370   1.928   4.926  0.3498 -0.1405 -0.3560
    7MOL    C41 2333   1.471   1.830   4.872  0.8362  0.1569  0.3436
    7MOL    O42 2334   1.601   1.870   4.916  0.1172  0.4086 -0.0136
    7MOL    C43 2335   1.694   1.769   4.942  0.9633  0.1677  0.3389
    7MOL    C44 2336   1.834   1.817   4.946  1.0102 -0.0630 -0.2016
    7MOL    C45 2337   1.878   1.874   4.814  0.8912 -0.1366  0.1158
    7MOL    C46 2338   1.863   1.922   5.049 -0.2148 -0.3732 -0.7057
    7MOL    H47 2339   1.395   2.031   4.902 -3.0542  0.8775  0.1479
    7MOL    H48 2340   1.277   1.916   4.869  0.0378 -3.5753  0.7471
    7MOL    H49 2341   1.442   1.728   4.898  2.0076 -0.7901 -1.9308
    7MOL    H50 2342   1.695   1.688   4.869 -0.4914  0.0199  0.4701
    7MOL    H51 2343   1.659   1.722   5.034 -2.5913  1.4137 -0.2893
    7MOL    H52 2344   1.891   1.727   4.971  0.9994 -0.4728 -1.6401
    7MOL    H53 2345   1.871   1.811   4.725  0.3769 -1.4236  1.0426
    7MOL    H54 2346   1.813   1.957   4.787  1.6120  0.4892  0.3033
    7MOL    H55 2347   1.980   1.913   4.814  0.7937  0.1181 -0.1427
    7MOL    H56 2348   1.789   2.002   5.050  0.0878 -0.0926  0.3637
    7MOL    H57 2349   1.966   1.955   5.057  0.6228 -3.2482  1.3560
    7MOL    H58 2350   1.842   1.869   5.143  1.3814  0.9847  0.4441
    7MOL    C59 2351   1.497   1.829   4.721 -0.0428 -0.3496 -0.5534
    7MOL    C60 2352   1.471   1.694   4.647 -0.0438  0.5685  0.5598
    7MOL    O61 2353   1.524   1.690   4.510  0.3440 -0.0533 -0.1108
    7MOL    C62 2354   1.669   1.685   4.500  0.0575  0.1535 -0.6123
    7MOL    C63 2355   1.707   1.670   4.354 -0.6627 -0.8724  0.9324
    7MOL    C64 2356   1.623   1.556   4.293  0.3692 -0.0321  0.1619
    7MOL    C65 2357   1.691   1.798   4.279  0.1915  0.5536 -1.2015
    7MOL    H66 2358   1.591   1.878   4.697 -0.1386  1.2346  2.0755
    7MOL    H67 2359   1.425   1.893   4.670 -0.1221 -0.9570 -1.2142
    7MOL    H68 2360   1.522   1.615   4.703  1.2965  1.0163 -0.0299
    7MOL    H69 2361   1.711   1.776   4.543  0.8746 -1.0279  1.1292
    7MOL    H70 2362   1.710   1.604   4.559 -0.5249 -0.9967 -1.7600
    7MOL    H71 2363   1.815   1.654   4.344 -0.5657  0.3477 -0.1018
    7MOL    H72 2364   1.648   1.537   4.189  0.9169 -0.3207  0.3436
    7MOL    H73 2365   1.517   1.581   4.295  0.6083  1.0320  3.6642
    7MOL    H74 2366   1.631   1.459   4.341 -3.1798 -0.3134  0.3090
    7MOL    H75 2367   1.588   1.826   4.261  0.8532  2.5789 -1.9723
    7MOL    H76 2368   1.731   1.874   4.346  0.5762 -1.2183  0.6526
    7MOL    H77 2369   1.742   1.806   4.183 -0.2363 -0.2943 -1.5094
    7MOL    C78 2370   1.318   1.652   4.641  0.6589 -0.2904  0.2074
    7MOL    C79 2371   1.280   1.518   4.569  0.0627  0.0171 -0.3670
    7MOL    O80 2372   1.337   1.405   4.628  0.1625 -0.1805 -0.6098
    7MOL    C81 2373   1.374   1.308   4.531  0.1749  0.1813 -0.3026
    7MOL    C82 2374   1.420   1.177   4.597  0.8298 -0.6033  0.7325
    7MOL    C83 2375   1.563   1.196   4.646  0.0561  0.5137 -0.3215
    7MOL    C84 2376   1.398   1.057   4.499  0.4955 -0.2934 -0.1057
    7MOL    H85 2377   1.259   1.733   4.597 -0.7631 -0.7523  1.2305
    7MOL    H86 2378   1.283   1.651   4.744  0.7022  2.8627  0.2950
    7MOL    H87 2379   1.304   1.540   4.465 -0.0671 -0.6822 -0.5453
    7MOL    H88 2380   1.288   1.279   4.470 -0.3324  0.5708  0.2231
    7MOL    H89 2381   1.447   1.350   4.462  0.6563 -0.8368 -0.4240
    7MOL    H90 2382   1.366   1.138   4.683 -1.9445  0.1900 -0.6069
    7MOL    H91 2383   1.627   1.215   4.560  0.9554 -1.2766 -0.0680
    7MOL    H92 2384   1.601   1.100   4.681 -2.2499 -0.2073  0.2975
    7MOL    H93 2385   1.570   1.282   4.712  0.6376 -0.4118  0.8410
    7MOL    H94 2386   1.472   1.072   4.421 -0.0442  2.4250 -0.1281
    7MOL    H95 2387   1.301   1.044   4.450  1.6667 -0.3863 -2.4424
    7MOL    H96 2388   1.423   0.963   4.548  1.3833 -0.1703 -0.3249
    7MOL    C97 2389   1.128   1.498   4.566  0.7853  0.2051 -0.0375
    7MOL    C98 2390   1.061   1.526   4.434 -0.2343  0.9835 -0.6742
    7MOL    O99 2391   1.071   1.668   4.398  0.3037 -0.0396  0.2973
    7MOL   C100 2392   1.118   1.681   4.259 -0.4058  0.6678  0.5185
    7MOL   C101 2393   1.189   1.817   4.263  0.2696  0.3765 -0.5758
    7MOL   C102 2394   1.286   1.836   4.146  0.0162  0.0621  0.4031
    7MOL   C103 2395   1.086   1.938   4.282  0.3515 -0.2890 -0.3284
    7MOL   H104 2396   1.078   1.550   4.648  2.9849 -3.5454  3.8840
    7MOL   H105 2397   1.105   1.393   4.587 -3.8411  1.1884  0.3686
    7MOL   H106 2398   1.099   1.454   4.361 -1.1716 -1.5430  1.2600
    7MOL   H107 2399   1.037   1.683   4.187 -0.2735  2.0740  0.3968
    7MOL   H108 2400   1.190   1.608   4.222 -0.8434  0.6471 -0.2912
    7MOL   H109 2401   1.261   1.817   4.345 -0.1649 -1.0852 -0.1764
    7MOL   H110 2402   1.353   1.921   4.160 -1.4370  1.4155 -0.7994
    7MOL   H111 2403   1.348   1.746   4.146 -1.4980 -1.0261 -1.6308
    7MOL   H112 2404   1.229   1.836   4.053  0.3149 -0.4150  0.2155
    7MOL   H113 2405   1.129   2.035   4.308  2.3240 -1.2381  0.1031
    7MOL   H114 2406   1.053   1.962   4.181  0.4052  0.5029 -0.1553
    7MOL   H115 2407   1.002   1.914   4.347  0.2727  0.1503 -0.2696
    7MOL   C116 2408   0.907   1.512   4.438 -0.9079 -0.0046  0.8283
    7MOL   C117 2409   0.852   1.378   4.479  0.2040 -0.0142 -0.4280
    7MOL   O118 2410   0.712   1.408   4.481 -0.6139  0.5691  0.4815
    7MOL   C119 2411   0.644   1.336   4.588 -0.0769  0.5638  0.3050
    7MOL   C120 2412   0.494   1.362   4.584 -0.8463 -0.7775  0.7049
    7MOL   C121 2413   0.469   1.499   4.635  0.4722  0.1840 -0.3711
    7MOL   C122 2414   0.431   1.326   4.443 -0.2793 -0.2671 -0.2149
    7MOL   H123 2415   0.869   1.596   4.495  1.8595  1.3935  0.6916
    7MOL   H124 2416   0.876   1.534   4.336 -0.5671 -0.4980  0.6174
    7MOL   H125 2417   0.895   1.361   4.577 -0.8491 -0.3522 -0.0124
    7MOL   H126 2418   0.688   1.347   4.687 -1.1736  0.6174  0.7857
    7MOL   H127 2419   0.647   1.229   4.568 -1.1222  0.9930 -2.4054
    7MOL   H128 2420   0.443   1.299   4.656 -1.9526  0.2681  0.8688
    7MOL   H129 2421   0.513   1.522   4.732 -0.2914  0.6427 -0.1253
    7MOL   H130 2422   0.363   1.524   4.631  0.3842 -0.4695 -2.5019
    7MOL   H131 2423   0.508   1.576   4.569  0.4588 -0.7148 -1.4374
    7MOL   H132 2424   0.451   1.401   4.367  3.1549 -0.3638  0.4807
    7MOL   H133 2425   0.476   1.231   4.415 -0.6068  0.2041 -2.3688
    7MOL   H134 2426   0.323   1.321   4.451 -0.2282  0.3443  0.9718
    7MOL   C135 2427   0.872   1.257   4.386 -0.3315 -0.7655  0.4391
    7MOL   C136 2428   0.985   1.161   4.438  0.7944  0.1263 -0.0833
    7MOL   O137 2429   0.941   1.108   4.561  0.3052 -0.3219 -0.0184
    7MOL   C138 2430   1.027   1.028   4.632  0.5727  0.7945 -0.3462
    7MOL   C139 2431   0.967   0.996   4.772  0.2301  0.6200 -0.9518
    7MOL   C140 2432   0.947   1.110   4.868 -0.0273 -0.7140 -0.0606
    7MOL   C141 2433   0.834   0.910   4.765 -0.1844 -0.1437 -0.1751
    7MOL   H142 2434   0.781   1.197   4.382 -0.7704 -0.0286 -0.7988
    7MOL   H143 2435   0.896   1.282   4.282  0.8915 -2.0040  0.3996
    7MOL   H144 2436   1.078   1.217   4.450  1.2930 -0.8363  0.5982
    7MOL   H145 2437   1.119   1.082   4.654  2.1843 -2.0350  0.1405
    7MOL   H146 2438   1.044   0.930   4.586  0.8592  1.7211 -2.2951
    7MOL   H147 2439   1.042   0.928   4.813 -0.4214  0.3552 -0.1813
    7MOL   H148 2440   0.902   1.087   4.965 -1.0975 -1.3862 -0.7070
    7MOL   H149 2441   0.880   1.178   4.815  1.8756  1.8281  0.6562
    7MOL   H150 2442   1.040   1.166   4.879  0.4811 -1.8288  1.3810
    7MOL   H151 2443   0.838   0.818   4.707 -0.3612  0.6262 -1.4294
    7MOL   H152 2444   0.796   0.883   4.864 -2.0294 -0.6807 -0.9981
    7MOL   H153 2445   0.754   0.965   4.714 -1.0170  1.1011  2.3813
    7MOL   C154 2446   1.022   1.048   4.335 -0.1495 -0.1010  0.4590
    7MOL   C155 2447   1.069   1.098   4.198 -0.2665  0.0248 -0.3102
    7MOL   O156 2448   1.172   1.191   4.231  0.3764 -0.0328 -0.0805
    7MOL   C157 2449   1.191   1.300   4.139  0.1234 -0.5520 -0.4947
    7MOL   C158 2450   1.327   1.360   4.153  0.4646 -0.0645  0.0144
    7MOL   C159 2451   1.442   1.266   4.163 -0.2185 -0.3195  0.2092
    7MOL   C160 2452   1.353   1.459   4.033  0.0360  0.0310 -0.0113
    7MOL   H161 2453   0.940   0.978   4.322  0.1428  0.0687 -2.6502
    7MOL   H162 2454   1.097   0.981   4.376 -0.8473 -0.8065  0.5801
    7MOL   H163 2455   0.989   1.158   4.155  0.6091  0.2286 -1.6920
    7MOL   H164 2456   1.106   1.368   4.152 -0.0323 -1.0676  1.4188
    7MOL   H165 2457   1.187   1.258   4.039 -0.0910  1.5840 -1.3959
    7MOL   H166 2458   1.329   1.418   4.245  1.8698  1.7041 -1.0980
    7MOL   H167 2459   1.533   1.327   4.163 -0.8526  0.6368 -0.6776
    7MOL   H168 2460   1.454   1.203   4.076  2.1542 -0.3696  0.5332
    7MOL   H169 2461   1.429   1.197   4.246 -2.2108  0.0609  0.2364
    7MOL   H170 2462   1.271   1.531   4.027  0.8121  0.9122 -0.3863
    7MOL   H171 2463   1.435   1.528   4.052  0.7780 -1.3467  1.9054
    7MOL   H172 2464   1.361   1.410   3.936 -0.2896 -0.3870  0.1753
    7MOL   C173 2465   1.117   0.982   4.111  0.7077  0.3691  0.2008
    7MOL   C174 2466   0.998   0.900   4.048  0.1129 -0.0795 -0.2174
    7MOL   O175 2467   0.936   0.990   3.959 -0.0283  0.2586  0.2645
    7MOL   C176 2468   0.803   1.035   3.986 -0.1541 -0.1862 -0.1229
    7MOL   C177 2469   0.767   1.166   3.920 -0.9877 -0.6330 -0.1062
    7MOL   C178 2470   0.792   1.154   3.766  0.1337 -0.3397 -0.0380
    7MOL   C179 2471   0.620   1.199   3.957 -0.1061 -0.1196  0.5998
    7MOL   H180 2472   1.176   1.014   4.025  0.8527 -0.4762 -0.0214
    7MOL   H181 2473   1.181   0.916   4.169  0.4413 -1.2120 -1.2407
    7MOL   H182 2474   0.931   0.862   4.125 -1.3968  0.3618 -1.3100
    7MOL   H183 2475   0.798   1.039   4.095  0.8192  0.0698 -0.0899
    7MOL   H184 2476   0.727   0.961   3.957 -0.2184  0.1588 -0.8307
    7MOL   H185 2477   0.839   1.240   3.954 -2.7999  1.3967 -0.6553
    7MOL   H186 2478   0.737   1.235   3.717 -3.2552 -1.8128  1.1632
    7MOL   H187 2479   0.900   1.159   3.758  0.0992 -0.6499 -0.7271
    7MOL   H188 2480   0.760   1.065   3.712 -0.9081  0.7235 -1.2011
    7MOL   H189 2481   0.553   1.125   3.912 -1.4257  0.8591  0.9472
    7MOL   H190 2482   0.590   1.292   3.910  0.3697 -0.2735 -0.0180
    7MOL   H191 2483   0.614   1.191   4.065  2.0347 -1.1324  0.6785
    7MOL   C192 2484   1.045   0.780   3.962 -0.4980 -0.2640  0.2638
    7MOL   C193 2485   0.932   0.700   3.896 -0.0481 -0.5930  0.3968
    7MOL   O194 2486   0.860   0.635   4.004 -0.2314  0.5108 -0.4443
    7MOL   C195 2487   0.721   0.612   3.975 -0.0789  0.1278  0.1392
    7MOL   C196 2488   0.659   0.524   4.088  0.5070 -0.8076  1.0158
    7MOL   C197 2489   0.723   0.380   4.094 -0.5337 -0.2880  0.0294
    7MOL   C198 2490   0.511   0.509   4.056 -0.0642  0.1393 -0.0437
    7MOL   H199 2491   1.096   0.708   4.026  0.2902 -1.1499 -1.3252
    7MOL   H200 2492   1.119   0.807   3.886  1.9167  0.2103  2.7045
    7MOL   H201 2493   0.883   0.779   3.839  1.2710  0.0779  0.1775
    7MOL   H202 2494   0.705   0.558   3.882 -0.3863  0.3446  0.0667
    7MOL   H203 2495   0.669   0.708   3.978 -1.9639 -0.8949  0.4795
    7MOL   H204 2496   0.658   0.571   4.186  2.4903  1.8581 -0.1639
    7MOL   H205 2497   0.686   0.316   4.013  0.2536 -0.0035 -0.5581
    7MOL   H206 2498   0.831   0.390   4.102 -0.5632  0.2292 -0.1892
    7MOL   H207 2499   0.705   0.337   4.193 -0.4548  0.7776  0.5091
    7MOL   H208 2500   0.469   0.452   4.139  0.7138 -0.9190 -0.3568
    7MOL   H209 2501   0.454   0.601   4.050  1.6896  1.2111 -0.4688
    7MOL   H210 2502   0.490   0.453   3.964  0.8181 -0.4071  0.0711
    7MOL   C211 2503   0.978   0.586   3.800 -0.0171  0.2961 -0.4917
    7MOL   C212 2504   1.056   0.630   3.673  0.4643  0.0461  0.6039
    7MOL   O213 2505   1.093   0.506   3.611 -0.4455 -0.4835 -0.3849
    7MOL   C214 2506   1.195   0.506   3.507  0.3879  0.2686  0.4845
    7MOL   C215 2507   1.207   0.357   3.466 -0.2088 -0.1262  0.1834
    7MOL   C216 2508   1.289   0.351   3.334 -0.1545  0.8415 -0.1615
    7MOL   C217 2509   1.271   0.285   3.584  0.1079  0.4969 -0.0887
    7MOL   H218 2510   0.892   0.523   3.776 -0.7261 -0.0399  2.7545
    7MOL   H219 2511   1.029   0.514   3.864 -1.2659 -0.4332 -0.2955
    7MOL   H220 2512   1.148   0.680   3.704  0.9689 -0.3184 -0.2902
    7MOL   H221 2513   1.289   0.548   3.545  1.2032 -0.9081 -0.1850
    7MOL   H222 2514   1.162   0.569   3.424  1.3300 -1.5714 -1.3202
    7MOL   H223 2515   1.105   0.329   3.441  0.0528 -0.5348 -0.4598
    7MOL   H224 2516   1.392   0.387   3.348 -0.2578  1.8425 -1.9090
    7MOL   H225 2517   1.289   0.247   3.301 -1.5756  1.3408 -1.7598
    7MOL   H226 2518   1.246   0.414   3.257  0.6234  2.1538  0.4593
    7MOL   H227 2519   1.232   0.320   3.680  1.6395  0.5034  0.5472
    7MOL   H228 2520   1.378   0.305   3.579 -0.2501  2.6759  0.5148
    7MOL   H229 2521   1.272   0.177   3.567 -0.3163  0.5932 -0.7157
    7MOL   C230 2522   0.984   0.721   3.576 -0.5020  0.1319  0.0670
    7MOL   C231 2523   0.853   0.661   3.512 -0.0189 -0.7124  0.2653
    7MOL   O232 2524   0.738   0.678   3.597  0.4255 -0.3565 -1.1026
    7MOL   C233 2525   0.651   0.566   3.598  0.6090  0.1303 -0.3218
    7MOL   C234 2526   0.507   0.603   3.650 -0.2320  0.2286  0.0370
    7MOL   C235 2527   0.454   0.722   3.569 -0.3147  0.1281 -0.3554
    7MOL   C236 2528   0.405   0.483   3.665 -0.7801 -0.5106  0.5573
    7MOL   H237 2529   1.052   0.756   3.498 -0.5302 -0.0520 -0.0409
    7MOL   H238 2530   0.965   0.820   3.617  2.1664  0.5366  0.3793
    7MOL   H239 2531   0.870   0.556   3.487  1.5390 -0.4008 -0.0519
    7MOL   H240 2532   0.643   0.518   3.500  0.2661 -0.9538  0.2179
    7MOL   H241 2533   0.691   0.485   3.660  0.0664  0.0395 -0.0847
    7MOL   H242 2534   0.515   0.631   3.755  2.8879  2.7232 -0.7878
    7MOL   H243 2535   0.523   0.806   3.572  0.1928 -0.3307  1.3871
    7MOL   H244 2536   0.360   0.752   3.615 -0.6964 -0.9962 -0.3834
    7MOL   H245 2537   0.445   0.691   3.465  0.5041 -1.2039 -0.0376
    7MOL   H246 2538   0.386   0.446   3.564  0.3788 -0.0108  0.1520
    7MOL   H247 2539   0.456   0.405   3.721 -0.3428  0.6248  1.7505
    7MOL   H248 2540   0.310   0.509   3.711 -1.0569  3.4934 -2.0150
    7MOL   C249 2541   0.817   0.745   3.384  0.0708 -0.5725  0.2043
    7MOL   C250 2542   0.917   0.725   3.260  0.1705 -0.4413 -0.0509
    7MOL   O251 2543   1.047   0.790   3.280  0.2926 -0.4351  0.0629
    7MOL   C252 2544   1.025   0.933   3.257  0.2873  0.2692 -0.3410
    7MOL   C253 2545   1.152   1.007   3.274  0.4490  0.4569  0.1929
    7MOL   C254 2546   1.252   0.975   3.166  0.1286  1.3405 -0.3654
    7MOL   C255 2547   1.210   0.996   3.423  0.0897 -0.4284 -0.5855
    7MOL   H256 2548   0.815   0.848   3.420  0.7361 -0.8925  1.1912
    7MOL   H257 2549   0.715   0.728   3.349  0.2279 -2.4052  0.5618
    7MOL   H258 2550   0.875   0.756   3.164  0.8197 -2.4372 -1.0039
    7MOL   H259 2551   0.985   0.939   3.155  0.2840  0.7299 -0.3160
    7MOL   H260 2552   0.948   0.966   3.327 -1.8858 -4.2810 -0.4167
    7MOL   H261 2553   1.136   1.115   3.272 -1.2058  0.2240  0.2960
    7MOL   H262 2554   1.211   1.014   3.073 -2.3780  1.5519  0.7747
    7MOL   H263 2555   1.274   0.868   3.162  1.2675  1.5461  0.2123
    7MOL   H264 2556   1.355   1.009   3.173  0.5510  0.1774 -0.7709
    7MOL   H265 2557   1.251   0.897   3.443 -0.0279 -0.1764  0.9367
    7MOL   H266 2558   1.297   1.060   3.439  0.6126 -1.3548  0.3444
    7MOL   H267 2559   1.144   1.036   3.500 -0.5515  1.6769 -2.1696
    7MOL   C268 2560   0.929   0.573   3.232  0.3339 -0.2342  0.1283
    7MOL   C269 2561   0.800   0.500   3.200  0.1180 -0.9114  0.4266
    7MOL   O270 2562   0.816   0.359   3.190 -0.4007 -0.1345  0.6790
    7MOL   C271 2563   0.839   0.282   3.308  0.5179 -0.8994  0.0249
    7MOL   C272 2564   0.941   0.173   3.263 -0.0094  0.3130 -0.0267
    7MOL   C273 2565   0.969   0.085   3.386 -0.5368  0.4119  0.5036
    7MOL   C274 2566   0.888   0.092   3.145  0.3085  0.2075  1.1499
    7MOL   H275 2567   0.979   0.534   3.321 -0.5127 -0.7140  0.3932
    7MOL   H276 2568   1.008   0.553   3.160  0.1087 -0.6788  0.0061
    7MOL   H277 2569   0.720   0.507   3.274 -0.8802 -1.4859 -0.5757
    7MOL   H278 2570   0.866   0.346   3.392 -1.9971  0.5285 -0.1978
    7MOL   H279 2571   0.748   0.228   3.335  0.6030 -1.2111 -0.3044
    7MOL   H280 2572   1.033   0.217   3.224  0.4230 -0.1348  0.4698
    7MOL   H281 2573   0.998   0.140   3.476 -0.9416 -0.3279  1.1022
    7MOL   H282 2574   1.046   0.012   3.362  1.3498  1.8978  1.8899
    7MOL   H283 2575   0.880   0.029   3.417 -0.2765  0.6260  1.6677
    7MOL   H284 2576   0.967   0.042   3.089  0.3217  1.1529  0.3054
    7MOL   H285 2577   0.843   0.162   3.074  4.5430  1.9731  0.0393
    7MOL   H286 2578   0.812   0.022   3.181 -1.1093  0.5891 -0.9844
    7MOL   C287 2579   0.750   0.536   3.056  0.4839 -0.3029 -0.0164
    7MOL   C288 2580   0.598   0.529   3.040 -0.7904 -0.4509  0.1456
    7MOL   O289 2581   0.570   0.545   2.904 -0.7212 -0.4571 -0.3793
    7MOL   C290 2582   0.560   0.436   2.823 -0.1912  0.2571 -0.5261
    7MOL   C291 2583   0.616   0.473   2.685 -0.3827  0.0906  0.0711
    7MOL   C292 2584   0.755   0.548   2.693  0.4813  0.1682 -0.1381
    7MOL   C293 2585   0.517   0.562   2.603 -0.0877 -0.4942  0.1903
    7MOL   H294 2586   0.799   0.472   2.982  1.4348 -1.3706  1.4757
    7MOL   H295 2587   0.789   0.632   3.022 -0.2783 -0.8970 -2.6711
    7MOL   H296 2588   0.582   0.424   3.065 -1.8458 -0.6489 -1.2792
    7MOL   H297 2589   0.601   0.345   2.867 -0.5995  1.6684  2.9047
    7MOL   H298 2590   0.454   0.412   2.825 -0.2000  0.3346  0.0171
    7MOL   H299 2591   0.625   0.380   2.630  0.0392 -0.5016  1.1173
    7MOL   H300 2592   0.800   0.551   2.594  3.1927  1.9551  1.0745
    7MOL   H301 2593   0.827   0.495   2.755 -0.6750 -0.5723  0.5847
    7MOL   H302 2594   0.751   0.651   2.729 -0.4706 -0.1010  0.5309
    7MOL   H303 2595   0.542   0.577   2.498 -1.4337 -0.4847 -0.1418
    7MOL   H304 2596   0.425   0.504   2.613 -0.2801 -0.2438 -0.1494
    7MOL   H305 2597   0.511   0.657   2.655  0.4739 -0.3262 -0.0459
    7MOL   C306 2598   0.506   0.618   3.126  0.2269  0.2795  0.3379
    7MOL   C307 2599   0.351   0.572   3.126 -0.3319 -0.5451  0.1103
    7MOL   O308 2600   0.352   0.444   3.188  0.5614 -0.1778 -0.5695
    7MOL   C309 2601   0.316   0.336   3.103  0.0991  0.1236  0.2604
    7MOL   C310 2602   0.326   0.207   3.188  0.4375  1.0258 -0.0321
    7MOL   C311 2603   0.443   0.208   3.288 -0.0430 -0.1648  0.3366
    7MOL   C312 2604   0.329   0.085   3.103  0.2001 -0.0393 -0.6218
    7MOL   H313 2605   0.502   0.716   3.079 -0.8062  0.3402  0.5288
    7MOL   H314 2606   0.529   0.635   3.231 -0.1490  0.5696  0.3747
    7MOL   H315 2607   0.305   0.567   3.027  1.4392  1.3099 -0.8394
    7MOL   H316 2608   0.388   0.343   3.022 -0.1158 -0.8686 -0.0217
    7MOL   H317 2609   0.212   0.345   3.070  0.1369 -1.5060 -0.3702
    7MOL   H318 2610   0.235   0.202   3.247  1.4508  0.4927  1.5246
    7MOL   H319 2611   0.421   0.281   3.365 -0.1235 -0.3806  0.5191
    7MOL   H320 2612   0.533   0.226   3.230 -0.4116  1.3606  0.2308
    7MOL   H321 2613   0.460   0.105   3.321  4.9269  0.3921 -0.0514
    7MOL   H322 2614   0.425   0.080   3.052  1.2152 -1.4452  1.3596
    7MOL   H323 2615   0.243   0.098   3.037 -0.0912  2.2926  0.1413
    7MOL   H324 2616   0.313   7.816   3.157 -0.4800  1.2255  1.4453
    7MOL   C325 2617   0.257   0.666   3.202 -0.0951  0.0331 -0.1829
    7MOL   C326 2618   0.220   0.796   3.131 -0.6475 -0.1373 -0.0799
    7MOL   O327 2619   0.160   0.773   3.002 -0.3291 -0.4934 -0.0480
    7MOL   C328 2620   0.204   0.858   2.902 -0.2972  0.1011 -0.2576
    7MOL   C329 2621   0.124   0.822   2.771  0.4126  0.1263  0.1092
    7MOL   C330 2622   0.158   0.926   2.658 -0.1893  0.8769 -0.3945
    7MOL   C331 2623   0.148   0.674   2.740  0.5455  0.3101 -0.4090
    7MOL   H332 2624   0.296   0.689   3.302 -3.6805 -0.9864  1.5517
    7MOL   H333 2625   0.166   0.608   3.215  1.1784 -2.3044 -1.4083
    7MOL   H334 2626   0.314   0.852   3.129  0.2595 -1.6457 -2.2463
    7MOL   H335 2627   0.179   0.960   2.933  3.0008  0.3750  1.7337
    7MOL   H336 2628   0.312   0.846   2.894 -0.0326  1.2454  1.3462
    7MOL   H337 2629   0.016   0.831   2.783  0.5422 -0.3942  1.7819
    7MOL   H338 2630   0.157   1.023   2.708  0.1650  0.9632 -0.5479
    7MOL   H339 2631   0.259   0.910   2.619  0.8239 -1.4584  2.9748
    7MOL   H340 2632   0.087   0.920   2.575 -0.9939 -0.5770  0.3934
    7MOL   H341 2633   0.130   0.600   2.817  2.9803 -0.2003 -0.2750
    7MOL   H342 2634   0.100   0.641   2.647 -2.2074  0.0217  1.0745
    7MOL   H343 2635   0.255   0.670   2.719  0.7021 -1.4059  0.6324
    7MOL   C344 2636   0.117   0.874   3.204  0.1953 -0.2358 -0.3179
    7MOL   C345 2637   0.155   0.921   3.342 -0.3074 -0.4636  0.1980
    7MOL   O346 2638   0.264   1.009   3.309 -0.3530 -0.1500  0.0978
    7MOL   C347 2639   0.362   1.022   3.408 -0.2686 -0.5226  0.2619
    7MOL   C348 2640   0.462   1.122   3.362 -0.8949 -0.1336  0.0987
    7MOL   C349 2641   0.538   1.071   3.233  0.7948  0.2040 -0.3967
    7MOL   C350 2642   0.547   1.160   3.484  0.2092 -0.3763 -0.8862
    7MOL   H351 2643   0.033   0.804   3.197 -0.5702  0.7606 -1.2303
    7MOL   H352 2644   0.080   0.960   3.148 -0.2698 -1.2504 -1.6056
    7MOL   H353 2645   0.192   0.842   3.408 -1.0161 -1.4089 -0.5232
    7MOL   H354 2646   0.416   0.928   3.417 -1.1891 -0.9209  1.7198
    7MOL   H355 2647   0.320   1.039   3.507  0.5078  1.5598  0.2515
    7MOL   H356 2648   0.401   1.210   3.342 -2.3412 -1.1621 -0.0464
    7MOL   H357 2649   0.603   0.986   3.256 -0.1627 -0.7687 -1.2501
    7MOL   H358 2650   0.600   1.152   3.195 -1.1499  1.6901 -0.4658
    7MOL   H359 2651   0.462   1.051   3.157 -0.4903 -0.7121  1.1149
    7MOL   H360 2652   0.633   1.095   3.496  0.8113  0.4792 -0.5459
    7MOL   H361 2653   0.583   1.261   3.465 -3.2885  1.1357 -0.0242
    7MOL   H362 2654   0.482   1.153   3.571  4.3321 -0.6663  2.2512
    7MOL   C363 2655   0.041   0.990   3.415  0.0372 -0.6710  0.0343
    7MOL   C364 2656   0.062   1.036   3.561  0.6237  0.0650  0.0548
    7MOL   O365 2657   0.091   0.930   3.662  0.0535  0.3198  0.7271
    7MOL   C366 2658   0.114   0.976   3.793  0.3784  0.3121  0.1224
    7MOL   C367 2659   0.112   0.861   3.902 -0.0795 -0.1534 -0.1454
    7MOL   C368 2660   0.230   0.763   3.881  0.6060 -0.7838 -0.3826
    7MOL   C369 2661   7.796   0.796   3.914  0.4622 -0.0739  0.4939
    7MOL   H370 2662   0.019   1.080   3.359 -0.5153  1.1651  3.0888
    7MOL   H371 2663   7.778   0.925   3.421 -0.8399  0.5354  0.4136
    7MOL   H372 2664   7.799   1.094   3.587 -0.1284 -1.1605  0.3206
    7MOL   H373 2665   0.199   1.043   3.807  0.2588  0.5412 -0.2558
    7MOL   H374 2666   0.036   1.046   3.823 -1.4075 -1.5328 -0.1163
    7MOL   H375 2667   0.117   0.906   4.001 -0.7682 -1.3606  0.4569
    7MOL   H376 2668   0.325   0.817   3.886 -0.4514  1.0938 -0.3925
    7MOL   H377 2669   0.223   0.705   3.789  0.3470  0.8281 -1.3896
    7MOL   H378 2670   0.223   0.685   3.958 -0.4535 -0.0624  0.2585
    7MOL   H379 2671   7.777   0.713   3.846 -0.4535  0.4516  0.0997
    7MOL   H380 2672   7.716   0.868   3.899 -0.2688 -1.4849 -3.0162
    7MOL   H381 2673   7.794   0.752   4.013 -1.8588 -2.2508 -0.4653
    7MOL   H382 2674   0.134   1.117   3.572  1.9302 -1.1484  0.7479
    8MOL     C1 2675   2.145   5.161   1.278 -0.0104 -0.5488  0.3877
    8MOL     C2 2676   2.178   5.015   1.242  0.0954 -0.3549  0.6807
    8MOL     O3 2677   2.097   4.989   1.127  0.1649 -0.0711 -0.1872
    8MOL     C4 2678   1.978   4.931   1.163  0.0540 -0.3964  0.6533
    8MOL     C5 2679   1.871   4.964   1.060 -0.4854  0.8670 -0.0794
    8MOL     C6 2680   1.870   5.121   1.050  0.1473 -0.0674 -0.1604
    8MOL     C7 2681   1.735   4.908   1.100 -0.7800 -0.3609 -0.5131
    8MOL     H8 2682   2.046   5.170   1.324  1.5867  2.1759  3.4814
    8MOL     H9 2683   2.218   5.187   1.355  1.6331 -1.4093 -0.8457
    8MOL    H10 2684   2.146   4.960   1.330  1.1875  0.2373  1.4670
    8MOL    H11 2685   1.945   4.979   1.255  1.5526  0.7902  0.5897
    8MOL    H12 2686   1.980   4.822   1.172  1.5885 -0.6209 -1.8352
    8MOL    H13 2687   1.899   4.923   0.963 -0.3860 -0.2768  0.4279
    8MOL    H14 2688   1.958   5.164   1.003 -0.0536  1.1704  0.5780
    8MOL    H15 2689   1.790   5.152   0.982  0.9250 -0.7300 -1.3961
    8MOL    H16 2690   1.853   5.167   1.147 -0.8075 -0.1728 -0.2669
    8MOL    H17 2691   1.655   4.961   1.048 -1.6354 -0.1451  0.9998
    8MOL    H18 2692   1.727   4.800   1.089  1.9266 -0.6690  0.1622
    8MOL    H19 2693   1.715   4.934   1.204  0.1698  0.5893 -0.5600
    8MOL    H20 2694   2.154   5.230   1.195 -0.3864 -1.9846 -0.8758
    8MOL    C21 2695   2.334   5.002   1.227 -0.6984  0.4741 -0.0807
    8MOL    C22 2696   2.385   4.873   1.143  0.4745  0.2250  0.3016
    8MOL    O23 2697   2.523   4.865   1.142  0.1729 -0.0799 -0.1684
    8MOL    C24 2698   2.586   4.956   1.052 -0.6554 -0.4097 -0.2758
    8MOL    C25 2699   2.659   5.069   1.131 -0.3442  0.0352 -0.9192
    8MOL    C26 2700   2.794   5.018   1.184 -0.1578 -0.2788  0.0970
    8MOL    C27 2701   2.669   5.199   1.046 -0.2829 -0.0112 -0.0383
    8MOL    H28 2702   2.380   5.083   1.170  0.0819  0.1344  0.0575
    8MOL    H29 2703   2.380   5.002   1.326  0.3109  0.3186 -0.5400
    8MOL    H30 2704   2.347   4.870   1.041 -0.4163  1.2396  0.5939
    8MOL    H31 2705   2.525   4.993   0.969 -0.8346 -0.8578 -0.3428
    8MOL    H32 2706   2.659   4.893   1.002  0.5942  1.4050 -0.7913
    8MOL    H33 2707   2.595   5.085   1.217 -1.4577  2.3087 -2.1292
    8MOL    H34 2708   2.786   4.925   1.240  1.4071 -1.4600 -1.5968
    8MOL    H35 2709   2.830   5.096   1.250  1.9406  1.0475 -2.5135
    8MOL    H36 2710   2.870   4.999   1.108 -1.1274 -2.4576 -0.3471
    8MOL    H37 2711   2.573   5.248   1.030  0.2007  2.1290  3.1492
    8MOL    H38 2712   2.732   5.277   1.089  2.7035 -0.8516 -2.6928
    8MOL    H39 2713   2.717   5.198   0.948  0.3539  0.4432  0.2615
    8MOL    C40 2714   2.327   4.736   1.203 -1.1680 -0.2055  0.0615
    8MOL    C41 2715   2.386   4.604   1.152  0.0540  0.5030 -0.1017
    8MOL    O42 2716   2.284   4.527   1.102  0.0493  0.1066 -0.2074
    8MOL    C43 2717   2.317   4.418   1.018  0.4887  0.0217  0.1900
    8MOL    C44 2718   2.192   4.388   0.939  0.2405  0.1885  0.0268
    8MOL    C45 2719   2.067   4.336   1.013  0.5645 -0.1395  0.8880
    8MOL    C46 2720   2.159   4.500   0.849 -0.0330 -0.0833 -0.2541
    8MOL    H47 2721   2.220   4.736   1.181 -1.1788  1.2242  0.0404
    8MOL    H48 2722   2.355   4.744   1.308  0.4804 -1.5966 -0.2484
    8MOL    H49 2723   2.446   4.624   1.064 -2.0296  0.9690 -1.4431
    8MOL    H50 2724   2.327   4.326   1.077  0.3729 -0.4170 -0.4720
    8MOL    H51 2725   2.399   4.436   0.950 -1.0384  5.2050 -0.4454
    8MOL    H52 2726   2.229   4.319   0.863  1.3980  1.3976 -0.5213
    8MOL    H53 2727   2.046   4.415   1.086  0.4943  1.6074 -0.9706
    8MOL    H54 2728   1.975   4.337   0.953  1.1170 -1.6062  0.0112
    8MOL    H55 2729   2.079   4.236   1.053  2.4244  0.3073  1.4828
    8MOL    H56 2730   2.132   4.590   0.904  3.7990  0.0894  1.4937
    8MOL    H57 2731   2.078   4.474   0.781  0.1765  1.1152 -0.9782
    8MOL    H58 2732   2.244   4.519   0.784  0.6189 -0.3797  0.5094
    8MOL    C59 2733   2.476   4.528   1.254  0.2361 -0.1813 -0.0067
    8MOL    C60 2734   2.585   4.441   1.188 -0.2302 -0.1377 -0.8754
    8MOL    O61 2735   2.635   4.365   1.304 -0.2511  0.1616 -0.6147
    8MOL    C62 2736   2.592   4.230   1.301  0.8585  0.4157 -0.2680
    8MOL    C63 2737   2.694   4.149   1.392 -0.2353 -0.0180 -0.5229
    8MOL    C64 2738   2.837   4.151   1.349 -0.0252 -0.3400 -0.3324
    8MOL    C65 2739   2.670   4.194   1.535 -0.1119  0.3603  0.0794
    8MOL    H66 2740   2.409   4.479   1.324  1.8531 -1.3708  0.7362
    8MOL    H67 2741   2.533   4.593   1.320 -0.2136  0.7272 -0.5024
    8MOL    H68 2742   2.544   4.372   1.114  2.5082 -0.2485 -2.3404
    8MOL    H69 2743   2.489   4.236   1.333  1.8195  0.4657  2.9329
    8MOL    H70 2744   2.594   4.193   1.198  1.1581 -0.4582  0.0529
    8MOL    H71 2745   2.658   4.046   1.402 -0.2583  0.1470  1.1914
    8MOL    H72 2746   2.901   4.230   1.388 -1.3823  0.0992  1.0350
    8MOL    H73 2747   2.852   4.150   1.241  0.1002  0.6550 -0.3263
    8MOL    H74 2748   2.876   4.052   1.371 -0.2581 -0.4360 -0.3465
    8MOL    H75 2749   2.722   4.127   1.603 -0.6906 -0.7806 -0.5994
    8MOL    H76 2750   2.708   4.295   1.553  0.4109  0.3507 -0.9223
    8MOL    H77 2751   2.566   4.184   1.568  0.2400 -1.7928  0.5659
    8MOL    C78 2752   2.711   4.518   1.121  0.1723 -1.0311 -0.5737
    8MOL    C79 2753   2.816   4.427   1.048 -0.4846 -0.1791 -0.1120
    8MOL    O80 2754   2.751   4.351   0.941  0.2362 -0.2291 -0.3068
    8MOL    C81 2755   2.781   4.213   0.954 -0.3376  1.0515 -0.1517
    8MOL    C82 2756   2.701   4.127   0.859 -0.5766 -0.4533  0.4802
    8MOL    C83 2757   2.765   4.123   0.718 -0.0369  0.3481 -0.5258
    8MOL    C84 2758   2.557   4.167   0.852  0.4881  0.2324  0.0414
    8MOL    H85 2759   2.752   4.592   1.190  0.6016 -0.3099 -1.5855
    8MOL    H86 2760   2.672   4.594   1.053 -0.2663 -0.9118 -0.1910
    8MOL    H87 2761   2.857   4.361   1.125  0.8553  0.8989  0.1267
    8MOL    H88 2762   2.887   4.199   0.935 -0.3161 -0.2382  0.8385
    8MOL    H89 2763   2.757   4.180   1.055  0.1352  1.8422  0.2247
    8MOL    H90 2764   2.714   4.023   0.890  1.4410 -0.5039 -0.4566
    8MOL    H91 2765   2.700   4.064   0.654  1.3951 -1.7279 -0.1169
    8MOL    H92 2766   2.869   4.090   0.717 -0.3301 -0.5541 -1.6246
    8MOL    H93 2767   2.770   4.220   0.668  0.2583  0.4434 -0.3193
    8MOL    H94 2768   2.547   4.270   0.817 -0.5623  0.0954 -0.0981
    8MOL    H95 2769   2.520   4.167   0.954  0.1542  1.6981 -0.0686
    8MOL    H96 2770   2.500   4.097   0.791 -1.9637  1.7651  0.5110
    8MOL    C97 2771   2.936   4.501   0.986 -0.4496 -0.1646  0.5013
    8MOL    C98 2772   3.047   4.538   1.086  0.1575 -0.9307  0.0040
    8MOL    O99 2773   3.133   4.638   1.028 -0.1679  0.0261 -0.3759
    8MOL   C100 2774   3.087   4.770   1.044  0.2006 -1.5439 -0.3404
    8MOL   C101 2775   3.172   4.859   0.956  0.5270 -0.0461  0.4722
    8MOL   C102 2776   3.142   4.828   0.809  0.2251 -0.0239 -0.0040
    8MOL   C103 2777   3.140   5.006   0.994 -0.1447 -0.4991  0.5140
    8MOL   H104 2778   2.895   4.577   0.919 -0.9375 -1.6959 -0.9532
    8MOL   H105 2779   2.996   4.438   0.921 -0.7016 -0.2507  0.3512
    8MOL   H106 2780   2.994   4.584   1.169  2.4579 -2.3366  2.3047
    8MOL   H107 2781   3.095   4.797   1.149 -0.9536 -0.1296 -0.6044
    8MOL   H108 2782   2.981   4.772   1.018 -0.0815  2.3656  0.7648
    8MOL   H109 2783   3.275   4.839   0.984  1.1390  2.4654  0.0552
    8MOL   H110 2784   3.203   4.897   0.750  0.3357  0.9819  1.2525
    8MOL   H111 2785   3.164   4.727   0.774 -0.8794  0.1245 -1.1576
    8MOL   H112 2786   3.042   4.861   0.780 -0.0546  0.0093  0.9699
    8MOL   H113 2787   3.036   5.030   0.969 -0.2668 -1.9349 -0.4043
    8MOL   H114 2788   3.170   5.032   1.095  2.3316  1.4522 -0.6740
    8MOL   H115 2789   3.191   5.083   0.936  1.5034 -0.4511  1.9810
    8MOL   C116 2790   3.130   4.417   1.128 -0.1773 -0.4690 -0.0963
    8MOL   C117 2791   3.197   4.431   1.265 -0.8485  0.1351  0.7626
    8MOL   O118 2792   3.105   4.462   1.363  0.2811  0.1163  0.4511
    8MOL   C119 2793   3.155   4.492   1.496 -0.4150  0.5803 -0.9895
    8MOL   C120 2794   3.066   4.584   1.558 -0.8380 -0.0516 -0.5810
    8MOL   C121 2795   3.055   4.711   1.474  0.6125  1.0837  0.3039
    8MOL   C122 2796   2.927   4.514   1.580 -0.2618 -0.5685 -0.0922
    8MOL   H123 2797   3.074   4.324   1.132 -1.3266  0.1842 -0.8894
    8MOL   H124 2798   3.208   4.397   1.054 -1.5883 -2.7382 -1.0214
    8MOL   H125 2799   3.266   4.515   1.257 -1.3804  0.5156  0.1485
    8MOL   H126 2800   3.257   4.532   1.494 -0.0880 -0.1914 -0.0116
    8MOL   H127 2801   3.163   4.400   1.553 -3.3026  1.6261  1.2132
    8MOL   H128 2802   3.112   4.613   1.653 -0.1031 -0.7748 -0.7036
    8MOL   H129 2803   2.974   4.771   1.517 -1.3217 -0.3036 -1.3078
    8MOL   H130 2804   3.023   4.684   1.373  0.1821  1.1376  0.4236
    8MOL   H131 2805   3.149   4.765   1.477  0.7325  1.0179 -1.7958
    8MOL   H132 2806   2.883   4.491   1.483 -0.6166 -1.6786  0.3259
    8MOL   H133 2807   2.935   4.424   1.641  1.5856  0.9424  1.9479
    8MOL   H134 2808   2.872   4.594   1.630  3.5517  1.2162  1.4359
    8MOL   C135 2809   3.291   4.318   1.299 -0.3278  0.5307 -0.1208
    8MOL   C136 2810   3.428   4.322   1.222  0.2662  0.7037  0.6624
    8MOL   O137 2811   3.494   4.421   1.306 -0.1504 -0.2264 -0.5370
    8MOL   C138 2812   3.601   4.489   1.249 -0.6512  0.7141 -0.3483
    8MOL   C139 2813   3.628   4.621   1.330 -0.0458 -0.9552  0.2288
    8MOL   C140 2814   3.522   4.732   1.302  0.0199  0.1640 -0.2053
    8MOL   C141 2815   3.657   4.591   1.473 -0.0142  0.0612 -0.5389
    8MOL   H142 2816   3.316   4.315   1.405 -1.3911 -0.1403  0.1208
    8MOL   H143 2817   3.245   4.225   1.266 -0.4931  0.1599  1.1410
    8MOL   H144 2818   3.419   4.346   1.116 -0.1553  0.4383  0.6349
    8MOL   H145 2819   3.586   4.502   1.142  0.0860 -0.9638 -0.6771
    8MOL   H146 2820   3.685   4.420   1.239 -0.3400  0.9088  0.8385
    8MOL   H147 2821   3.721   4.652   1.281 -0.8061 -1.0435 -1.3207
    8MOL   H148 2822   3.556   4.830   1.334 -0.2132  0.6735 -1.4799
    8MOL   H149 2823   3.425   4.710   1.346 -0.1436 -1.8766 -1.5030
    8MOL   H150 2824   3.506   4.759   1.198  0.5067 -0.8439 -0.5487
    8MOL   H151 2825   3.666   4.684   1.528  4.0083  0.1829 -1.3070
    8MOL   H152 2826   3.571   4.539   1.516  0.4164  0.2845  0.6104
    8MOL   H153 2827   3.741   4.522   1.479  0.6856  0.7130 -2.5267
    8MOL   C154 2828   3.506   4.191   1.243 -0.3376  0.5543  0.5322
    8MOL   C155 2829   3.506   4.087   1.129 -0.2745 -0.2190 -0.0904
    8MOL   O156 2830   3.364   4.080   1.115 -0.7398 -0.5147 -0.8632
    8MOL   C157 2831   3.323   3.952   1.062  0.3024 -0.4067  0.3690
    8MOL   C158 2832   3.214   3.889   1.151 -0.9116  0.1899  0.3962
    8MOL   C159 2833   3.271   3.875   1.297  0.3223  0.0262 -0.2099
    8MOL   C160 2834   3.079   3.966   1.160  0.7351  0.2938 -0.2874
    8MOL   H161 2835   3.477   4.139   1.334 -3.6307  1.7461  0.2073
    8MOL   H162 2836   3.611   4.219   1.259 -0.1444 -1.6088  3.7481
    8MOL   H163 2837   3.542   3.989   1.160 -1.9240 -1.1642 -1.1427
    8MOL   H164 2838   3.414   3.895   1.047 -0.3824 -1.1977 -0.8464
    8MOL   H165 2839   3.289   3.964   0.959 -1.5626 -2.1374  0.7405
    8MOL   H166 2840   3.210   3.789   1.109 -0.4519  0.0959  0.5709
    8MOL   H167 2841   3.214   3.798   1.349 -1.5090 -0.2338 -2.4706
    8MOL   H168 2842   3.279   3.969   1.352  0.3655  0.1289 -0.3892
    8MOL   H169 2843   3.373   3.837   1.296  0.8877  1.4940 -0.8137
    8MOL   H170 2844   3.003   3.927   1.228  0.1870  1.8108 -0.0117
    8MOL   H171 2845   3.093   4.073   1.178  2.9956 -0.1128  0.5427
    8MOL   H172 2846   3.047   3.965   1.056  1.2969 -0.4155 -0.4645
    8MOL   C173 2847   3.577   4.138   1.000 -0.2898  0.0938 -0.0331
    8MOL   C174 2848   3.728   4.175   1.017  0.0624  0.0234  0.7082
    8MOL   O175 2849   3.790   4.052   1.051  0.6504  0.1021  0.3462
    8MOL   C176 2850   3.839   4.037   1.188  0.2618 -0.7762  1.0962
    8MOL   C177 2851   3.874   3.895   1.210  0.1662 -0.0593  0.0297
    8MOL   C178 2852   3.949   3.872   1.340  0.7363 -0.5839 -0.2801
    8MOL   C179 2853   3.747   3.813   1.215  0.0315  0.5245  0.1332
    8MOL   H180 2854   3.558   4.052   0.935 -1.9203  0.3538  0.0882
    8MOL   H181 2855   3.524   4.218   0.949  1.2205  1.4384  0.4591
    8MOL   H182 2856   3.745   4.249   1.095 -0.4906 -0.0456  0.8982
    8MOL   H183 2857   3.777   4.082   1.266 -0.6617  0.5277 -0.3442
    8MOL   H184 2858   3.929   4.099   1.190  0.0749 -0.4128 -0.7606
    8MOL   H185 2859   3.937   3.847   1.134  0.0569 -0.5764  0.2629
    8MOL   H186 2860   3.899   3.896   1.433 -1.5863  0.5626 -1.7860
    8MOL   H187 2861   3.978   3.766   1.344  3.3769  0.1584  1.7963
    8MOL   H188 2862   4.034   3.940   1.346  0.9378 -0.8925  0.4477
    8MOL   H189 2863   3.755   3.705   1.229 -0.1797  0.7269  1.9223
    8MOL   H190 2864   3.697   3.819   1.118  0.8222 -1.2098 -0.4039
    8MOL   H191 2865   3.682   3.853   1.293  1.4886  3.2005  0.0009
    8MOL   C192 2866   3.784   4.230   0.884 -0.2376 -0.5545  0.5951
    8MOL   C193 2867   3.932   4.282   0.889 -0.5964  0.3419  0.9131
    8MOL   O194 2868   3.937   4.389   0.985  0.0282  0.3456  0.8557
    8MOL   C195 2869   4.048   4.383   1.072  0.1359  0.3286  0.4417
    8MOL   C196 2870   4.070   4.513   1.149 -0.5392  0.6954  0.4308
    8MOL   C197 2871   3.948   4.565   1.213  0.0802  0.3934  0.0816
    8MOL   C198 2872   4.150   4.619   1.071  0.2720  0.0258 -0.3941
    8MOL   H199 2873   3.732   4.323   0.861 -2.1869 -1.9891 -0.9395
    8MOL   H200 2874   3.765   4.170   0.795  0.8294 -0.5919  0.3822
    8MOL   H201 2875   3.988   4.199   0.933 -0.2172  0.0294 -0.1358
    8MOL   H202 2876   4.140   4.360   1.019 -0.4255 -2.9629  0.7539
    8MOL   H203 2877   4.039   4.295   1.137 -0.8410 -0.4374 -0.7150
    8MOL   H204 2878   4.125   4.481   1.237  1.7220 -2.9418 -2.1901
    8MOL   H205 2879   3.913   4.472   1.258 -1.4311 -0.1512 -2.1202
    8MOL   H206 2880   3.971   4.645   1.283  0.9089 -1.8213  2.3851
    8MOL   H207 2881   3.869   4.593   1.143 -0.6217 -0.3129  0.5930
    8MOL   H208 2882   4.240   4.579   1.026 -1.2369  0.2008 -3.7332
    8MOL   H209 2883   4.088   4.680   1.004 -0.1944  1.0645  0.9398
    8MOL   H210 2884   4.198   4.687   1.142  1.7823  0.8876 -2.2103
    8MOL   C211 2885   3.978   4.317   0.738 -0.3438 -0.2066  0.0677
    8MOL   C212 2886   4.121   4.375   0.732  0.1182 -0.6184 -0.2484
    8MOL   O213 2887   4.214   4.269   0.763 -0.4019  0.2780  0.1607
    8MOL   C214 2888   4.347   4.318   0.781  0.1718  0.0362 -0.3432
    8MOL   C215 2889   4.448   4.201   0.786  0.2843  0.2336 -0.4000
    8MOL   C216 2890   4.591   4.241   0.802  0.5834 -0.6428 -0.3538
    8MOL   C217 2891   4.402   4.098   0.896 -0.3171 -0.0786 -0.4905
    8MOL   H218 2892   3.906   4.386   0.693 -0.0795  1.4643  2.1402
    8MOL   H219 2893   3.986   4.226   0.679 -3.5045 -1.3188  1.3018
    8MOL   H220 2894   4.134   4.455   0.805  0.5297  0.6259 -1.6560
    8MOL   H221 2895   4.359   4.376   0.873  0.6468 -0.7027  0.0679
    8MOL   H222 2896   4.386   4.383   0.703 -0.4346 -1.7898 -2.2090
    8MOL   H223 2897   4.429   4.158   0.688  1.2931 -0.4520 -0.3043
    8MOL   H224 2898   4.618   4.304   0.717 -1.3174  0.5360 -0.1250
    8MOL   H225 2899   4.612   4.290   0.897  0.7530  0.7529 -1.0954
    8MOL   H226 2900   4.658   4.156   0.806 -0.8574 -1.7514  0.8716
    8MOL   H227 2901   4.427   4.129   0.997 -1.8286  1.2452 -0.5128
    8MOL   H228 2902   4.456   4.004   0.880  0.6820  0.1680  1.2687
    8MOL   H229 2903   4.296   4.073   0.898 -0.9078  2.3777 -0.2729
    8MOL   C230 2904   4.138   4.441   0.593 -0.6924 -0.0930  0.2126
    8MOL   C231 2905   4.141   4.593   0.598 -0.0342  0.7597  0.5471
    8MOL   O232 2906   4.272   4.620   0.644  0.7837 -0.8687 -0.0007
    8MOL   C233 2907   4.292   4.728   0.736  1.0621  0.1853 -0.2374
    8MOL   C234 2908   4.429   4.758   0.789 -0.1510  0.6200 -0.0567
    8MOL   C235 2909   4.431   4.875   0.889 -0.0506  0.1482  0.5325
    8MOL   C236 2910   4.497   4.635   0.831  0.0435 -0.1259 -0.2642
    8MOL   H237 2911   4.066   4.400   0.523  1.2260 -0.4133 -1.6350
    8MOL   H238 2912   4.227   4.405   0.541  1.5787  1.5553  2.7957
    8MOL   H239 2913   4.060   4.626   0.663 -0.8668 -0.2147  0.0261
    8MOL   H240 2914   4.253   4.816   0.686 -0.9568 -1.1615 -1.1189
    8MOL   H241 2915   4.229   4.719   0.824  2.1888  0.0831  0.5684
    8MOL   H242 2916   4.494   4.787   0.706  0.0420 -0.6009 -0.3407
    8MOL   H243 2917   4.536   4.900   0.906  0.4010 -0.4463 -1.3323
    8MOL   H244 2918   4.382   4.849   0.983 -1.2875 -0.5664 -0.2968
    8MOL   H245 2919   4.377   4.963   0.854  0.5144  0.4891  0.5121
    8MOL   H246 2920   4.452   4.585   0.916 -2.4290  0.6457 -1.0823
    8MOL   H247 2921   4.514   4.557   0.757 -0.1646 -1.5989  1.2258
    8MOL   H248 2922   4.599   4.659   0.861 -0.5798  0.8751  1.0837
    8MOL   C249 2923   4.141   4.654   0.457 -0.0834 -0.5835  0.4470
    8MOL   C250 2924   4.019   4.642   0.364  0.6091 -0.3078  0.7995
    8MOL   O251 2925   3.989   4.510   0.319 -0.7629  0.4157  0.3277
    8MOL   C252 2926   4.088   4.448   0.237  0.0186 -0.3465  0.0572
    8MOL   C253 2927   4.037   4.317   0.174 -0.6527  0.2059 -0.3425
    8MOL   C254 2928   4.148   4.247   0.094 -0.4408 -0.5298  0.1320
    8MOL   C255 2929   3.915   4.344   0.089 -0.5880  0.7865  0.5246
    8MOL   H256 2930   4.228   4.624   0.399  0.5979 -0.2601  1.2902
    8MOL   H257 2931   4.143   4.762   0.473  3.6149 -0.4531 -0.6177
    8MOL   H258 2932   4.038   4.701   0.275  0.9242 -0.5656  0.6902
    8MOL   H259 2933   4.109   4.518   0.155  0.2612  1.1640  1.3761
    8MOL   H260 2934   4.179   4.433   0.295  0.7966  3.4222 -0.0181
    8MOL   H261 2935   4.009   4.253   0.258 -2.0913  2.9196  1.3212
    8MOL   H262 2936   4.220   4.320   0.058 -2.0131  1.6124  1.1917
    8MOL   H263 2937   4.108   4.201   0.003 -0.8778 -0.0996  0.1042
    8MOL   H264 2938   4.197   4.174   0.159 -1.6268 -0.4143  1.1815
    8MOL   H265 2939   3.937   4.392   7.818 -2.4681  0.5536 -0.0554
    8MOL   H266 2940   3.876   4.245   0.066  0.9576  0.3993 -0.5198
    8MOL   H267 2941   3.840   4.404   0.140  0.5842  2.5495  0.2370
    8MOL   C268 2942   3.891   4.689   0.426  0.4844 -0.5134 -0.6244
    8MOL   C269 2943   3.770   4.688   0.326 -0.0244  0.0461 -0.7765
    8MOL   O270 2944   3.809   4.765   0.220  0.2310 -0.0634  0.3850
    8MOL   C271 2945   3.828   4.701   0.093 -0.5201  0.6184 -0.4126
    8MOL   C272 2946   3.839   4.830   0.003 -0.3796  0.3383  0.2022
    8MOL   C273 2947   3.950   4.925   0.049  0.9405 -0.5280  1.3049
    8MOL   C274 2948   3.866   4.784   7.682 -0.0859 -0.2222 -0.4489
    8MOL   H275 2949   3.906   4.788   0.468  0.6101 -0.5426 -0.6016
    8MOL   H276 2950   3.878   4.626   0.514  2.9200 -1.1247 -0.6579
    8MOL   H277 2951   3.747   4.584   0.301 -0.8617  0.0852 -0.2158
    8MOL   H278 2952   3.923   4.648   0.085  0.5748  2.3544  0.7422
    8MOL   H279 2953   3.742   4.639   0.070 -0.7213  0.2664  1.1884
    8MOL   H280 2954   3.743   4.882   0.010 -0.8159 -0.4249 -0.0251
    8MOL   H281 2955   4.040   4.874   0.084  1.2579 -0.3678  0.7311
    8MOL   H282 2956   3.912   4.981   0.134 -0.3185  0.2286  0.2685
    8MOL   H283 2957   3.981   4.983   7.787 -0.1489  0.8352  1.8240
    8MOL   H284 2958   3.969   4.755   7.660  1.1614  2.6067  1.3887
    8MOL   H285 2959   3.853   4.870   7.615 -1.6130  1.0919  1.5060
    8MOL   H286 2960   3.792   4.712   7.649 -1.1383 -0.3562  2.1816
    8MOL   C287 2961   3.647   4.756   0.387 -0.2584 -0.2858 -0.2810
    8MOL   C288 2962   3.520   4.762   0.302 -0.0944 -0.0960 -0.2670
    8MOL   O289 2963   3.428   4.852   0.360 -0.1529  0.4170 -0.0309
    8MOL   C290 2964   3.372   4.957   0.277  0.8082  0.0143  0.3989
    8MOL   C291 2965   3.273   5.035   0.363  0.7998  0.2977 -0.1313
    8MOL   C292 2966   3.337   5.106   0.485 -0.3073 -0.7308  0.4583
    8MOL   C293 2967   3.155   4.943   0.399  0.4000  0.3972  0.2158
    8MOL   H294 2968   3.682   4.859   0.399  1.4763 -0.7878 -0.9313
    8MOL   H295 2969   3.631   4.721   0.489  0.6805  1.8473  0.6434
    8MOL   H296 2970   3.546   4.800   0.203  3.2074  0.5995  0.8022
    8MOL   H297 2971   3.461   5.017   0.258  1.4099 -1.0921 -0.3669
    8MOL   H298 2972   3.335   4.913   0.184  1.9280 -0.0929 -0.0045
    8MOL   H299 2973   3.230   5.113   0.300  3.1492  1.0515 -0.8431
    8MOL   H300 2974   3.406   5.039   0.536 -1.2716 -1.3494  0.9652
    8MOL   H301 2975   3.261   5.134   0.558  0.2296  0.4049  0.6062
    8MOL   H302 2976   3.384   5.200   0.453 -0.8645 -0.4287  0.5170
    8MOL   H303 2977   3.119   4.898   0.306 -1.2634  2.1372  0.0083
    8MOL   H304 2978   3.187   4.865   0.468 -4.2515 -0.9048  1.0163
    8MOL   H305 2979   3.073   4.996   0.446  1.9142  0.3187  3.0683
    8MOL   C306 2980   3.449   4.624   0.309  0.3725  0.0625  0.1243
    8MOL   C307 2981   3.346   4.614   0.189 -0.2559  0.6278 -0.2601
    8MOL   O308 2982   3.416   4.633   0.067 -0.1029  0.7528 -0.4933
    8MOL   C309 2983   3.338   4.683   7.790  0.5418 -0.4676  1.0097
    8MOL   C310 2984   3.419   4.715   7.666  0.2634  0.2278  0.0595
    8MOL   C311 2985   3.337   4.797   7.580  0.3751  0.0206 -0.1086
    8MOL   C312 2986   3.464   4.586   7.602 -0.2335 -0.0388  0.5035
    8MOL   H313 2987   3.405   4.605   0.407  1.0093 -1.9973  0.0311
    8MOL   H314 2988   3.525   4.550   0.284 -1.0990 -1.1510 -0.7583
    8MOL   H315 2989   3.272   4.693   0.200 -0.3064  0.5779 -0.2522
    8MOL   H316 2990   3.289   4.776   7.818  1.8954  0.6009 -0.1099
    8MOL   H317 2991   3.255   4.614   7.777  1.0540 -1.0346  0.6846
    8MOL   H318 2992   3.511   4.767   7.694 -0.8563  2.5437 -0.4136
    8MOL   H319 2993   3.240   4.747   7.576  0.3869  0.0990 -1.9539
    8MOL   H320 2994   3.374   4.817   7.479 -0.3470  1.4538 -0.1068
    8MOL   H321 2995   3.320   4.894   7.626  0.0024  0.7908 -1.8224
    8MOL   H322 2996   3.375   4.529   7.576 -0.3715 -0.7190  2.4167
    8MOL   H323 2997   3.512   4.520   7.674  0.4765 -0.4596 -0.3451
    8MOL   H324 2998   3.531   4.588   7.516  0.9326 -1.0280  1.3812
    8MOL   C325 2999   3.275   4.475   0.187  0.0167 -0.3110  0.0768
    8MOL   C326 3000   3.140   4.481   0.251 -0.1770  0.7167  0.4447
    8MOL   O327 3001   3.052   4.585   0.192 -0.5186 -0.0743 -0.1783
    8MOL   C328 3002   2.949   4.630   0.272 -0.0218  0.5841  1.1220
    8MOL   C329 3003   2.884   4.745   0.201 -0.4340 -0.2195  0.1402
    8MOL   C330 3004   2.802   4.691   0.084 -0.2534 -0.3055 -0.2387
    8MOL   C331 3005   2.791   4.836   0.287 -0.0431  0.0908  0.3017
    8MOL   H332 3006   3.331   4.394   0.233  0.7212  0.4806  0.6436
    8MOL   H333 3007   3.269   4.442   0.084 -1.2021 -3.0006  0.9659
    8MOL   H334 3008   3.160   4.496   0.357 -0.3267 -1.0764  0.7445
    8MOL   H335 3009   2.875   4.562   0.315 -2.2713  1.2333 -1.6119
    8MOL   H336 3010   2.985   4.679   0.363 -1.2766  2.2528  0.7411
    8MOL   H337 3011   2.966   4.801   0.156  0.7838 -0.9259  1.4258
    8MOL   H338 3012   2.758   4.765   0.017  1.5427 -0.0841 -1.2307
    8MOL   H339 3013   2.863   4.632   0.015  0.4947 -0.0518  0.1954
    8MOL   H340 3014   2.717   4.633   0.120 -0.2692  0.0995  0.3812
    8MOL   H341 3015   2.738   4.907   0.225  0.9484  0.7314  0.1735
    8MOL   H342 3016   2.706   4.776   0.320  1.4003 -1.4805  1.3141
    8MOL   H343 3017   2.829   4.897   0.369  1.7270 -1.4550  0.6724
    8MOL   C344 3018   3.068   4.341   0.248  0.5076 -0.2742  0.0038
    8MOL   C345 3019   3.134   4.224   0.322  0.2464  0.3396 -0.1765
    8MOL   O346 3020   3.119   4.243   0.460 -0.2120  0.4228 -0.2840
    8MOL   C347 3021   3.240   4.282   0.522  0.1554  0.7971 -0.2301
    8MOL   C348 3022   3.217   4.337   0.659 -0.5914  0.5516 -0.7563
    8MOL   C349 3023   3.179   4.214   0.756  0.1951 -0.4068 -0.6332
    8MOL   C350 3024   3.118   4.450   0.672 -0.3888  0.3682  0.3993
    8MOL   H351 3025   3.050   4.316   0.143 -2.5177  1.9599 -0.0652
    8MOL   H352 3026   2.971   4.352   0.296 -0.4614 -1.2615 -1.6550
    8MOL   H353 3027   3.240   4.209   0.300  0.2257 -0.7446  0.4185
    8MOL   H354 3028   3.293   4.363   0.472 -0.0232  0.8572 -0.3186
    8MOL   H355 3029   3.308   4.197   0.525 -0.0564  0.6658  2.1788
    8MOL   H356 3030   3.314   4.376   0.691 -0.2946 -1.4701  0.9017
    8MOL   H357 3031   3.254   4.137   0.739  1.5211  0.0075  2.9721
    8MOL   H358 3032   3.082   4.182   0.717 -1.2202  0.5652  1.9789
    8MOL   H359 3033   3.170   4.241   0.861 -0.0354 -0.6332 -0.5953
    8MOL   H360 3034   3.017   4.410   0.676 -0.2175 -0.1348 -0.2151
    8MOL   H361 3035   3.135   4.506   0.764  2.1340  0.1120  0.1165
    8MOL   H362 3036   3.123   4.520   0.588  0.4297  1.2200  1.1577
    8MOL   C363 3037   3.065   4.095   0.292 -0.4641 -0.5168 -0.2620
    8MOL   C364 3038   3.133   3.978   0.353 -0.1323  0.3540  0.8026
    8MOL   O365 3039   3.070   3.848   0.333 -0.4635 -0.5485 -0.2327
    8MOL   C366 3040   2.959   3.815   0.419  0.2648 -0.2921  0.1219
    8MOL   C367 3041   2.919   3.668   0.391 -0.7866 -0.5447  0.4237
    8MOL   C368 3042   3.035   3.570   0.414 -0.1369 -0.2177  0.7488
    8MOL   C369 3043   2.864   3.648   0.246  0.3082 -0.5638 -0.3319
    8MOL   H370 3044   2.964   4.094   0.335 -0.6893 -1.0851 -0.8079
    8MOL   H371 3045   3.063   4.071   0.186 -1.4496 -1.4421 -0.0514
    8MOL   H372 3046   3.152   4.002   0.458 -1.3069  0.2452  1.0443
    8MOL   H373 3047   2.986   3.830   0.524 -1.1120  0.6787  0.3648
    8MOL   H374 3048   2.875   3.883   0.401 -1.4337 -2.4038 -0.2248
    8MOL   H375 3049   2.847   3.642   0.469 -2.0609  2.4934  0.3376
    8MOL   H376 3050   3.076   3.586   0.514  0.0844 -0.8541  0.7662
    8MOL   H377 3051   3.110   3.588   0.338 -1.2149 -0.2693 -0.3331
    8MOL   H378 3052   2.995   3.468   0.411 -2.0600  0.5374  0.2596
    8MOL   H379 3053   2.844   3.541   0.247  0.0976 -0.5180  0.1389
    8MOL   H380 3054   2.931   3.660   0.160  1.5757 -2.0568  0.4186
    8MOL   H381 3055   2.775   3.710   0.238 -0.3167 -1.3380  0.5819
    8MOL   H382 3056   3.233   3.994   0.312  0.2951  2.8551  2.7235
    9MOL     C1 3057   6.752   3.491   1.603 -0.3056 -0.0788  0.2904
    9MOL     C2 3058   6.671   3.503   1.481  0.7213 -0.0382 -0.2201
    9MOL     O3 3059   6.654   3.647   1.471 -0.3916 -0.1148 -0.6102
    9MOL     C4 3060   6.526   3.704   1.479  0.2109  0.2541  0.1972
    9MOL     C5 3061   6.534   3.858   1.496 -0.2965 -0.5228  1.2625
    9MOL     C6 3062   6.405   3.919   1.534  0.6125 -0.6499  0.2570
    9MOL     C7 3063   6.610   3.930   1.383  0.5671  0.1274 -0.6981
    9MOL     H8 3064   6.703   3.537   1.689 -0.9795 -1.3662  0.6181
    9MOL     H9 3065   6.756   3.388   1.639 -0.3714 -0.3905 -0.6053
    9MOL    H10 3066   6.578   3.457   1.514 -0.1664  1.9943  0.1890
    9MOL    H11 3067   6.487   3.667   1.574  0.7572  1.6747  0.9826
    9MOL    H12 3068   6.462   3.675   1.396  0.4233  1.5088 -0.4106
    9MOL    H13 3069   6.599   3.879   1.581  2.8697 -1.9344 -0.7070
    9MOL    H14 3070   6.403   4.028   1.529  1.7507 -0.6432 -0.0020
    9MOL    H15 3071   6.315   3.882   1.484 -2.2175  3.7677  1.7290
    9MOL    H16 3072   6.390   3.903   1.640  1.7647 -0.3326  0.4737
    9MOL    H17 3073   6.552   3.930   1.291 -1.8988 -0.4167  0.7800
    9MOL    H18 3074   6.617   4.034   1.415  1.5508 -0.2236  0.2569
    9MOL    H19 3075   6.713   3.902   1.361 -0.1523 -2.0258 -1.4531
    9MOL    H20 3076   6.854   3.530   1.604 -0.5931  0.6937  0.1282
    9MOL    C21 3077   6.711   3.447   1.340 -1.3022 -0.7090  0.1974
    9MOL    C22 3078   6.621   3.474   1.219 -0.8470  0.0343 -0.1499
    9MOL    O23 3079   6.704   3.533   1.116 -0.0972 -0.1454 -0.0626
    9MOL    C24 3080   6.704   3.678   1.135  1.0738 -0.0043 -0.0022
    9MOL    C25 3081   6.808   3.750   1.049  0.3036  0.1296 -0.2570
    9MOL    C26 3082   6.806   3.707   0.904  0.1977 -0.0855 -0.4112
    9MOL    C27 3083   6.812   3.903   1.069  0.1706 -0.3962 -0.2719
    9MOL    H28 3084   6.814   3.464   1.308 -1.3478 -0.3425  0.2390
    9MOL    H29 3085   6.712   3.341   1.362  1.5371 -0.5113  1.2003
    9MOL    H30 3086   6.531   3.529   1.244 -0.1229  0.5032  1.5098
    9MOL    H31 3087   6.711   3.706   1.240  0.2817  0.9565 -0.2018
    9MOL    H32 3088   6.600   3.704   1.114  1.6326  1.3058 -1.1892
    9MOL    H33 3089   6.909   3.721   1.076  0.1514 -1.9808 -1.8587
    9MOL    H34 3090   6.707   3.716   0.859  1.3957 -0.4156 -3.2124
    9MOL    H35 3091   6.820   3.599   0.904  0.5408 -0.0538 -1.9302
    9MOL    H36 3092   6.878   3.750   0.835  1.1772  1.1463  1.3544
    9MOL    H37 3093   6.708   3.936   1.071  0.6479  1.4044 -2.5162
    9MOL    H38 3094   6.842   3.912   1.173 -0.3781  1.0714 -0.2256
    9MOL    H39 3095   6.867   3.962   0.995  1.0594  0.1857  0.8274
    9MOL    C40 3096   6.572   3.333   1.161  0.2363  0.8104 -0.1683
    9MOL    C41 3097   6.495   3.346   1.026 -0.2104  0.3839  0.7733
    9MOL    O42 3098   6.365   3.402   1.059  0.0356  0.1592  0.2717
    9MOL    C43 3099   6.331   3.524   1.001 -0.2332  0.3478  0.6419
    9MOL    C44 3100   6.195   3.553   1.072  0.5796  0.4303  0.1180
    9MOL    C45 3101   6.218   3.586   1.220  0.5769  0.3664 -0.0596
    9MOL    C46 3102   6.133   3.676   1.006  0.0217  0.6984 -0.0724
    9MOL    H47 3103   6.512   3.272   1.228 -1.1143  0.3534 -1.7638
    9MOL    H48 3104   6.664   3.276   1.153  0.4509  1.2979 -1.2452
    9MOL    H49 3105   6.552   3.408   0.955  0.8523 -0.7262  0.6454
    9MOL    H50 3106   6.318   3.503   0.895 -0.2671  1.4505  0.4177
    9MOL    H51 3107   6.403   3.604   1.011  0.3188  0.0872 -1.0378
    9MOL    H52 3108   6.118   3.477   1.062  0.0825  1.0001 -0.4484
    9MOL    H53 3109   6.290   3.520   1.268 -0.3427  0.2423  1.1775
    9MOL    H54 3110   6.253   3.689   1.226 -2.3840  1.4229  0.2530
    9MOL    H55 3111   6.123   3.578   1.272  0.5140  0.1280 -0.2084
    9MOL    H56 3112   6.201   3.761   1.011  0.5326  0.2388  1.3068
    9MOL    H57 3113   6.049   3.698   1.072  1.5266  1.0421  1.7746
    9MOL    H58 3114   6.099   3.651   0.906  0.9091 -0.5641 -0.0759
    9MOL    C59 3115   6.469   3.202   0.972  0.7580 -0.3409 -0.4847
    9MOL    C60 3116   6.451   3.215   0.816 -0.1730  0.4019  1.0482
    9MOL    O61 3117   6.320   3.174   0.772 -1.0877  0.0927 -0.2384
    9MOL    C62 3118   6.230   3.284   0.767  0.4363  0.3567  0.3996
    9MOL    C63 3119   6.088   3.239   0.722 -0.3981  0.7127  0.2058
    9MOL    C64 3120   6.092   3.199   0.569 -0.1641 -0.9872 -0.5380
    9MOL    C65 3121   6.033   3.116   0.805  0.0886  0.3849  0.0573
    9MOL    H66 3122   6.370   3.173   1.008  0.4737  2.2169  0.8916
    9MOL    H67 3123   6.552   3.137   0.998 -1.5390 -3.0004  0.5331
    9MOL    H68 3124   6.465   3.315   0.775 -1.1942 -0.4850 -1.5490
    9MOL    H69 3125   6.210   3.324   0.866 -0.6843  1.9951 -0.4609
    9MOL    H70 3126   6.263   3.370   0.708 -0.8812  0.2015 -0.5651
    9MOL    H71 3127   6.020   3.324   0.724  1.1118  1.9947 -1.5445
    9MOL    H72 3128   6.177   3.133   0.555  0.0238 -1.3385  2.0068
    9MOL    H73 3129   6.112   3.284   0.503 -1.9444 -2.2204 -2.7418
    9MOL    H74 3130   6.000   3.153   0.532 -0.8202  0.1171 -0.3369
    9MOL    H75 3131   5.983   3.149   0.896  0.9966  0.3184  0.5740
    9MOL    H76 3132   5.955   3.065   0.748  0.4386 -0.1289  0.0319
    9MOL    H77 3133   6.116   3.051   0.834 -0.1704 -0.1650 -0.4090
    9MOL    C78 3134   6.532   3.108   0.737 -0.6173  0.4895  0.0663
    9MOL    C79 3135   6.688   3.118   0.741 -0.7062  0.4488 -0.0122
    9MOL    O80 3136   6.741   3.019   0.656 -0.7095  0.2426  0.2595
    9MOL    C81 3137   6.782   2.902   0.738 -0.0449 -0.0400 -0.1403
    9MOL    C82 3138   6.808   2.775   0.651 -0.1751 -0.0396 -0.3097
    9MOL    C83 3139   6.942   2.784   0.580 -0.7315 -0.2713 -0.7591
    9MOL    C84 3140   6.689   2.724   0.561 -0.0115  0.3142  0.3036
    9MOL    H85 3141   6.497   3.117   0.634  0.5046  0.9514 -0.2827
    9MOL    H86 3142   6.511   3.007   0.773 -0.0242 -0.1321 -1.2961
    9MOL    H87 3143   6.727   3.103   0.842 -2.0708  0.9407  0.5996
    9MOL    H88 3144   6.872   2.922   0.794 -1.0295  0.1520  1.3995
    9MOL    H89 3145   6.707   2.876   0.813  0.0337  2.5221  0.8839
    9MOL    H90 3146   6.826   2.691   0.717  0.9151  0.4996  0.0934
    9MOL    H91 3147   6.958   2.879   0.529  2.0087 -1.6229 -2.5162
    9MOL    H92 3148   6.961   2.702   0.511  2.4016  0.6196 -1.0579
    9MOL    H93 3149   7.021   2.781   0.655  0.3773  1.8766 -1.7917
    9MOL    H94 3150   6.702   2.619   0.536 -0.5475  0.5511 -1.0795
    9MOL    H95 3151   6.675   2.777   0.466 -1.6478 -1.2104 -0.3400
    9MOL    H96 3152   6.595   2.724   0.617 -1.1953  1.0166 -1.6197
    9MOL    C97 3153   6.731   3.260   0.696  0.0222 -0.2139  0.2405
    9MOL    C98 3154   6.885   3.280   0.687 -0.8959 -0.1229 -0.6568
    9MOL    O99 3155   6.929   3.277   0.821  0.1138 -0.4524  0.2129
    9MOL   C100 3156   7.053   3.205   0.837  0.6326 -0.6446  0.1586
    9MOL   C101 3157   7.101   3.198   0.975  0.1760  0.9842 -0.5641
    9MOL   C102 3158   7.120   3.343   1.027 -0.9097 -0.0768  0.4380
    9MOL   C103 3159   7.008   3.121   1.071  0.4655 -0.8139  0.3701
    9MOL   H104 3160   6.679   3.339   0.751  0.1592 -0.5398  0.8436
    9MOL   H105 3161   6.694   3.267   0.594  0.0668 -2.0018  0.0945
    9MOL   H106 3162   6.920   3.193   0.631 -1.1961  0.5723 -1.9503
    9MOL   H107 3163   7.131   3.252   0.777 -0.8803  2.3010  0.3861
    9MOL   H108 3164   7.041   3.107   0.790  1.9109 -0.9074  0.3547
    9MOL   H109 3165   7.200   3.151   0.971  0.0804  0.8319 -1.1511
    9MOL   H110 3166   7.184   3.396   0.957  0.8769  0.8091  2.7004
    9MOL   H111 3167   7.027   3.399   1.036  0.4474  2.1854  0.5528
    9MOL   H112 3168   7.180   3.348   1.117  2.1554 -0.8947 -1.4940
    9MOL   H113 3169   6.999   3.017   1.042  1.2252 -0.5874 -0.7032
    9MOL   H114 3170   7.048   3.123   1.172 -2.0949  1.1376  1.3815
    9MOL   H115 3171   6.912   3.172   1.069  0.3490 -1.0722 -2.3909
    9MOL   C116 3172   6.940   3.408   0.617  0.3738 -1.0621 -0.7970
    9MOL   C117 3173   6.898   3.429   0.471  0.4551 -0.2940  0.6976
    9MOL   O118 3174   6.956   3.551   0.432 -0.3897  0.0568  0.4701
    9MOL   C119 3175   6.864   3.657   0.428 -0.1664  0.3129  0.1902
    9MOL   C120 3176   6.933   3.780   0.392 -0.1267 -0.4592  0.0486
    9MOL   C121 3177   6.981   3.791   0.246  0.3317  0.3959  0.4359
    9MOL   C122 3178   6.845   3.902   0.422 -0.2642  0.0295  0.5304
    9MOL   H123 3179   6.892   3.487   0.674 -0.8462 -0.7065 -2.2748
    9MOL   H124 3180   7.049   3.415   0.609  0.4879 -1.2754  0.4884
    9MOL   H125 3181   6.790   3.432   0.459  0.6109  0.8227 -0.5256
    9MOL   H126 3182   6.828   3.673   0.530 -0.1125 -0.7946  0.3799
    9MOL   H127 3183   6.785   3.649   0.354 -0.1140  2.7655 -0.1855
    9MOL   H128 3184   7.021   3.782   0.456 -0.9070  0.0076  1.1283
    9MOL   H129 3185   7.053   3.867   0.216  2.6696 -2.4408 -1.4133
    9MOL   H130 3186   6.905   3.787   0.168  0.0958  1.0860  0.6266
    9MOL   H131 3187   7.043   3.704   0.224 -0.5855 -0.9113  2.8146
    9MOL   H132 3188   6.895   3.997   0.407 -0.4497 -0.0823 -0.8655
    9MOL   H133 3189   6.756   3.894   0.359  0.2829  1.4783 -0.4377
    9MOL   H134 3190   6.814   3.893   0.526  0.0181  0.0779  0.6165
    9MOL   C135 3191   6.948   3.311   0.375 -0.6423  0.1030  0.0064
    9MOL   C136 3192   6.878   3.306   0.239  0.1779 -0.1397 -0.7451
    9MOL   O137 3193   6.741   3.281   0.263  0.7495 -0.4773  0.7489
    9MOL   C138 3194   6.710   3.140   0.276  0.2845  0.1762 -0.6756
    9MOL   C139 3195   6.561   3.126   0.252  0.4531  0.1046 -0.7995
    9MOL   C140 3196   6.518   2.978   0.285  0.6887 -0.1364 -0.5418
    9MOL   C141 3197   6.488   3.226   0.345 -0.4920  0.4455 -0.4382
    9MOL   H142 3198   7.052   3.319   0.344 -0.3315  0.7101  1.1917
    9MOL   H143 3199   6.943   3.216   0.429 -0.0613  0.7876  1.2980
    9MOL   H144 3200   6.925   3.229   0.176  3.4608  0.7690  0.4597
    9MOL   H145 3201   6.727   3.102   0.376 -3.7471  1.9043  0.7704
    9MOL   H146 3202   6.758   3.075   0.203  2.0068 -2.1143  2.3726
    9MOL   H147 3203   6.535   3.151   0.149 -1.5811 -0.2565 -0.3908
    9MOL   H148 3204   6.542   2.958   0.389 -0.3874 -0.6872 -0.3977
    9MOL   H149 3205   6.564   2.904   0.218 -1.0847 -0.9616 -0.8895
    9MOL   H150 3206   6.416   2.944   0.270  0.9052 -0.8098 -0.5422
    9MOL   H151 3207   6.380   3.221   0.333 -0.2206 -3.4598 -2.1156
    9MOL   H152 3208   6.524   3.205   0.445 -0.5435  0.5240 -0.4030
    9MOL   H153 3209   6.514   3.330   0.322 -0.4592  0.8529  1.3762
    9MOL   C154 3210   6.887   3.442   0.158 -0.1240  0.3186  0.2112
    9MOL   C155 3211   6.851   3.426   0.009 -0.0204 -0.3179 -0.6423
    9MOL   O156 3212   6.829   3.558   7.777 -0.0085 -0.0366 -0.1368
    9MOL   C157 3213   6.702   3.619   7.794  1.2854  0.1178  0.1696
    9MOL   C158 3214   6.677   3.707   7.674 -0.6862 -0.7566 -0.7315
    9MOL   C159 3215   6.635   3.620   7.560 -0.0518 -0.5797 -0.1066
    9MOL   C160 3216   6.570   3.811   7.707 -0.1271  0.2580 -0.4644
    9MOL   H161 3217   6.984   3.485   0.182  0.5018 -1.3410  0.7624
    9MOL   H162 3218   6.816   3.505   0.211  1.2511  0.1965  2.2776
    9MOL   H163 3219   6.765   3.359   0.007 -0.2140 -0.2111  1.9013
    9MOL   H164 3220   6.702   3.674   0.063 -0.6115  1.0898 -0.3686
    9MOL   H165 3221   6.636   3.532   7.800  1.9006 -0.4653 -1.1586
    9MOL   H166 3222   6.768   3.765   7.653 -1.9460  2.6478  2.6740
    9MOL   H167 3223   6.608   3.679   7.472  1.0873  1.9238  1.1963
    9MOL   H168 3224   6.554   3.549   7.576 -1.5188  1.2640  0.8363
    9MOL   H169 3225   6.729   3.573   7.531 -0.7451 -2.1721  0.1681
    9MOL   H170 3226   6.617   3.895   7.757  4.1371 -1.8454 -0.7601
    9MOL   H171 3227   6.530   3.858   7.617 -3.3318  0.1207  0.8007
    9MOL   H172 3228   6.494   3.764   7.770  1.2233 -2.0848 -0.5245
    9MOL   C173 3229   6.966   3.366   7.754 -0.4284  0.1960 -0.2992
    9MOL   C174 3230   6.956   3.356   7.604  0.3361 -0.0752  0.3914
    9MOL   O175 3231   7.057   3.264   7.545  0.6690 -0.8234 -0.1045
    9MOL   C176 3232   7.190   3.308   7.517 -0.6869 -0.0745  0.8312
    9MOL   C177 3233   7.250   3.223   7.408 -0.6057  0.1993 -0.0726
    9MOL   C178 3234   7.298   3.086   7.446 -0.6236  0.4646 -0.1224
    9MOL   C179 3235   7.172   3.225   7.271 -0.0298  0.1726  0.1996
    9MOL   H180 3236   7.055   3.419   7.786  1.0593 -1.6861 -1.2184
    9MOL   H181 3237   6.984   3.267   7.795  0.1571  1.2074  1.9548
    9MOL   H182 3238   6.957   3.460   7.572  0.1376 -0.1654  0.0893
    9MOL   H183 3239   7.260   3.284   7.597 -0.5246 -2.8569 -0.0806
    9MOL   H184 3240   7.192   3.412   7.483  0.1446 -0.6599 -0.9775
    9MOL   H185 3241   7.343   3.273   7.379 -0.4624  1.5569  2.5546
    9MOL   H186 3242   7.218   3.032   7.496 -1.3661  2.0546  0.4612
    9MOL   H187 3243   7.330   3.035   7.355 -0.3068  0.9535 -0.2863
    9MOL   H188 3244   7.381   3.101   7.516  0.7886  2.3337 -2.1235
    9MOL   H189 3245   7.238   3.184   7.193 -0.2491 -2.3131  1.2620
    9MOL   H190 3246   7.153   3.330   7.252 -0.7077  0.1853  0.9619
    9MOL   H191 3247   7.070   3.187   7.269 -0.7136  2.0192 -1.5337
    9MOL   C192 3248   6.823   3.294   7.558  0.7130  0.0178 -0.3126
    9MOL   C193 3249   6.795   3.295   7.406  0.3252  0.2486  0.3485
    9MOL   O194 3250   6.799   3.424   7.343 -0.4004  0.1907 -0.6875
    9MOL   C195 3251   6.829   3.415   7.205 -0.1435 -0.3136  0.4140
    9MOL   C196 3252   6.870   3.563   7.152 -0.2138 -0.5371 -0.2543
    9MOL   C197 3253   6.974   3.612   7.251  0.1521 -0.1243 -0.1851
    9MOL   C198 3254   6.746   3.651   7.125  0.2412  0.5463 -0.2287
    9MOL   H199 3255   6.741   3.337   7.615  0.8057  1.3212 -1.1254
    9MOL   H200 3256   6.832   3.189   7.587  2.0842  0.8261  2.3037
    9MOL   H201 3257   6.877   3.241   7.359  0.7344  0.3916  0.8919
    9MOL   H202 3258   6.746   3.366   7.155 -1.0158  0.7916  0.7443
    9MOL   H203 3259   6.907   3.345   7.178  0.0584  0.0265  0.1109
    9MOL   H204 3260   6.923   3.551   7.058  1.3698  1.6925  0.3031
    9MOL   H205 3261   6.932   3.630   7.349  1.0219 -1.0416  0.3652
    9MOL   H206 3262   7.069   3.559   7.248 -0.1646 -0.7094  0.0420
    9MOL   H207 3263   7.006   3.710   7.215  2.8512 -1.5581 -1.9410
    9MOL   H208 3264   6.663   3.591   7.089  0.9065 -0.3445 -0.3116
    9MOL   H209 3265   6.714   3.699   7.218 -2.2760 -1.1864 -0.1441
    9MOL   H210 3266   6.769   3.725   7.049 -1.1233 -1.3254 -2.5099
    9MOL   C211 3267   6.659   3.227   7.376 -0.5309 -0.7127 -0.1075
    9MOL   C212 3268   6.657   3.073   7.380  0.4806  0.2979  0.4850
    9MOL   O213 3269   6.522   3.048   7.365 -0.1649  0.0234  0.1850
    9MOL   C214 3270   6.494   2.932   7.443 -0.4237 -0.2428 -0.7841
    9MOL   C215 3271   6.353   2.887   7.407  0.3640  0.0185 -0.3106
    9MOL   C216 3272   6.333   2.744   7.453  0.3463 -0.2934  0.3275
    9MOL   C217 3273   6.245   2.985   7.441 -0.5528  0.1085  0.3752
    9MOL   H218 3274   6.622   3.264   7.280 -1.6099  2.0908  1.3190
    9MOL   H219 3275   6.585   3.266   7.446 -1.5579  1.9943 -2.5708
    9MOL   H220 3276   6.703   3.047   7.475  2.6287 -0.1256 -0.6401
    9MOL   H221 3277   6.496   2.949   7.551  1.1680 -1.5222 -0.5859
    9MOL   H222 3278   6.558   2.848   7.417  1.3702  0.7281  0.3763
    9MOL   H223 3279   6.350   2.880   7.298  0.6749 -0.1551 -0.3095
    9MOL   H224 3280   6.404   2.670   7.417 -0.8237 -2.2552  1.9324
    9MOL   H225 3281   6.328   2.735   7.561  0.7454  1.1902  0.4887
    9MOL   H226 3282   6.246   2.701   7.403  0.7518 -1.5559  0.6882
    9MOL   H227 3283   6.268   3.072   7.379  0.0738 -2.3527 -2.9814
    9MOL   H228 3284   6.247   3.010   7.547 -0.7775  1.5287  0.0555
    9MOL   H229 3285   6.148   2.943   7.417 -0.8124  0.5190  0.6889
    9MOL   C230 3286   6.733   2.991   7.279 -0.4228 -0.7509  0.1797
    9MOL   C231 3287   6.862   2.923   7.345  0.7766 -0.3477  0.8850
    9MOL   O232 3288   6.817   2.834   7.447 -0.0494 -0.0765  0.1526
    9MOL   C233 3289   6.900   2.827   7.553 -0.4691 -0.4944 -0.1644
    9MOL   C234 3290   6.855   2.713   7.649  0.1685  0.3586 -0.2818
    9MOL   C235 3291   6.948   2.704   7.772  0.2288  0.3377 -0.6198
    9MOL   C236 3292   6.709   2.736   7.713  0.5403 -0.3797 -0.6399
    9MOL   H237 3293   6.765   3.060   7.201 -1.0849  0.5383  1.0281
    9MOL   H238 3294   6.670   2.917   7.230 -0.8458  0.2246 -0.7572
    9MOL   H239 3295   6.908   3.010   7.391  2.4611  0.2647 -1.8181
    9MOL   H240 3296   7.007   2.815   7.536  0.1067  0.9543  2.2390
    9MOL   H241 3297   6.876   2.921   7.603 -1.0944 -1.1855  0.8493
    9MOL   H242 3298   6.858   2.627   7.582 -0.1959 -0.0368  0.2067
    9MOL   H243 3299   6.927   2.789   0.013  2.4491  0.1561  0.3717
    9MOL   H244 3300   7.056   2.701   7.760  0.4149  0.2144  0.9190
    9MOL   H245 3301   6.924   2.617   0.008  0.0829  1.6414  1.2501
    9MOL   H246 3302   6.705   2.801   7.801  0.5833 -0.1989 -0.7711
    9MOL   H247 3303   6.642   2.775   7.636 -0.0809  1.4775  0.7962
    9MOL   H248 3304   6.671   2.641   7.749  0.3018 -0.5602 -1.3682
    9MOL   C249 3305   6.951   2.863   7.234 -0.2590  0.1042  0.0993
    9MOL   C250 3306   6.893   2.739   7.154  0.0311 -0.3733  0.2196
    9MOL   O251 3307   6.962   2.740   7.029  0.0937 -0.1732 -0.4625
    9MOL   C252 3308   6.894   2.738   6.907 -0.1786 -0.0995 -0.5759
    9MOL   C253 3309   7.005   2.719   6.800 -0.0895  0.7009  0.2807
    9MOL   C254 3310   7.080   2.848   6.780  0.0649  0.3985 -0.5258
    9MOL   C255 3311   6.944   2.675   6.671  0.2077 -0.5455  1.3384
    9MOL   H256 3312   7.048   2.830   7.270 -1.3862 -1.6979  1.6059
    9MOL   H257 3313   6.984   2.943   7.168 -0.4178 -1.2938 -1.7288
    9MOL   H258 3314   6.787   2.752   7.131  0.2659 -0.8588 -1.1731
    9MOL   H259 3315   6.828   2.652   6.907 -0.3989  0.0676 -0.9600
    9MOL   H260 3316   6.830   2.824   6.889 -1.2860 -0.5934  0.9672
    9MOL   H261 3317   7.078   2.642   6.821  0.5912  1.4749  0.7867
    9MOL   H262 3318   7.176   2.834   6.730 -0.4689  1.3047 -1.8341
    9MOL   H263 3319   7.113   2.895   6.873  3.5117 -0.5834 -1.1746
    9MOL   H264 3320   7.024   2.919   6.720 -0.1829 -0.9481 -1.9017
    9MOL   H265 3321   6.895   2.577   6.679 -2.6943  0.7196 -0.2268
    9MOL   H266 3322   6.884   2.755   6.628  4.8664  1.8046 -1.1191
    9MOL   H267 3323   7.020   2.657   6.595  1.1833 -1.6039  2.5286
    9MOL   C268 3324   6.913   2.599   7.226  0.5937  0.5314  0.1939
    9MOL   C269 3325   6.815   2.490   7.177  0.5926  0.8015  0.2023
    9MOL   O270 3326   6.689   2.529   7.206 -0.2432  0.1624  0.3381
    9MOL   C271 3327   6.597   2.492   7.102  0.2275  0.6602 -0.4614
    9MOL   C272 3328   6.465   2.504   7.162 -0.2130 -0.4498  0.0211
    9MOL   C273 3329   6.348   2.476   7.063 -0.5931  0.6810 -0.5186
    9MOL   C274 3330   6.448   2.412   7.283  0.6267  0.0526 -0.2113
    9MOL   H275 3331   6.885   2.624   7.329  0.8319 -2.2387  0.9772
    9MOL   H276 3332   7.016   2.563   7.219  1.3778  1.9734  3.2897
    9MOL   H277 3333   6.834   2.492   7.070  2.3367  3.0663  0.5113
    9MOL   H278 3334   6.613   2.559   7.017 -3.1400  1.1895 -0.7830
    9MOL   H279 3335   6.625   2.394   7.063 -0.2214  0.7219 -0.9454
    9MOL   H280 3336   6.443   2.607   7.191 -1.0882 -0.0058 -2.1491
    9MOL   H281 3337   6.368   2.473   6.955  0.8341  0.2471 -0.2557
    9MOL   H282 3338   6.261   2.541   7.077 -0.3074  0.4608  2.4035
    9MOL   H283 3339   6.313   2.373   7.069  2.5866 -0.4749 -0.7438
    9MOL   H284 3340   6.529   2.426   7.355  1.5961 -0.9446 -1.0958
    9MOL   H285 3341   6.454   2.305   7.262 -0.8402  0.0763 -0.8030
    9MOL   H286 3342   6.359   2.433   7.343  1.5950  1.6332  0.7142
    9MOL   C287 3343   6.846   2.351   7.243  0.3771  0.0935  0.4220
    9MOL   C288 3344   6.968   2.283   7.187  0.0243  0.3069 -0.2541
    9MOL   O289 3345   6.937   2.243   7.053  0.0291  0.0697  0.3972
    9MOL   C290 3346   7.051   2.231   6.964  0.0085  0.1121 -0.3758
    9MOL   C291 3347   6.998   2.188   6.828 -0.0470 -0.2724  0.4053
    9MOL   C292 3348   6.978   2.316   6.748  0.2682  0.2278  0.4380
    9MOL   C293 3349   6.861   2.112   6.823  0.2446  0.1058 -0.4303
    9MOL   H294 3350   6.760   2.284   7.232 -0.5683  1.3298  0.1093
    9MOL   H295 3351   6.867   2.364   7.349 -0.1916 -0.0086  0.5477
    9MOL   H296 3352   7.046   2.359   7.182 -1.6694  2.0285 -1.3056
    9MOL   H297 3353   7.105   2.325   6.968 -1.1449  0.7253  1.3984
    9MOL   H298 3354   7.129   2.163   6.998 -0.2906  1.0577  2.3349
    9MOL   H299 3355   7.073   2.123   6.784  1.2856  1.4647  0.0556
    9MOL   H300 3356   6.893   2.374   6.784  0.2148  1.5780 -1.7804
    9MOL   H301 3357   6.956   2.292   6.644 -0.6293 -1.5589  1.0276
    9MOL   H302 3358   7.060   2.389   6.756  1.4851 -0.9316 -1.1580
    9MOL   H303 3359   6.838   2.078   6.722  2.1155 -0.8806 -0.5454
    9MOL   H304 3360   6.858   2.030   6.895 -0.2561 -0.5299 -1.1673
    9MOL   H305 3361   6.784   2.182   6.855 -0.2559 -0.0462 -1.2950
    9MOL   C306 3362   7.020   2.162   7.271  0.0380 -0.3463 -0.2973
    9MOL   C307 3363   7.053   2.197   7.413 -0.6087  0.2402 -0.7647
    9MOL   O308 3364   6.941   2.201   7.498 -0.2767 -0.6288  0.5544
    9MOL   C309 3365   6.939   2.275   7.613  0.3491 -0.1446  0.0089
    9MOL   C310 3366   6.844   2.200   7.706  0.9680 -0.5416 -0.7024
    9MOL   C311 3367   6.719   2.287   7.736 -0.6393  0.7663 -0.3676
    9MOL   C312 3368   6.921   2.161   0.010  0.3968  0.7766  0.0832
    9MOL   H313 3369   7.106   2.117   7.221  1.0532 -1.7013  2.5693
    9MOL   H314 3370   6.933   2.096   7.273 -1.3648  1.5122  2.0932
    9MOL   H315 3371   7.086   2.300   7.406  0.6076  0.1119  2.1783
    9MOL   H316 3372   6.900   2.373   7.585  1.5854  0.9611  1.9767
    9MOL   H317 3373   7.044   2.284   7.642  0.5657 -2.4009 -0.0049
    9MOL   H318 3374   6.816   2.107   7.656  0.0682 -0.6045 -0.1098
    9MOL   H319 3375   6.745   2.374   7.797  0.2305  0.5665 -0.4453
    9MOL   H320 3376   6.641   2.227   7.784 -0.2839 -0.6944 -1.5958
    9MOL   H321 3377   6.680   2.338   7.648  2.4867  2.9080 -0.6056
    9MOL   H322 3378   6.940   2.254   0.063 -2.0877  1.5676 -0.3538
    9MOL   H323 3379   7.009   2.102   7.807 -1.8566 -2.9293  0.4071
    9MOL   H324 3380   6.855   2.097   0.069  3.2963 -1.8144  0.6544
    9MOL   C325 3381   7.155   2.097   7.493  0.2090  0.1668 -0.4528
    9MOL   C326 3382   7.299   2.153   7.473 -0.4389 -0.5809 -0.3433
    9MOL   O327 3383   7.317   2.274   7.547  0.4425 -0.6462 -0.8197
    9MOL   C328 3384   7.415   2.371   7.509  0.1202  0.4670 -0.5330
    9MOL   C329 3385   7.383   2.515   7.559  0.0203 -0.2016 -0.3273
    9MOL   C330 3386   7.244   2.567   7.517 -0.1160 -0.3163  0.2575
    9MOL   C331 3387   7.403   2.530   7.713 -0.1970 -0.2727  0.1561
    9MOL   H332 3388   7.156   1.994   7.459  0.3774  0.7150 -2.1516
    9MOL   H333 3389   7.142   2.086   7.601 -3.2792 -1.3152 -0.9746
    9MOL   H334 3390   7.310   2.182   7.369 -0.8123  1.7106  0.2169
    9MOL   H335 3391   7.515   2.345   7.541 -0.6857 -1.9653  0.1378
    9MOL   H336 3392   7.419   2.368   7.400  0.7245 -1.3451 -0.4843
    9MOL   H337 3393   7.452   2.584   7.511 -0.1493  0.1250 -0.0990
    9MOL   H338 3394   7.219   2.574   7.411 -0.1602  3.2752  0.4650
    9MOL   H339 3395   7.161   2.504   7.551  1.5029 -2.1552  0.9125
    9MOL   H340 3396   7.236   2.669   7.554  0.5665  0.0044 -0.4850
    9MOL   H341 3397   7.498   2.482   7.737  0.1152 -0.0430 -0.5994
    9MOL   H342 3398   7.413   2.635   7.741  1.0138 -0.1333 -0.7272
    9MOL   H343 3399   7.339   2.463   7.770  2.0068 -4.0640 -1.6650
    9MOL   C344 3400   7.410   2.044   7.512  0.0878  0.6520  0.3688
    9MOL   C345 3401   7.415   1.937   7.404 -0.2280  0.5512 -0.0633
    9MOL   O346 3402   7.462   2.015   7.293 -0.4996  0.0221 -0.0066
    9MOL   C347 3403   7.396   1.983   7.170  0.9712 -0.0101  0.0156
    9MOL   C348 3404   7.481   2.053   7.060  1.2249  0.2048  0.1324
    9MOL   C349 3405   7.469   2.204   7.066 -0.1078  0.0737  0.3077
    9MOL   C350 3406   7.425   2.010   6.921 -0.7172 -0.2905 -0.7991
    9MOL   H351 3407   7.391   2.007   7.613 -0.7984 -0.9406 -0.3576
    9MOL   H352 3408   7.509   2.090   7.513  0.7721 -0.7789 -0.2816
    9MOL   H353 3409   7.321   1.888   7.380  0.3226  0.0486 -1.1944
    9MOL   H354 3410   7.291   2.012   7.176  0.9803  0.0120  0.0595
    9MOL   H355 3411   7.406   1.875   7.160 -2.3173 -0.5292  1.8803
    9MOL   H356 3412   7.584   2.024   7.079  1.2624  0.5770  0.4985
    9MOL   H357 3413   7.364   2.231   7.073  0.2346  1.5370  0.0323
    9MOL   H358 3414   7.511   2.252   6.977 -0.5915  2.0191  1.1134
    9MOL   H359 3415   7.525   2.246   7.149 -1.3045  0.0549  1.1283
    9MOL   H360 3416   7.426   1.901   6.915  1.4277 -0.3123 -0.4752
    9MOL   H361 3417   7.321   2.037   6.908 -0.8722 -1.1201 -1.3658
    9MOL   H362 3418   7.485   2.040   6.835 -0.3959  0.8848 -0.1770
    9MOL   C363 3419   7.520   1.821   7.438 -0.0450  0.0680 -0.1514
    9MOL   C364 3420   7.510   1.756   7.577  0.6873  0.5988 -0.2452
    9MOL   O365 3421   7.600   1.647   7.588  0.2542 -0.0118  0.4713
    9MOL   C366 3422   7.741   1.685   7.588  0.5418  0.0310  0.4775
    9MOL   C367 3423   7.816   1.583   7.677 -0.1485  0.5899 -0.3442
    9MOL   C368 3424   7.808   1.451   7.613  0.3969 -0.4145  0.0340
    9MOL   C369 3425   7.770   1.595   0.000  0.6854  0.6244  0.1095
    9MOL   H370 3426   7.531   1.749   7.357  1.6831  0.2765 -0.1100
    9MOL   H371 3427   7.618   1.867   7.426 -0.9093  1.6306 -1.5191
    9MOL   H372 3428   7.408   1.718   7.583  0.8120  0.5229  1.6286
    9MOL   H373 3429   7.779   1.661   7.489 -0.7992 -1.2168  0.2363
    9MOL   H374 3430   7.761   1.791   7.605  0.8768  0.0751 -0.1732
    9MOL   H375 3431   0.099   1.600   7.664 -0.1389  1.9079  1.3801
    9MOL   H376 3432   0.053   1.380   7.659 -0.0854 -0.5171  0.6091
    9MOL   H377 3433   7.816   1.454   7.505 -0.8526  0.4256 -0.0441
    9MOL   H378 3434   7.709   1.409   7.629  0.9421 -2.1763 -1.0724
    9MOL   H379 3435   7.662   1.583   0.007  0.5495  1.4632 -0.5283
    9MOL   H380 3436   7.777   1.703   0.015  3.0209  0.7595 -1.6534
    9MOL   H381 3437   7.817   1.532   0.076 -1.5256 -2.4038 -0.9395
    9MOL   H382 3438   7.535   1.829   7.653 -2.8925 -0.1647  1.7966
   10MOL     C1 3439   0.761   2.765   2.251  0.1277  0.3248 -0.3437
   10MOL     C2 3440   0.769   2.867   2.369 -0.9437 -0.8571  0.4357
   10MOL     O3 3441   0.641   2.933   2.351  0.3065  0.2352 -0.1236
   10MOL     C4 3442   0.636   3.059   2.402 -0.5826 -0.1713 -0.4865
   10MOL     C5 3443   0.495   3.106   2.413  0.2008  0.4190 -0.0995
   10MOL     C6 3444   0.396   2.992   2.450 -1.0741 -0.4104  0.4334
   10MOL     C7 3445   0.458   3.158   2.277  0.5765  0.2471  0.1934
   10MOL     H8 3446   0.735   2.824   2.164 -1.0596  2.6886  1.5514
   10MOL     H9 3447   0.851   2.705   2.238  0.4698  0.2713  1.9394
   10MOL    H10 3448   0.847   2.938   2.341 -0.9677 -1.0540 -0.1500
   10MOL    H11 3449   0.693   3.112   2.326  1.0628 -1.6799 -0.3537
   10MOL    H12 3450   0.667   3.068   2.506  1.6759 -1.4609 -1.0111
   10MOL    H13 3451   0.487   3.189   2.483 -1.0247 -0.2475  0.5698
   10MOL    H14 3452   0.385   2.919   2.370  0.2557  0.0529 -0.1785
   10MOL    H15 3453   0.437   2.942   2.538 -1.3226  1.5445  1.6870
   10MOL    H16 3454   0.292   3.021   2.467 -1.5440 -1.3393 -0.7523
   10MOL    H17 3455   0.485   3.107   2.184  0.8217 -0.2959  0.5606
   10MOL    H18 3456   0.350   3.170   2.268  0.8255  1.4746 -1.6264
   10MOL    H19 3457   0.506   3.255   2.264  1.4892 -0.2560 -0.2502
   10MOL    H20 3458   0.679   2.697   2.273 -1.0224  1.9337  0.4020
   10MOL    C21 3459   0.777   2.804   2.510  0.1982 -0.2873 -0.4763
   10MOL    C22 3460   0.903   2.713   2.527  1.0881 -0.0982  0.1322
   10MOL    O23 3461   0.892   2.587   2.451  0.2323 -0.2563  0.5156
   10MOL    C24 3462   0.810   2.486   2.499 -0.6142 -0.3841  0.2390
   10MOL    C25 3463   0.882   2.353   2.480  0.0684  0.6737  0.0136
   10MOL    C26 3464   0.916   2.326   2.333 -0.4000  0.6111  0.3122
   10MOL    C27 3465   0.999   2.355   2.576  0.7228 -1.3106  0.2832
   10MOL    H28 3466   0.787   2.879   2.588  0.2605 -1.4423  0.6510
   10MOL    H29 3467   0.683   2.751   2.521  0.1990 -0.2398 -0.2428
   10MOL    H30 3468   0.921   2.698   2.634 -1.6494  2.4954  1.0295
   10MOL    H31 3469   0.718   2.495   2.441  0.4864  1.5988 -1.2737
   10MOL    H32 3470   0.784   2.502   2.604 -2.4903  1.1276 -0.4167
   10MOL    H33 3471   0.818   2.270   2.510 -2.4373  1.7142 -2.1866
   10MOL    H34 3472   0.944   2.224   2.308 -1.7170  0.0372  1.1541
   10MOL    H35 3473   0.990   2.394   2.290 -0.6785 -1.5654 -3.7881
   10MOL    H36 3474   0.827   2.351   2.275 -0.4107 -1.3969 -0.5663
   10MOL    H37 3475   1.027   2.251   2.597  1.2930 -0.6908  2.7020
   10MOL    H38 3476   1.090   2.398   2.535  1.7856 -3.4879  0.2648
   10MOL    H39 3477   0.973   2.402   2.670  2.5386  1.0170 -0.3305
   10MOL    C40 3478   1.035   2.774   2.471  0.8225 -0.3977  0.0271
   10MOL    C41 3479   1.160   2.689   2.493 -0.3031 -0.0258 -0.3148
   10MOL    O42 3480   1.171   2.681   2.637 -0.3527  0.5597  0.5820
   10MOL    C43 3481   1.266   2.590   2.681 -0.0416  0.1384 -0.0843
   10MOL    C44 3482   1.296   2.620   2.824  0.5315  0.2964 -0.1810
   10MOL    C45 3483   1.343   2.764   2.844 -0.3132 -0.3625 -0.1476
   10MOL    C46 3484   1.176   2.595   2.909 -0.0337  0.1197  0.2550
   10MOL    H47 3485   1.060   2.873   2.510 -1.8332  0.3342 -0.0507
   10MOL    H48 3486   1.034   2.790   2.364  1.2542  0.0786  0.0888
   10MOL    H49 3487   1.128   2.594   2.451 -2.8934 -0.1724  1.8883
   10MOL    H50 3488   1.364   2.606   2.637 -0.9645  0.7779 -2.0199
   10MOL    H51 3489   1.242   2.490   2.646 -4.2633  1.6965 -2.0999
   10MOL    H52 3490   1.375   2.551   2.852 -1.3509 -2.6879 -1.8259
   10MOL    H53 3491   1.261   2.834   2.823  1.8648  1.3391 -3.3837
   10MOL    H54 3492   1.381   2.781   2.945  0.9248 -3.5754 -0.0491
   10MOL    H55 3493   1.417   2.808   2.777 -1.1634 -0.0708 -0.9100
   10MOL    H56 3494   1.089   2.648   2.871 -0.0183 -0.2082 -0.2491
   10MOL    H57 3495   1.193   2.615   3.015  0.3353  2.3115 -0.1945
   10MOL    H58 3496   1.142   2.492   2.899  2.1236 -0.5010 -1.1828
   10MOL    C59 3497   1.286   2.737   2.416  0.3141 -0.5967 -0.0969
   10MOL    C60 3498   1.287   2.760   2.269 -0.3279 -0.2133  0.8347
   10MOL    O61 3499   1.258   2.635   2.213 -0.4625 -0.2500 -0.3502
   10MOL    C62 3500   1.191   2.639   2.094  0.1652  0.0003  0.2087
   10MOL    C63 3501   1.165   2.503   2.037 -0.1014 -0.0353  0.4083
   10MOL    C64 3502   1.047   2.517   1.939 -0.3369  0.4165  1.1466
   10MOL    C65 3503   1.285   2.438   1.970 -0.0878 -0.2569  0.3327
   10MOL    H66 3504   1.363   2.664   2.437 -1.1315 -1.9222  0.7497
   10MOL    H67 3505   1.309   2.834   2.460  0.2006 -0.6443  0.0689
   10MOL    H68 3506   1.214   2.837   2.242 -0.2181  0.1664  1.5946
   10MOL    H69 3507   1.097   2.690   2.114  0.6284  0.8344  0.3130
   10MOL    H70 3508   1.243   2.698   2.018  1.7117 -2.3933 -0.6624
   10MOL    H71 3509   1.129   2.447   2.124 -2.1336  1.0962  0.3159
   10MOL    H72 3510   0.958   2.545   1.995 -2.5331  1.3030 -2.6649
   10MOL    H73 3511   1.006   2.426   1.895 -1.6604  1.3159  0.5052
   10MOL    H74 3512   1.051   2.588   1.857 -2.6395  0.5415  1.1226
   10MOL    H75 3513   1.315   2.501   1.887  0.7426 -0.3549  0.5593
   10MOL    H76 3514   1.365   2.417   2.041  0.8666 -0.3800 -0.7719
   10MOL    H77 3515   1.241   2.345   1.932  1.5777 -0.4099 -1.2581
   10MOL    C78 3516   1.429   2.791   2.221  0.0511  0.1199  0.4292
   10MOL    C79 3517   1.455   2.944   2.214 -0.3258 -0.1845 -0.1594
   10MOL    O80 3518   1.472   2.981   2.354  0.5107 -0.1975 -0.1463
   10MOL    C81 3519   1.461   3.122   2.378  0.1329  0.0403 -0.3067
   10MOL    C82 3520   1.513   3.152   2.516 -0.0384 -0.6525  0.4792
   10MOL    C83 3521   1.660   3.180   2.517 -0.0752  0.1399  0.1474
   10MOL    C84 3522   1.464   3.049   2.615 -0.1119 -0.3113  0.3452
   10MOL    H85 3523   1.455   2.749   2.124 -1.8600  1.5689 -0.7612
   10MOL    H86 3524   1.491   2.744   2.297  1.0164  0.2238 -0.2854
   10MOL    H87 3525   1.370   3.003   2.179 -0.9378 -0.2576  1.1685
   10MOL    H88 3526   1.513   3.177   2.299 -0.2479  0.3502 -0.3425
   10MOL    H89 3527   1.357   3.155   2.377 -0.5207 -1.9788 -0.0075
   10MOL    H90 3528   1.473   3.246   2.552 -1.5798 -0.7657 -0.8972
   10MOL    H91 3529   1.698   3.224   2.609 -2.3538 -0.8784  1.6468
   10MOL    H92 3530   1.668   3.249   2.433 -0.6086  0.9901  0.7847
   10MOL    H93 3531   1.718   3.092   2.487  0.4591  0.8361 -0.8666
   10MOL    H94 3532   1.355   3.056   2.615 -0.3127 -2.8069  1.6774
   10MOL    H95 3533   1.506   3.072   2.713 -0.6928  1.0662  0.2723
   10MOL    H96 3534   1.488   2.949   2.578  1.0580 -0.0766  0.4665
   10MOL    C97 3535   1.578   2.984   2.121 -0.2216  0.3068  0.4663
   10MOL    C98 3536   1.725   2.958   2.150 -0.0776  0.5716 -0.8746
   10MOL    O99 3537   1.813   3.051   2.092 -0.6776 -0.5624  0.3608
   10MOL   C100 3538   1.829   3.165   2.176  0.0933 -0.3022  0.6219
   10MOL   C101 3539   1.937   3.256   2.111  0.5891 -0.3090 -0.2268
   10MOL   C102 3540   2.083   3.221   2.119  0.0972  0.3146  0.6504
   10MOL   C103 3541   1.894   3.304   1.970 -0.2760  0.0923  0.4271
   10MOL   H104 3542   1.560   3.091   2.120  1.0846  0.5301 -0.6577
   10MOL   H105 3543   1.569   2.953   2.017  2.1698  1.6428 -0.1947
   10MOL   H106 3544   1.741   2.948   2.257  1.2877 -2.2536 -1.2698
   10MOL   H107 3545   1.878   3.130   2.267  1.6953 -0.4515 -0.2766
   10MOL   H108 3546   1.734   3.210   2.202 -1.7855 -3.2755 -0.7558
   10MOL   H109 3547   1.932   3.350   2.165 -0.0630 -0.5892  0.2040
   10MOL   H110 3548   2.108   3.148   2.042  0.1230  0.6094  0.3802
   10MOL   H111 3549   2.149   3.304   2.094 -0.0045  0.2813  0.2746
   10MOL   H112 3550   2.104   3.174   2.216 -0.2593 -0.6748  0.2576
   10MOL   H113 3551   1.840   3.230   1.911  0.5004  1.1410 -1.6267
   10MOL   H114 3552   1.823   3.383   1.990 -1.2162 -0.5760 -0.2335
   10MOL   H115 3553   1.973   3.349   1.910  1.2480 -0.8641  1.6558
   10MOL   C116 3554   1.769   2.831   2.081 -0.0954 -0.5928  1.0223
   10MOL   C117 3555   1.900   2.766   2.131  0.0297 -0.2686 -0.2006
   10MOL   O118 3556   1.886   2.631   2.094  0.4609 -0.1305  1.0894
   10MOL   C119 3557   1.839   2.543   2.189  0.5896 -0.0243 -0.3476
   10MOL   C120 3558   1.849   2.398   2.137  0.5989 -0.4712 -0.0876
   10MOL   C121 3559   1.759   2.381   2.008  0.0797  0.4077 -0.6895
   10MOL   C122 3560   1.998   2.363   2.126 -0.4196 -0.3760 -0.0013
   10MOL   H123 3561   1.683   2.771   2.111  0.9264 -1.6518  1.8933
   10MOL   H124 3562   1.769   2.827   1.972 -0.0064 -4.0590  1.0883
   10MOL   H125 3563   1.895   2.777   2.239  1.2180  0.0975 -0.1697
   10MOL   H126 3564   1.735   2.545   2.221  0.2855 -2.1460 -1.1235
   10MOL   H127 3565   1.907   2.558   2.273  1.3423  1.4976 -1.2019
   10MOL   H128 3566   1.802   2.343   2.219  0.4242  1.1817  0.9349
   10MOL   H129 3567   1.655   2.362   2.035 -0.0368  1.5295 -0.3339
   10MOL   H130 3568   1.784   2.295   1.946  2.6439  1.9132 -1.8072
   10MOL   H131 3569   1.757   2.465   1.939 -2.5764 -0.9358 -2.3300
   10MOL   H132 3570   2.039   2.431   2.052 -0.3502  2.1092  2.2631
   10MOL   H133 3571   2.059   2.389   2.213 -2.1149 -0.8619  1.3790
   10MOL   H134 3572   2.008   2.254   2.117 -0.7909 -0.4344  0.2431
   10MOL   C135 3573   2.029   2.842   2.073 -0.3506 -0.0266  0.6273
   10MOL   C136 3574   2.164   2.786   2.124  0.7342 -0.8116  1.2421
   10MOL   O137 3575   2.274   2.843   2.054  0.3019  0.5270 -0.3544
   10MOL   C138 3576   2.313   2.783   1.931 -0.0789  0.5944 -0.6398
   10MOL   C139 3577   2.441   2.861   1.886 -0.3236 -0.5107  0.6993
   10MOL   C140 3578   2.401   3.014   1.862 -0.4196  0.4156  0.2464
   10MOL   C141 3579   2.558   2.852   1.994  0.0360 -0.0452  0.4037
   10MOL   H142 3580   2.029   2.827   1.965  1.5926 -2.3453  0.9011
   10MOL   H143 3581   2.030   2.949   2.093 -1.5053  0.2558 -0.7241
   10MOL   H144 3582   2.167   2.680   2.098 -2.0573 -0.5006 -0.6655
   10MOL   H145 3583   2.234   2.790   1.856 -0.0654 -2.3102 -1.0004
   10MOL   H146 3584   2.338   2.678   1.945  1.8424  1.1440  0.2504
   10MOL   H147 3585   2.479   2.807   1.799  2.8740  2.0497  0.3978
   10MOL   H148 3586   2.490   3.070   1.833  1.5992 -3.7019 -2.0074
   10MOL   H149 3587   2.360   3.056   1.954  1.2647  1.2276  0.6549
   10MOL   H150 3588   2.323   3.042   1.791  1.4484 -0.4063 -2.1944
   10MOL   H151 3589   2.645   2.916   1.978 -0.0251 -0.0004  0.2520
   10MOL   H152 3590   2.521   2.863   2.096  0.0234  0.5522  0.3343
   10MOL   H153 3591   2.603   2.752   1.990  0.4153  0.0040  2.8932
   10MOL   C154 3592   2.185   2.808   2.280 -0.3181  0.2499  0.8708
   10MOL   C155 3593   2.314   2.752   2.336 -0.1235 -0.4977 -0.2331
   10MOL   O156 3594   2.316   2.791   2.471  0.0108  0.4219  0.0594
   10MOL   C157 3595   2.387   2.905   2.506  0.2493 -0.1158  0.1372
   10MOL   C158 3596   2.394   2.921   2.662 -0.0709  0.7048  0.2659
   10MOL   C159 3597   2.430   2.786   2.722  0.0588 -0.1873  0.0873
   10MOL   C160 3598   2.486   3.035   2.712 -0.2852 -0.3625  0.3946
   10MOL   H161 3599   2.109   2.758   2.339 -2.7886  1.3104 -1.3089
   10MOL   H162 3600   2.180   2.910   2.318  2.2224  0.1578  1.5161
   10MOL   H163 3601   2.405   2.782   2.285  0.0920  1.0737  1.0018
   10MOL   H164 3602   2.339   2.994   2.465  2.3508  0.0598 -2.0974
   10MOL   H165 3603   2.481   2.892   2.452 -0.2916 -2.2767 -0.3259
   10MOL   H166 3604   2.304   2.954   2.713  2.0831  1.3030  3.8735
   10MOL   H167 3605   2.534   2.765   2.697 -0.4309 -1.0603 -1.3199
   10MOL   H168 3606   2.373   2.702   2.681  1.0175 -0.1094 -1.4698
   10MOL   H169 3607   2.426   2.792   2.830  1.0026  2.6218 -0.0031
   10MOL   H170 3608   2.491   3.106   2.630  0.7169 -1.9481 -0.9398
   10MOL   H171 3609   2.454   3.073   2.809 -0.1292  1.0006 -0.0879
   10MOL   H172 3610   2.585   3.000   2.740  0.1457 -0.5647 -1.3212
   10MOL   C173 3611   2.313   2.591   2.339  0.0095 -0.1712 -0.2097
   10MOL   C174 3612   2.454   2.525   2.358 -0.8157 -0.1892  0.4516
   10MOL   O175 3613   2.412   2.393   2.395  0.1139 -0.2888 -0.0448
   10MOL   C176 3614   2.401   2.349   2.529  0.6800 -0.6385 -0.0342
   10MOL   C177 3615   2.355   2.203   2.547  0.3969 -0.1001 -0.1490
   10MOL   C178 3616   2.235   2.173   2.462  0.0521  0.1735  0.0563
   10MOL   C179 3617   2.479   2.121   2.524  0.0951  0.6503  0.0690
   10MOL   H180 3618   2.255   2.561   2.426  3.9540  0.6849  2.8477
   10MOL   H181 3619   2.278   2.552   2.243  1.2189 -1.6602 -0.0563
   10MOL   H182 3620   2.502   2.573   2.443 -1.3280  2.1238 -0.5203
   10MOL   H183 3621   2.321   2.408   2.574 -0.2937 -0.7480 -1.5912
   10MOL   H184 3622   2.483   2.376   2.596 -0.7046 -3.2611  2.8364
   10MOL   H185 3623   2.330   2.188   2.653 -0.3569  0.9545 -0.1624
   10MOL   H186 3624   2.218   2.065   2.462  1.0841  0.0069  0.0887
   10MOL   H187 3625   2.145   2.218   2.503 -0.2953  0.6637 -1.2182
   10MOL   H188 3626   2.248   2.199   2.357 -0.4733 -1.2300 -0.3688
   10MOL   H189 3627   2.522   2.133   2.425  2.3331  0.5623  1.0025
   10MOL   H190 3628   2.455   2.016   2.543 -1.8597  1.3633  1.8115
   10MOL   H191 3629   2.561   2.141   2.592 -0.0817  1.4234  0.0549
   10MOL   C192 3630   2.551   2.515   2.228  0.4865 -0.4272 -0.8409
   10MOL   C193 3631   2.679   2.430   2.237  0.8346  0.2719 -0.4832
   10MOL   O194 3632   2.792   2.490   2.313 -0.2008  0.3405  0.7617
   10MOL   C195 3633   2.771   2.498   2.449 -0.3267  0.5024 -0.1275
   10MOL   C196 3634   2.895   2.456   2.531  0.6758  0.0771 -0.2215
   10MOL   C197 3635   2.868   2.355   2.638  1.0182  0.0240  0.2708
   10MOL   C198 3636   2.983   2.572   2.592 -0.2029  0.1681 -0.2926
   10MOL   H199 3637   2.574   2.611   2.183 -0.1216  0.7270  1.2619
   10MOL   H200 3638   2.489   2.467   2.153  0.7326 -1.5993 -0.3059
   10MOL   H201 3639   2.647   2.330   2.265 -1.7733  1.0890 -0.4461
   10MOL   H202 3640   2.688   2.434   2.479  0.2478 -1.3556 -2.3799
   10MOL   H203 3641   2.752   2.600   2.482 -0.6474  0.7955 -1.1891
   10MOL   H204 3642   2.958   2.414   2.453  0.1194  1.1665 -1.2713
   10MOL   H205 3643   2.815   2.269   2.598  0.8773  0.1572  0.1750
   10MOL   H206 3644   2.959   2.303   2.669  0.3249 -0.8316  0.9098
   10MOL   H207 3645   2.822   2.396   2.728  1.4400  0.2368  0.3910
   10MOL   H208 3646   2.986   2.659   2.527 -0.2168 -1.7320 -2.9036
   10MOL   H209 3647   2.952   2.600   2.693  2.5819 -0.5670  0.8054
   10MOL   H210 3648   3.086   2.541   2.607  0.0296  1.2117  0.3025
   10MOL   C211 3649   2.738   2.387   2.099  1.1734  0.0939 -0.0451
   10MOL   C212 3650   2.847   2.277   2.092 -0.3705 -0.2760 -0.6600
   10MOL   O213 3651   2.778   2.162   2.144 -0.0248  0.0749 -1.1756
   10MOL   C214 3652   2.841   2.076   2.235 -0.5715 -0.1231  0.0689
   10MOL   C215 3653   2.774   1.940   2.245 -0.2786  0.1964 -0.0737
   10MOL   C216 3654   2.776   1.859   2.111 -1.2508 -0.0371 -0.0124
   10MOL   C217 3655   2.834   1.858   2.362  0.2950 -0.5578  0.1780
   10MOL   H218 3656   2.772   2.481   2.056 -0.2787  1.4697  1.7311
   10MOL   H219 3657   2.648   2.365   2.040  1.0011 -0.7978  0.5476
   10MOL   H220 3658   2.931   2.304   2.156 -1.2165  1.2806 -0.1712
   10MOL   H221 3659   2.834   2.126   2.331 -0.1173  0.2583 -0.0924
   10MOL   H222 3660   2.947   2.070   2.212 -0.7373  0.8096 -0.9862
   10MOL   H223 3661   2.672   1.969   2.273 -0.0569  0.5347  0.4011
   10MOL   H224 3662   2.706   1.777   2.125 -2.4795  1.0112  0.0557
   10MOL   H225 3663   2.742   1.912   2.022  0.7630  0.4215 -0.5367
   10MOL   H226 3664   2.879   1.826   2.101 -1.0763 -0.7690  3.6650
   10MOL   H227 3665   2.863   1.924   2.444  1.2643 -2.7862  1.6794
   10MOL   H228 3666   2.922   1.804   2.327 -1.2164 -2.5539 -0.6503
   10MOL   H229 3667   2.766   1.781   2.401 -1.1821 -0.0417 -1.3405
   10MOL   C230 3668   2.893   2.233   1.950 -0.6489  0.2928 -0.8190
   10MOL   C231 3669   2.958   2.352   1.873  0.5458 -0.0258 -0.9111
   10MOL   O232 3670   2.858   2.443   1.822  0.0148  0.1194 -0.1089
   10MOL   C233 3671   2.776   2.407   1.713 -0.3593 -0.6945  0.3488
   10MOL   C234 3672   2.659   2.508   1.700 -0.7481 -0.5356 -0.4629
   10MOL   C235 3673   2.541   2.502   1.805  0.6407 -0.3594 -0.3224
   10MOL   C236 3674   2.712   2.649   1.689  0.5188 -0.0613 -0.1906
   10MOL   H237 3675   2.806   2.192   1.898 -0.4853  0.1247 -0.9628
   10MOL   H238 3676   2.966   2.154   1.968 -0.7868  0.1365 -0.9398
   10MOL   H239 3677   3.016   2.317   1.788  2.5603  1.4291 -0.1898
   10MOL   H240 3678   2.825   2.392   1.617 -0.5483 -2.5317  0.5219
   10MOL   H241 3679   2.726   2.312   1.733  0.0686 -1.0683 -0.3163
   10MOL   H242 3680   2.614   2.474   1.607  0.7972 -2.1482 -0.6497
   10MOL   H243 3681   2.495   2.404   1.820  0.5690 -0.2000  0.5157
   10MOL   H244 3682   2.470   2.580   1.780  1.3736  1.2312  2.3537
   10MOL   H245 3683   2.584   2.519   1.904 -0.3496  0.1182  0.0283
   10MOL   H246 3684   2.637   2.727   1.677  0.2333 -0.4074 -0.6586
   10MOL   H247 3685   2.762   2.675   1.782  0.7505 -1.7186  0.1544
   10MOL   H248 3686   2.782   2.665   1.607 -1.7896  2.5106 -1.7463
   10MOL   C249 3687   3.070   2.432   1.943 -0.3960 -0.5241 -0.5739
   10MOL   C250 3688   3.161   2.530   1.853  0.7154  0.1146 -0.6053
   10MOL   O251 3689   3.263   2.603   1.930  0.4622 -0.0889  0.1520
   10MOL   C252 3690   3.217   2.693   2.032 -0.4341  0.1259  1.1532
   10MOL   C253 3691   3.332   2.759   2.111 -1.1286 -0.3694  0.3390
   10MOL   C254 3692   3.346   2.710   2.256 -0.3029 -0.0800  0.0621
   10MOL   C255 3693   3.325   2.910   2.101  0.1309  0.3961 -0.2653
   10MOL   H256 3694   3.140   2.357   1.979 -0.0031  0.1758  0.1311
   10MOL   H257 3695   3.021   2.483   2.026 -1.8219  0.2036 -1.8442
   10MOL   H258 3696   3.088   2.594   1.805  0.0968 -0.7221 -0.7830
   10MOL   H259 3697   3.157   2.764   1.976 -2.2891 -1.7010  0.7709
   10MOL   H260 3698   3.149   2.644   2.102 -0.7740  1.7207  1.9605
   10MOL   H261 3699   3.419   2.737   2.049  0.6446  2.4310  1.7319
   10MOL   H262 3700   3.251   2.711   2.310 -0.0103  1.5370  0.5727
   10MOL   H263 3701   3.416   2.771   2.313  1.3292 -2.0206  0.1894
   10MOL   H264 3702   3.380   2.606   2.256 -1.0521 -0.3588  2.2885
   10MOL   H265 3703   3.307   2.950   2.001 -2.1284  1.7186  0.6478
   10MOL   H266 3704   3.245   2.950   2.162 -0.8268  0.1576 -1.3522
   10MOL   H267 3705   3.414   2.965   2.132 -0.5479  0.8481  0.9068
   10MOL   C268 3706   3.236   2.467   1.732 -0.2055  1.1947  0.3661
   10MOL   C269 3707   3.317   2.569   1.645  0.3288  0.0985  0.3144
   10MOL   O270 3708   3.236   2.671   1.595 -0.2417  0.1384  0.0476
   10MOL   C271 3709   3.243   2.799   1.652  0.4637 -0.0645  0.3391
   10MOL   C272 3710   3.132   2.888   1.595 -0.8776  0.6068  0.2536
   10MOL   C273 3711   3.149   2.919   1.446 -0.1116  0.0362  0.2888
   10MOL   C274 3712   3.004   2.820   1.629  0.2029 -0.1855  0.9673
   10MOL   H275 3713   3.174   2.410   1.663  0.9772  1.2188 -0.7480
   10MOL   H276 3714   3.299   2.389   1.774 -0.8505 -0.8180 -2.2831
   10MOL   H277 3715   3.391   2.622   1.705  1.2125  0.3285 -0.9644
   10MOL   H278 3716   3.230   2.798   1.760  1.0164 -0.8981  0.4017
   10MOL   H279 3717   3.341   2.830   1.613  1.1592 -2.9202 -0.2797
   10MOL   H280 3718   3.120   2.985   1.645  3.9353  1.8862 -0.8398
   10MOL   H281 3719   3.123   2.826   1.394  1.2715  0.2502 -0.8293
   10MOL   H282 3720   3.239   2.963   1.404 -0.9212  0.8798 -0.6004
   10MOL   H283 3721   3.071   2.992   1.421  0.1379 -0.7923 -3.2466
   10MOL   H284 3722   2.993   2.726   1.576  2.2332  1.0842 -1.8301
   10MOL   H285 3723   2.922   2.885   1.598  0.7762  0.3494  0.5620
   10MOL   H286 3724   2.990   2.801   1.736  2.2145  0.2874  1.3319
   10MOL   C287 3725   3.393   2.503   1.525 -0.3753  0.9499  0.6881
   10MOL   C288 3726   3.303   2.469   1.409 -0.0347 -0.5359  0.1226
   10MOL   O289 3727   3.249   2.342   1.434 -0.5596  0.1646 -0.2857
   10MOL   C290 3728   3.112   2.325   1.408  0.0250 -0.1004  0.4366
   10MOL   C291 3729   3.080   2.170   1.419 -0.1407 -0.1813  0.9313
   10MOL   C292 3730   2.944   2.130   1.366  0.5712 -0.2862 -0.1341
   10MOL   C293 3731   3.101   2.128   1.565 -0.0333 -0.3409  0.4740
   10MOL   H294 3732   3.445   2.411   1.551  0.2156  0.3572 -2.4418
   10MOL   H295 3733   3.467   2.571   1.483  1.2784 -0.8270  0.6603
   10MOL   H296 3734   3.222   2.543   1.407 -1.0115 -1.6059 -0.1045
   10MOL   H297 3735   3.053   2.395   1.468 -0.7101  0.2199 -0.6462
   10MOL   H298 3736   3.103   2.359   1.305  0.7961 -1.4243 -0.0847
   10MOL   H299 3737   3.158   2.119   1.362 -0.2642 -1.2545  1.7002
   10MOL   H300 3738   2.923   2.023   1.361  3.7851 -1.0352  1.2743
   10MOL   H301 3739   2.921   2.172   1.268 -0.8436 -0.5228  0.0755
   10MOL   H302 3740   2.861   2.168   1.425 -0.6670 -0.2632 -1.8427
   10MOL   H303 3741   3.009   2.136   1.624 -0.9372 -1.0050 -0.8144
   10MOL   H304 3742   3.114   2.021   1.573  1.5526 -0.2333 -0.4226
   10MOL   H305 3743   3.186   2.168   1.620  1.5642 -3.3078  0.2257
   10MOL   C306 3744   3.380   2.470   1.273 -0.3883 -0.2973 -0.0127
   10MOL   C307 3745   3.312   2.444   1.133 -0.7750  0.3403 -0.3422
   10MOL   O308 3746   3.206   2.540   1.123  0.0258  0.4037 -0.1313
   10MOL   C309 3747   3.119   2.500   1.022 -0.1804  0.7167 -0.2006
   10MOL   C310 3748   2.999   2.597   1.019  0.1158 -0.4576 -0.7206
   10MOL   C311 3749   2.903   2.576   1.134  0.2737  0.1338 -0.1679
   10MOL   C312 3750   2.918   2.586   0.887 -0.0075 -0.4432  0.5729
   10MOL   H313 3751   3.453   2.389   1.285 -2.1804 -2.1121 -1.0381
   10MOL   H314 3752   3.434   2.564   1.268 -1.6304  0.5392  1.8748
   10MOL   H315 3753   3.277   2.341   1.142  0.6524 -0.1929 -0.6655
   10MOL   H316 3754   3.091   2.395   1.035  1.0926  0.4933  0.8031
   10MOL   H317 3755   3.171   2.509   0.926 -1.2313 -1.4173 -1.0193
   10MOL   H318 3756   3.023   2.704   1.016  0.7470 -0.5078  1.8914
   10MOL   H319 3757   2.954   2.571   1.230 -1.0433 -0.4489  0.5138
   10MOL   H320 3758   2.855   2.479   1.125 -0.3456  0.5054 -0.8921
   10MOL   H321 3759   2.833   2.659   1.149  1.5061  1.4986 -1.7676
   10MOL   H322 3760   2.969   2.619   0.797  1.5384 -2.1203  0.8071
   10MOL   H323 3761   2.827   2.645   0.891  0.0450 -0.4929  2.8991
   10MOL   H324 3762   2.897   2.480   0.872  2.3121 -0.9272  0.5318
   10MOL   C325 3763   3.417   2.442   1.022  0.1970 -0.5770  0.1115
   10MOL   C326 3764   3.536   2.339   1.022 -1.0837  0.3798 -0.1479
   10MOL   O327 3765   3.476   2.211   0.999  1.1371  0.0421 -0.2316
   10MOL   C328 3766   3.558   2.100   1.043 -0.7603  0.2762  0.2008
   10MOL   C329 3767   3.486   1.960   1.024  0.1231 -0.3422  0.4465
   10MOL   C330 3768   3.460   1.925   0.881 -0.4378 -0.1873  0.1824
   10MOL   C331 3769   3.569   1.851   1.092 -0.0048 -0.1647 -0.1804
   10MOL   H332 3770   3.466   2.540   1.021  0.7161 -0.7674  3.2386
   10MOL   H333 3771   3.358   2.424   0.931  2.0394 -1.3074 -0.9532
   10MOL   H334 3772   3.591   2.338   1.116  0.6259 -0.0139 -1.1238
   10MOL   H335 3773   3.658   2.099   1.000  0.2747 -0.7218  2.5118
   10MOL   H336 3774   3.571   2.109   1.151  1.1695  1.8212 -0.1088
   10MOL   H337 3775   3.396   1.971   1.086 -1.4763 -0.9501 -1.7076
   10MOL   H338 3776   3.554   1.908   0.829 -0.7127 -1.4352  0.0817
   10MOL   H339 3777   3.394   1.839   0.865 -0.6482  0.0692 -0.3538
   10MOL   H340 3778   3.403   2.003   0.830 -1.5727 -1.7860 -1.0639
   10MOL   H341 3779   3.518   1.756   1.110 -0.5752  0.1568 -0.0717
   10MOL   H342 3780   3.654   1.839   1.025  0.5261  0.6237  0.3483
   10MOL   H343 3781   3.605   1.881   1.190  0.1523 -2.5790  0.5527
   10MOL   C344 3782   3.643   2.375   0.919 -0.7956 -0.2507 -0.1050
   10MOL   C345 3783   3.723   2.497   0.936 -0.0575  0.4626  0.5901
   10MOL   O346 3784   3.784   2.493   1.063  0.2659  0.4788  0.1364
   10MOL   C347 3785   3.762   2.609   1.149 -0.1570 -0.0638  0.0350
   10MOL   C348 3786   3.863   2.600   1.271  0.4921 -0.0596 -0.2233
   10MOL   C349 3787   4.013   2.600   1.219 -0.1262 -0.1275 -0.1819
   10MOL   C350 3788   3.835   2.486   1.371  0.6796 -0.4320 -0.0804
   10MOL   H351 3789   3.598   2.382   0.820  0.9948 -0.7397 -0.9806
   10MOL   H352 3790   3.723   2.304   0.938 -0.6960  0.3021  1.6008
   10MOL   H353 3791   3.654   2.580   0.923  0.0572  0.4753  0.0500
   10MOL   H354 3792   3.661   2.614   1.189  0.0101  0.6894  0.3660
   10MOL   H355 3793   3.788   2.706   1.108 -0.4700  0.7661  1.7372
   10MOL   H356 3794   3.855   2.696   1.322  0.6027  1.0614 -2.2319
   10MOL   H357 3795   4.090   2.580   1.293 -0.0021  0.2385 -0.2110
   10MOL   H358 3796   4.033   2.694   1.167 -0.6812  0.7160  1.0907
   10MOL   H359 3797   4.025   2.522   1.144  2.4186  1.1185 -1.1182
   10MOL   H360 3798   3.749   2.499   1.438  0.8595 -2.0326  0.4863
   10MOL   H361 3799   3.825   2.393   1.315 -0.1514 -0.0452 -0.5838
   10MOL   H362 3800   3.925   2.471   1.430 -0.1903 -1.6530  0.9515
   10MOL   C363 3801   3.846   2.522   0.838 -0.1919  0.0742  0.0948
   10MOL   C364 3802   3.816   2.610   0.718  0.5442  0.4919 -0.4280
   10MOL   O365 3803   3.706   2.554   0.644 -0.1616  0.3779  0.3129
   10MOL   C366 3804   3.708   2.611   0.509  0.7131 -0.1287  0.0922
   10MOL   C367 3805   3.574   2.574   0.437 -0.2026 -0.0878  0.3200
   10MOL   C368 3806   3.562   2.652   0.302 -0.2213  0.4515 -0.1888
   10MOL   C369 3807   3.454   2.619   0.509  0.1703 -0.5939  0.0137
   10MOL   H370 3808   3.926   2.571   0.893  0.6031 -0.5319 -0.5152
   10MOL   H371 3809   3.875   2.424   0.800  1.3701  0.7041 -0.3420
   10MOL   H372 3810   3.908   2.623   0.662  0.3218 -2.7742 -1.6525
   10MOL   H373 3811   3.732   2.717   0.523  2.4770 -0.5391  0.3858
   10MOL   H374 3812   3.790   2.569   0.451 -1.3702  0.4743 -3.3995
   10MOL   H375 3813   3.573   2.469   0.408 -1.0162  0.1754 -0.6240
   10MOL   H376 3814   3.558   2.760   0.295 -1.2037  0.4586  0.3030
   10MOL   H377 3815   3.476   2.612   0.248 -0.6098  1.3877 -0.2627
   10MOL   H378 3816   3.653   2.617   0.254 -0.4024 -0.2970  0.0062
   10MOL   H379 3817   3.458   2.587   0.613 -0.1066 -1.6043 -0.2831
   10MOL   H380 3818   3.353   2.596   0.474  1.1543 -3.0395 -1.3213
   10MOL   H381 3819   3.456   2.728   0.513 -0.9187 -0.6026  1.2253
   10MOL   H382 3820   3.792   2.712   0.750  0.2649 -0.3988  2.2990
   11MOL     C1 3821   6.382   6.489   4.535 -0.1423 -0.5501  0.0378
   11MOL     C2 3822   6.334   6.603   4.448  0.0361  0.1123 -0.6631
   11MOL     O3 3823   6.421   6.710   4.476  0.8131  0.4605 -0.3025
   11MOL     C4 3824   6.371   6.800   4.578  0.4727 -0.9563  0.4064
   11MOL     C5 3825   6.455   6.929   4.596  0.7610  0.4970 -0.1235
   11MOL     C6 3826   6.408   7.009   4.718 -0.1419 -0.9409  0.0345
   11MOL     C7 3827   6.467   7.005   4.466 -0.0023  0.3967 -0.3685
   11MOL     H8 3828   6.324   6.398   4.516 -1.5437 -0.2426  2.6722
   11MOL     H9 3829   6.485   6.466   4.505  0.1898  0.6833  0.2294
   11MOL    H10 3830   6.230   6.634   4.464  0.5246  0.5278  1.9016
   11MOL    H11 3831   6.356   6.748   4.672 -0.9879  0.7802  1.1505
   11MOL    H12 3832   6.273   6.828   4.540  0.7363 -1.6054 -0.7752
   11MOL    H13 3833   6.551   6.883   4.621  1.1296  1.3301  0.0443
   11MOL    H14 3834   6.301   7.031   4.725  0.0605  0.0351  0.0699
   11MOL    H15 3835   6.448   6.970   4.811 -1.7220 -0.7163  0.8148
   11MOL    H16 3836   6.465   7.101   4.709 -1.3021 -0.1964  0.1255
   11MOL    H17 3837   6.549   7.075   4.481  1.4582 -1.9844  3.3459
   11MOL    H18 3838   6.481   6.944   4.377  2.2343 -1.1229  0.9854
   11MOL    H19 3839   6.374   7.056   4.440  0.2871 -0.9286 -4.3535
   11MOL    H20 3840   6.374   6.499   4.643 -2.3324 -1.2527 -0.0401
   11MOL    C21 3841   6.360   6.574   4.297  0.1747  0.0321 -0.3419
   11MOL    C22 3842   6.291   6.437   4.238  0.5748 -0.2221  0.8643
   11MOL    O23 3843   6.152   6.432   4.269  0.2153  0.1431  0.6468
   11MOL    C24 3844   6.098   6.300   4.274  0.1956 -0.4063  1.2993
   11MOL    C25 3845   5.970   6.322   4.355  0.4041  0.1020  0.5969
   11MOL    C26 3846   6.000   6.400   4.488 -0.1877  0.1250  0.6433
   11MOL    C27 3847   5.868   6.389   4.268 -0.1901  0.2265 -0.1768
   11MOL    H28 3848   6.329   6.658   4.235 -0.2419  0.9739  1.1202
   11MOL    H29 3849   6.468   6.564   4.286  0.1975 -0.3638  0.1967
   11MOL    H30 3850   6.336   6.361   4.302  2.0521  0.2151  0.3515
   11MOL    H31 3851   6.160   6.230   4.329  1.6677  0.5635  0.9096
   11MOL    H32 3852   6.088   6.252   4.177  0.1687  0.8508  0.6647
   11MOL    H33 3853   5.930   6.224   4.379  1.5309 -0.7104 -0.7470
   11MOL    H34 3854   5.921   6.372   4.558  0.0765 -0.3093  0.7748
   11MOL    H35 3855   5.981   6.505   4.469 -1.7737 -0.6781 -2.4140
   11MOL    H36 3856   6.100   6.374   4.526  0.3778 -0.6008 -1.3020
   11MOL    H37 3857   5.809   6.335   4.195 -1.1801  0.6851  0.2813
   11MOL    H38 3858   5.798   6.448   4.328  0.9947  2.1624 -0.6729
   11MOL    H39 3859   5.914   6.469   4.210 -0.9675  0.8845  0.1115
   11MOL    C40 3860   6.309   6.408   4.087 -0.2086  0.8430 -0.5011
   11MOL    C41 3861   6.455   6.434   4.032 -0.2442  0.2591  0.5203
   11MOL    O42 3862   6.458   6.373   3.896  0.0267  0.2501 -0.0513
   11MOL    C43 3863   6.404   6.452   3.800 -0.8224  0.1537  0.5305
   11MOL    C44 3864   6.410   6.379   3.663  0.4520 -0.6613  0.7208
   11MOL    C45 3865   6.351   6.236   3.671  0.9134  0.4664 -0.3539
   11MOL    C46 3866   6.345   6.453   3.544 -0.8547  0.9110 -0.4062
   11MOL    H47 3867   6.221   6.442   4.032  0.4924  1.4208 -1.2769
   11MOL    H48 3868   6.295   6.300   4.080  1.0677  0.7424 -1.6651
   11MOL    H49 3869   6.468   6.541   4.020 -0.3882  0.2388  0.1609
   11MOL    H50 3870   6.466   6.542   3.801  0.6664 -0.8005 -1.7267
   11MOL    H51 3871   6.299   6.475   3.812 -0.1061  3.4717  0.9138
   11MOL    H52 3872   6.516   6.367   3.643  0.4113  1.0460 -0.7011
   11MOL    H53 3873   6.354   6.170   3.585 -0.6713  1.4266 -1.1628
   11MOL    H54 3874   6.395   6.177   3.752  1.9390  0.0583 -1.2013
   11MOL    H55 3875   6.250   6.247   3.709  0.4883 -0.9672 -1.0519
   11MOL    H56 3876   6.393   6.548   3.520  1.0536  0.1457  0.2316
   11MOL    H57 3877   6.243   6.480   3.570 -1.0585 -1.6852  1.6482
   11MOL    H58 3878   6.349   6.392   3.454 -1.1735  0.3781 -0.0622
   11MOL    C59 3879   6.579   6.370   4.104 -0.2421  0.1776  0.2791
   11MOL    C60 3880   6.713   6.435   4.062 -0.2724 -0.4221  0.2608
   11MOL    O61 3881   6.825   6.364   4.115  0.0183 -0.8503 -0.1861
   11MOL    C62 3882   6.854   6.236   4.061 -0.0703  0.7168 -0.9473
   11MOL    C63 3883   6.996   6.202   4.110 -0.0366 -0.3713 -0.0804
   11MOL    C64 3884   7.101   6.272   4.028  0.4034  0.7337 -0.0549
   11MOL    C65 3885   7.012   6.206   4.259  0.5247 -0.3214  0.0170
   11MOL    H66 3886   6.591   6.274   4.054  0.4927 -0.8463  2.3699
   11MOL    H67 3887   6.566   6.349   4.210  0.4769 -1.9839 -0.0308
   11MOL    H68 3888   6.707   6.428   3.953 -0.3479  1.5510  0.1265
   11MOL    H69 3889   6.778   6.165   4.095  1.6369 -0.7349 -0.0638
   11MOL    H70 3890   6.841   6.229   3.953 -1.9748 -1.5989 -0.6175
   11MOL    H71 3891   7.008   6.096   4.087 -1.2309 -0.1745 -1.6546
   11MOL    H72 3892   7.204   6.246   4.053 -0.4825 -0.7111  2.2591
   11MOL    H73 3893   7.097   6.380   4.038  1.3234  1.0258 -2.5340
   11MOL    H74 3894   7.100   6.244   3.922  0.0419 -1.5047  0.5209
   11MOL    H75 3895   6.944   6.136   4.308  1.1041 -0.4616  0.6195
   11MOL    H76 3896   7.115   6.176   4.279  0.4636  1.5121  3.4787
   11MOL    H77 3897   6.998   6.302   4.307  0.2436 -0.3477 -0.0122
   11MOL    C78 3898   6.729   6.577   4.127 -0.1468  0.0002  0.3204
   11MOL    C79 3899   6.856   6.650   4.078 -0.3257  0.3300  0.3824
   11MOL    O80 3900   6.838   6.700   3.942  0.1358 -0.6083 -0.3477
   11MOL    C81 3901   6.950   6.681   3.864  0.1322  0.2730 -0.6890
   11MOL    C82 3902   6.907   6.733   3.724  0.0844  0.4585  0.3411
   11MOL    C83 3903   6.794   6.645   3.660  0.7167 -0.1907  0.1862
   11MOL    C84 3904   7.020   6.735   3.624 -0.2960 -0.3014  0.3745
   11MOL    H85 3905   6.725   6.564   4.235 -1.8610  1.6887  0.4963
   11MOL    H86 3906   6.646   6.638   4.090 -1.5223 -1.9195  0.1493
   11MOL    H87 3907   6.940   6.581   4.083  1.1409  1.9854 -0.9658
   11MOL    H88 3908   7.037   6.738   3.897 -0.5205  0.2126  1.1581
   11MOL    H89 3909   6.977   6.575   3.871  1.0001  0.5778  0.6982
   11MOL    H90 3910   6.866   6.834   3.725  3.4939  1.8839  1.9498
   11MOL    H91 3911   6.779   6.660   3.553  2.5764 -1.2620 -0.2457
   11MOL    H92 3912   6.699   6.667   3.708  1.1049  0.2067  0.7825
   11MOL    H93 3913   6.811   6.538   3.673  1.2783 -0.2298 -0.8589
   11MOL    H94 3914   7.099   6.800   3.660  0.9675 -0.2775 -2.3535
   11MOL    H95 3915   6.980   6.768   3.528 -1.7936  0.2654  1.1711
   11MOL    H96 3916   7.072   6.644   3.596 -0.0274 -0.1963  0.5326
   11MOL    C97 3917   6.879   6.776   4.156  0.1164  0.1842 -0.6921
   11MOL    C98 3918   6.916   6.753   4.309 -0.2294  0.7706 -0.4048
   11MOL    O99 3919   6.935   6.879   4.371  0.6219 -0.2203 -0.3349
   11MOL   C100 3920   6.821   6.963   4.371 -0.1025  1.1205 -1.0461
   11MOL   C101 3921   6.856   7.091   4.452 -0.1305 -0.3682 -0.5352
   11MOL   C102 3922   6.916   7.052   4.592  0.9280  0.1337  0.1885
   11MOL   C103 3923   6.955   7.175   4.373  0.7772 -0.0519 -0.4953
   11MOL   H104 3924   6.782   6.824   4.148 -0.2686 -0.3045  0.9732
   11MOL   H105 3925   6.955   6.841   4.111 -0.4335  1.5195  0.3088
   11MOL   H106 3926   6.836   6.719   4.375  1.3831 -0.9550  0.7044
   11MOL   H107 3927   6.732   6.909   4.403  1.3204 -1.5287 -1.4500
   11MOL   H108 3928   6.803   6.991   4.267  0.6124 -0.7127 -1.6881
   11MOL   H109 3929   6.762   7.145   4.461  0.9014  1.1919  1.2514
   11MOL   H110 3930   6.845   6.996   4.653  1.2926  1.0837  1.5104
   11MOL   H111 3931   7.013   7.001   4.593  0.8041 -0.1009  1.1881
   11MOL   H112 3932   6.926   7.143   4.650  0.6978  0.7606 -0.7480
   11MOL   H113 3933   6.909   7.202   4.278  2.1893 -0.8071 -1.3972
   11MOL   H114 3934   6.989   7.262   4.428  0.6350 -0.0490 -0.4090
   11MOL   H115 3935   7.050   7.124   4.363  0.1488 -1.6033  1.1198
   11MOL   C116 3936   7.044   6.671   4.333  0.8616  0.5759  0.2609
   11MOL   C117 3937   7.071   6.652   4.484 -0.4313 -0.9925 -0.1746
   11MOL   O118 3938   6.964   6.578   4.531 -0.3490  0.0661 -0.5551
   11MOL   C119 3939   6.951   6.562   4.673 -0.3077 -0.5571  0.1612
   11MOL   C120 3940   6.812   6.522   4.705 -0.0051 -1.2383 -0.3497
   11MOL   C121 3941   6.778   6.535   4.856 -0.4396 -0.9299  0.0584
   11MOL   C122 3942   6.699   6.599   4.622 -0.5795 -1.3779  0.1126
   11MOL   H123 3943   7.027   6.572   4.291 -1.3264  0.7236  0.7775
   11MOL   H124 3944   7.126   6.723   4.283  0.4978  2.3128  1.4337
   11MOL   H125 3945   7.067   6.753   4.524 -0.8401 -0.2256 -2.1378
   11MOL   H126 3946   6.988   6.651   4.723 -0.9323 -1.2735  1.9456
   11MOL   H127 3947   7.015   6.476   4.694 -0.6008 -0.6867  0.5416
   11MOL   H128 3948   6.803   6.416   4.683 -0.9821 -1.1519 -0.3850
   11MOL   H129 3949   6.858   6.482   4.908  1.5341  0.7459 -1.2484
   11MOL   H130 3950   6.677   6.503   4.882 -0.8498 -2.5566 -3.3168
   11MOL   H131 3951   6.777   6.636   4.897 -1.3698 -0.9246  0.0385
   11MOL   H132 3952   6.711   6.707   4.622  0.7347 -1.4332  4.0967
   11MOL   H133 3953   6.707   6.569   4.517  1.5329  0.5365 -0.3270
   11MOL   H134 3954   6.596   6.576   4.647 -0.8901  0.6523  0.7503
   11MOL   C135 3955   7.205   6.573   4.506  0.4575 -0.2800  0.1936
   11MOL   C136 3956   7.340   6.632   4.467  0.5393 -0.2538  0.2066
   11MOL   O137 3957   7.383   6.620   4.332 -0.5973  0.0678  0.3096
   11MOL   C138 3958   7.400   6.482   4.292 -0.4036 -0.4162  0.4301
   11MOL   C139 3959   7.520   6.462   4.194  0.2884  0.7017  0.3606
   11MOL   C140 3960   7.638   6.552   4.224  0.2584  0.7070  0.0817
   11MOL   C141 3961   7.558   6.307   4.197  0.2654  0.2131  0.0007
   11MOL   H142 3962   7.215   6.545   4.611  2.2544  0.5965  0.2784
   11MOL   H143 3963   7.190   6.473   4.466  0.9783 -0.2177 -0.1587
   11MOL   H144 3964   7.412   6.576   4.527  1.1679 -0.2904 -0.5723
   11MOL   H145 3965   7.312   6.432   4.252  1.4780 -2.3061 -1.4348
   11MOL   H146 3966   7.406   6.416   4.378 -0.1194 -0.8427  0.0877
   11MOL   H147 3967   7.489   6.494   4.094 -1.6798 -1.1079  0.3612
   11MOL   H148 3968   7.614   6.658   4.233  1.0567  1.0804 -1.9584
   11MOL   H149 3969   7.713   6.541   4.146 -0.9367  0.2487 -1.0308
   11MOL   H150 3970   7.684   6.525   4.319 -0.5628  1.1518  0.6179
   11MOL   H151 3971   7.615   6.288   4.288 -1.1020  1.1740  1.0913
   11MOL   H152 3972   7.476   6.235   4.202  0.8699 -0.5199 -0.5834
   11MOL   H153 3973   7.606   6.275   4.105 -0.9067  0.8095 -0.8378
   11MOL   C154 3974   7.363   6.783   4.500 -0.5501  0.8533  0.2250
   11MOL   C155 3975   7.501   6.857   4.465 -0.3059 -0.2783  0.5045
   11MOL   O156 3976   7.500   6.995   4.501  0.7760 -0.1114 -0.5982
   11MOL   C157 3977   7.409   7.083   4.435  1.0065  0.4513  0.6602
   11MOL   C158 3978   7.459   7.217   4.467  0.0837 -0.1024  0.4584
   11MOL   C159 3979   7.370   7.323   4.391  0.0111  0.0243  0.3684
   11MOL   C160 3980   7.446   7.244   4.613  0.4014 -0.0342 -0.2355
   11MOL   H161 3981   7.340   6.789   4.606 -0.1275  0.5783  0.3358
   11MOL   H162 3982   7.291   6.838   4.439 -0.4317  0.4611 -0.2710
   11MOL   H163 3983   7.525   6.846   4.359  0.4579  0.7916  0.5571
   11MOL   H164 3984   7.307   7.086   4.473  1.7925  2.7001  2.6946
   11MOL   H165 3985   7.421   7.073   4.327  0.9071  0.9225  0.6016
   11MOL   H166 3986   7.564   7.224   4.438  0.2795 -1.7211  0.7249
   11MOL   H167 3987   7.408   7.421   4.417  0.7815 -0.2497  0.3136
   11MOL   H168 3988   7.263   7.318   4.411  0.1289  1.0429  1.2579
   11MOL   H169 3989   7.397   7.317   4.285 -1.1961  1.3222 -0.0277
   11MOL   H170 3990   7.507   7.171   4.665  1.3714  0.0669 -1.2031
   11MOL   H171 3991   7.469   7.346   4.644 -1.5619  0.2408  0.3509
   11MOL   H172 3992   7.345   7.225   4.648 -0.3848  2.0503 -1.2833
   11MOL   C173 3993   7.632   6.809   4.535 -0.4281  0.1862 -0.3079
   11MOL   C174 3994   7.624   6.819   4.690  0.4092 -0.5982  0.8664
   11MOL   O175 3995   7.542   6.725   4.745  0.0658 -0.7489  0.2366
   11MOL   C176 3996   7.478   6.755   4.878  0.0915  0.2060  0.4348
   11MOL   C177 3997   7.453   6.627   4.954  0.5017 -0.7370  0.1483
   11MOL   C178 3998   7.422   6.653   5.107 -0.0977  0.0299 -0.5580
   11MOL   C179 3999   7.350   6.543   4.876 -0.0017  0.3499 -0.3697
   11MOL   H180 4000   7.658   6.707   4.510 -0.7412  0.2108 -0.7504
   11MOL   H181 4001   7.723   6.852   4.494  0.0166 -1.9386 -1.6266
   11MOL   H182 4002   7.596   6.924   4.705 -0.4204 -0.6701 -0.0862
   11MOL   H183 4003   7.381   6.801   4.857 -0.8679 -2.1761 -0.5237
   11MOL   H184 4004   7.536   6.822   4.940 -0.7315  0.8456  0.5260
   11MOL   H185 4005   7.543   6.566   4.965  0.3374 -1.0136 -0.0447
   11MOL   H186 4006   7.337   6.719   5.095 -1.5885 -1.7423 -0.0580
   11MOL   H187 4007   7.401   6.565   5.169  0.8757 -2.0909 -3.1212
   11MOL   H188 4008   7.504   6.700   5.161 -1.4797  2.0327 -0.1702
   11MOL   H189 4009   7.323   6.450   4.927 -2.9356  1.2707 -0.1584
   11MOL   H190 4010   7.401   6.512   4.785 -0.4536  3.7963 -1.8419
   11MOL   H191 4011   7.255   6.593   4.859  0.4233  0.2910 -3.0115
   11MOL   C192 4012   7.764   6.807   4.767 -0.4751  0.3083 -1.0640
   11MOL   C193 4013   0.019   6.936   4.769  0.4333 -0.0612 -0.4487
   11MOL   O194 4014   0.153   6.902   4.807  0.7160 -0.0123  0.3087
   11MOL   C195 4015   0.245   6.872   4.707 -0.1682  0.4732 -0.0873
   11MOL   C196 4016   0.377   6.827   4.771  0.3806 -0.3423  0.2711
   11MOL   C197 4017   0.434   6.925   4.876  0.1976  0.5485 -0.3011
   11MOL   C198 4018   0.477   6.804   4.657 -0.0540 -0.2770  0.1034
   11MOL   H199 4019   7.811   6.728   4.709 -0.5797  0.2332 -1.0469
   11MOL   H200 4020   7.744   6.766   4.866 -0.0843  2.2390 -0.1687
   11MOL   H201 4021   0.023   6.969   4.665  0.7598 -0.3776 -0.5391
   11MOL   H202 4022   0.256   6.951   4.633  0.8070  0.1325 -0.3228
   11MOL   H203 4023   0.204   6.790   4.648 -0.4509  1.8247 -1.8087
   11MOL   H204 4024   0.361   6.729   4.816 -0.7533 -0.5260 -0.5042
   11MOL   H205 4025   0.505   6.993   4.829  1.5215 -0.3469  0.3484
   11MOL   H206 4026   0.361   6.986   4.930 -0.2350 -0.2140 -0.0133
   11MOL   H207 4027   0.500   6.890   4.956 -0.2145 -0.4423 -0.3843
   11MOL   H208 4028   0.448   6.735   4.578  1.7181  0.5182 -1.2767
   11MOL   H209 4029   0.481   6.902   4.610  0.5199 -0.4379 -0.1890
   11MOL   H210 4030   0.569   6.783   4.712 -1.1293  2.5166  3.1128
   11MOL   C211 4031   7.782   7.047   4.863 -0.0762  0.5725  0.1729
   11MOL   C212 4032   0.025   7.180   4.848  0.3355 -0.6370 -0.8832
   11MOL   O213 4033   7.781   7.276   4.934  0.2980 -0.1821  0.6255
   11MOL   C214 4034   7.676   7.356   4.871 -0.5480 -0.0610 -0.0871
   11MOL   C215 4035   7.629   7.463   4.968  0.1215 -0.2461  0.0155
   11MOL   C216 4036   7.554   7.570   4.891 -0.1017  0.1463 -0.6532
   11MOL   C217 4037   7.546   7.404   5.082 -0.3629 -0.2041 -0.5265
   11MOL   H218 4038   7.795   7.015   4.966 -0.8478  0.1493  0.1385
   11MOL   H219 4039   7.674   7.062   4.863  0.0505  1.5150 -0.0888
   11MOL   H220 4040   0.012   7.210   4.744 -0.7238 -0.3988 -0.6874
   11MOL   H221 4041   7.595   7.291   4.837 -2.5670  0.8964  2.6610
   11MOL   H222 4042   7.711   7.409   4.782 -0.6086  1.5810  0.8463
   11MOL   H223 4043   7.723   7.497   5.011 -0.1423 -0.7148  0.9801
   11MOL   H224 4044   7.618   7.658   4.878  0.5846 -0.0982  0.9620
   11MOL   H225 4045   7.530   7.527   4.794  0.3044  0.0621 -0.7164
   11MOL   H226 4046   7.464   7.605   4.942 -0.6721 -1.9518 -0.2070
   11MOL   H227 4047   7.445   7.371   5.058 -1.2279  0.9255  1.3753
   11MOL   H228 4048   7.535   7.480   5.160 -0.3465 -0.0780 -0.6478
   11MOL   H229 4049   7.604   7.320   5.119  0.0719 -0.6222 -2.1436
   11MOL   C230 4050   0.178   7.193   4.890 -0.1375  0.2666 -0.2339
   11MOL   C231 4051   0.231   7.336   4.919 -0.2460  0.1363 -1.1562
   11MOL   O232 4052   0.373   7.335   4.947 -0.7208 -0.4115 -0.0946
   11MOL   C233 4053   0.407   7.307   5.080  0.1085 -0.4185  0.1013
   11MOL   C234 4054   0.557   7.315   5.084 -0.1684  1.1189 -0.3417
   11MOL   C235 4055   0.620   7.301   5.219  0.8068 -0.6623 -0.4022
   11MOL   C236 4056   0.616   7.200   4.998 -0.0121 -1.3884 -0.5839
   11MOL   H237 4057   0.240   7.157   4.808 -1.6837 -3.3759  0.1079
   11MOL   H238 4058   0.193   7.133   4.980 -2.3658 -1.8090 -1.1862
   11MOL   H239 4059   0.180   7.375   5.007  1.7432 -0.8093  0.4448
   11MOL   H240 4060   0.368   7.381   5.151  2.8288 -2.2564  3.6999
   11MOL   H241 4061   0.373   7.210   5.118  0.3511 -0.0787  1.2045
   11MOL   H242 4062   0.595   7.411   5.047  1.0108  1.0329  0.6135
   11MOL   H243 4063   0.725   7.328   5.214  0.5737  0.5194  0.6502
   11MOL   H244 4064   0.597   7.202   5.259  0.2231 -0.4708 -0.2508
   11MOL   H245 4065   0.559   7.362   5.286  1.4223 -1.8054  1.2243
   11MOL   H246 4066   0.582   7.218   4.896  0.9030  0.0235 -0.6684
   11MOL   H247 4067   0.725   7.204   5.002 -0.1044  0.1893  1.0391
   11MOL   H248 4068   0.585   7.099   5.025  2.6320 -1.7335  1.3220
   11MOL   C249 4069   0.213   7.433   4.798 -0.3221  0.6053 -0.5536
   11MOL   C250 4070   0.268   7.579   4.806 -0.3059  0.0586 -0.2868
   11MOL   O251 4071   0.223   7.638   4.686 -0.1045 -0.2414 -0.2659
   11MOL   C252 4072   0.327   7.689   4.604  0.0113  0.1661 -0.8690
   11MOL   C253 4073   0.275   7.739   4.468  0.4353 -0.9087 -0.6359
   11MOL   C254 4074   0.168   0.021   4.496 -0.7606  0.0212 -0.2978
   11MOL   C255 4075   0.223   7.615   4.386  1.2243  1.3682 -0.0529
   11MOL   H256 4076   0.107   7.438   4.774 -0.3356  1.2340 -0.3787
   11MOL   H257 4077   0.267   7.391   4.714  0.6335  2.6880 -1.0198
   11MOL   H258 4078   0.377   7.575   4.806 -0.3071  0.0072 -1.1203
   11MOL   H259 4079   0.385   7.765   4.656 -0.2539  0.5267 -1.0906
   11MOL   H260 4080   0.392   7.603   4.590 -0.1402  0.1384 -1.3980
   11MOL   H261 4081   0.347   7.793   4.406  1.3527  1.4944  2.3773
   11MOL   H262 4082   0.218   0.112   4.529  1.3980 -0.7631 -1.3505
   11MOL   H263 4083   0.093   7.810   4.566  0.5509  1.9300  2.1747
   11MOL   H264 4084   0.107   0.047   4.409 -0.3131  1.7818 -0.1205
   11MOL   H265 4085   0.159   7.551   4.447  1.6100  0.1184 -0.9292
   11MOL   H266 4086   0.179   7.632   4.288  1.5370  0.9540 -0.2684
   11MOL   H267 4087   0.309   7.552   4.361  0.0952 -0.1254 -0.2735
   11MOL   C268 4088   0.214   7.659   4.925 -0.2696 -0.3720  0.1585
   11MOL   C269 4089   0.253   7.809   4.914  0.3896 -0.8488  0.3830
   11MOL   O270 4090   0.393   7.810   4.938  0.2227 -0.0069 -0.2672
   11MOL   C271 4091   0.463   0.114   4.917 -0.5793 -1.1408 -0.2194
   11MOL   C272 4092   0.615   0.096   4.926 -0.0115 -0.1872 -0.0599
   11MOL   C273 4093   0.652   0.057   5.070  0.8312 -0.5205 -0.8281
   11MOL   C274 4094   0.655   7.810   4.837  0.3581 -0.3517 -0.0395
   11MOL   H275 4095   0.240   7.613   5.021 -2.2821 -0.5169  0.6435
   11MOL   H276 4096   0.106   7.654   4.920 -0.5489  4.2245 -0.5652
   11MOL   H277 4097   0.222   0.025   4.818 -2.4669 -4.4404 -0.3160
   11MOL   H278 4098   0.418   0.154   4.826 -1.4621 -1.0708  0.2455
   11MOL   H279 4099   0.433   0.180   4.998 -1.4952 -2.9788  0.9780
   11MOL   H280 4100   0.669   0.186   4.895 -0.9934  0.3645 -0.1955
   11MOL   H281 4101   0.758   0.063   5.094  0.9484  0.8601 -1.6399
   11MOL   H282 4102   0.617   7.782   5.097  0.5029 -0.2512 -0.2413
   11MOL   H283 4103   0.612   0.121   5.149  0.5635  0.1483 -1.5102
   11MOL   H284 4104   0.761   7.784   4.833  0.0773 -1.5133  0.0165
   11MOL   H285 4105   0.633   0.015   4.735  0.3638  0.4095  0.1786
   11MOL   H286 4106   0.608   7.713   4.852  0.4491 -0.4970 -0.6858
   11MOL   C287 4107   0.195   0.079   5.023 -0.5082 -0.4124  0.3281
   11MOL   C288 4108   0.038   0.074   5.042 -0.7261  0.0283  0.2924
   11MOL   O289 4109   7.801   0.172   4.962  0.0269 -0.3015  0.8362
   11MOL   C290 4110   7.740   0.122   4.837 -0.5562  0.7907 -0.4300
   11MOL   C291 4111   7.708   0.247   4.759  0.2583  0.1744 -0.0585
   11MOL   C292 4112   0.005   0.344   4.750  0.5477  0.2102 -0.0162
   11MOL   C293 4113   7.573   0.317   4.796 -0.2515  0.7032 -0.1049
   11MOL   H294 4114   0.205   0.185   4.998 -0.5607 -0.4218  0.2679
   11MOL   H295 4115   0.238   0.060   5.122 -0.9108  0.7412  0.7443
   11MOL   H296 4116   7.817   7.800   5.029  1.8959 -1.2015  0.0370
   11MOL   H297 4117   7.807   0.062   4.774  0.8008 -0.1632  1.8523
   11MOL   H298 4118   7.652   0.061   4.858  0.0843  0.1183  0.3810
   11MOL   H299 4119   7.698   0.203   4.659 -3.3876 -0.8434  0.6825
   11MOL   H300 4120   0.029   0.397   4.842 -0.5187 -1.0273  0.9939
   11MOL   H301 4121   7.822   0.431   4.685  0.7532  0.2865  0.0621
   11MOL   H302 4122   0.100   0.302   4.714 -0.7320 -1.5810 -1.3808
   11MOL   H303 4123   7.499   0.238   4.813  0.7502  0.2673  2.3584
   11MOL   H304 4124   7.579   0.376   4.887  1.4124 -0.6129  0.6529
   11MOL   H305 4125   7.552   0.381   4.711 -0.0922  1.2232  0.2479
   11MOL   C306 4126   0.001   0.109   5.187 -0.1380  0.4950  0.1745
   11MOL   C307 4127   7.674   0.094   5.215 -0.2919  0.6203 -0.0970
   11MOL   O308 4128   7.657   0.027   5.338  0.1429  0.2283 -0.2589
   11MOL   C309 4129   7.614   7.720   5.317 -0.6315 -0.2644 -0.7872
   11MOL   C310 4130   7.623   7.650   5.454  0.4145 -0.0997  0.5700
   11MOL   C311 4131   7.773   7.632   5.502 -0.9345 -0.0866 -0.1524
   11MOL   C312 4132   7.550   7.514   5.447  0.1972  0.1162  0.3473
   11MOL   H313 4133   0.045   0.208   5.201 -0.1585  0.7860 -1.6100
   11MOL   H314 4134   0.042   0.036   5.256 -3.9340 -0.8183  1.1235
   11MOL   H315 4135   7.638   0.026   5.137 -0.8964 -1.2884  1.7947
   11MOL   H316 4136   7.677   7.667   5.245 -0.3679 -0.0032 -0.7509
   11MOL   H317 4137   7.513   7.712   5.278 -1.6815 -0.5161  1.8671
   11MOL   H318 4138   7.575   7.708   5.533 -0.1178 -1.1900  1.0698
   11MOL   H319 4139   7.821   7.566   5.430  1.2105  1.1342  0.1001
   11MOL   H320 4140   7.774   7.582   5.599 -0.8799  0.5778  0.1933
   11MOL   H321 4141   0.004   7.726   5.511 -1.7567  0.3342  0.5984
   11MOL   H322 4142   7.567   7.465   5.544  2.0374 -0.8381 -0.4287
   11MOL   H323 4143   7.588   7.447   5.370 -0.4805 -0.1154  0.2124
   11MOL   H324 4144   7.443   7.517   5.429  0.2656  0.3360 -0.0071
   11MOL   C325 4145   7.595   0.227   5.226 -0.2126 -0.3666 -0.1459
   11MOL   C326 4146   7.443   0.218   5.223 -0.2867 -0.5961  0.0543
   11MOL   O327 4147   7.375   0.338   5.266 -0.2000 -0.3949  0.3828
   11MOL   C328 4148   7.379   0.359   5.406  0.0410  0.0387  0.8270
   11MOL   C329 4149   7.303   0.487   5.439  0.7685  0.5100 -0.5223
   11MOL   C330 4150   7.366   0.607   5.371  0.0816  0.4151 -0.4688
   11MOL   C331 4151   7.156   0.477   5.410  0.5416 -0.3455  0.1362
   11MOL   H332 4152   7.640   0.292   5.151  1.6958 -0.9541  0.4559
   11MOL   H333 4153   7.636   0.270   5.318 -1.6037  0.8864 -0.0841
   11MOL   H334 4154   7.425   0.138   5.294 -0.1544 -0.4200  0.2889
   11MOL   H335 4155   7.343   0.267   5.451 -0.1363 -0.5712 -0.5454
   11MOL   H336 4156   7.481   0.372   5.441  0.3763 -0.7500  0.1438
   11MOL   H337 4157   7.312   0.501   5.546 -2.1763 -2.7444  0.2599
   11MOL   H338 4158   7.314   0.694   5.413  1.7079  1.4434 -0.5476
   11MOL   H339 4159   7.467   0.626   5.407 -0.6841  1.7137  1.0874
   11MOL   H340 4160   7.362   0.611   5.262  2.8797 -1.8817 -0.7071
   11MOL   H341 4161   7.110   0.574   5.424  1.1914 -0.2685  1.7819
   11MOL   H342 4162   7.130   0.460   5.305  2.4222  0.7746 -0.5351
   11MOL   H343 4163   7.090   0.425   5.479  1.0616  1.9967  2.4473
   11MOL   C344 4164   7.392   0.180   5.084  0.2751  0.4291  0.3701
   11MOL   C345 4165   7.246   0.139   5.098 -0.2298 -0.3223 -0.0702
   11MOL   O346 4166   7.182   0.199   4.989  0.0390 -0.2900  0.1600
   11MOL   C347 4167   7.107   0.313   5.029  0.4901 -0.7478 -0.0899
   11MOL   C348 4168   7.010   0.353   4.904 -0.3080  0.0142  0.1452
   11MOL   C349 4169   7.106   0.425   4.797 -0.2198 -1.1000 -0.1379
   11MOL   C350 4170   6.876   0.412   4.942 -0.9437 -0.7070  0.3990
   11MOL   H351 4171   7.445   0.100   5.032  1.1821  0.5401  1.1059
   11MOL   H352 4172   7.421   0.265   5.022 -1.2105  0.0383 -0.9034
   11MOL   H353 4173   7.210   0.169   5.196 -0.2774 -0.5229 -0.0252
   11MOL   H354 4174   7.165   0.398   5.066  0.2580 -0.8893  0.5863
   11MOL   H355 4175   7.045   0.284   5.113 -0.5357  1.0821 -0.1816
   11MOL   H356 4176   6.987   0.260   4.851 -0.2303 -0.2291  0.5339
   11MOL   H357 4177   7.047   0.438   4.706  1.3221  2.3462 -0.7121
   11MOL   H358 4178   7.195   0.364   4.782  1.0560  1.3191 -2.7438
   11MOL   H359 4179   7.131   0.530   4.814 -0.8852 -0.6888 -1.6309
   11MOL   H360 4180   6.793   0.387   4.876 -0.5493  2.0917 -1.2258
   11MOL   H361 4181   6.851   0.376   5.042  5.3233  1.9119  3.2001
   11MOL   H362 4182   6.887   0.520   4.948  2.4239 -1.0974  3.3785
   11MOL   C363 4183   7.233   7.810   5.088  0.2511  0.0309 -0.7470
   11MOL   C364 4184   7.090   7.753   5.126  0.5821 -0.3743 -0.8961
   11MOL   O365 4185   7.098   7.613   5.108 -0.3506  0.4116  0.2476
   11MOL   C366 4186   6.996   7.517   5.158  0.2323 -0.9882  0.1908
   11MOL   C367 4187   7.069   7.385   5.184  0.0034  0.0439  0.0275
   11MOL   C368 4188   7.183   7.415   5.289  0.2040  0.9533 -0.1119
   11MOL   C369 4189   7.125   7.321   5.059 -0.4297 -0.5272 -0.8958
   11MOL   H370 4190   7.272   7.773   4.993  0.8972  2.3046 -1.3932
   11MOL   H371 4191   7.307   7.778   5.160 -0.5719  3.8348  1.9334
   11MOL   H372 4192   7.007   7.800   5.073  0.8563  0.2239 -0.7914
   11MOL   H373 4193   6.966   7.553   5.257  0.2196 -0.8551  0.1389
   11MOL   H374 4194   6.914   7.526   5.087  0.4695 -2.4739 -0.2732
   11MOL   H375 4195   7.019   7.300   5.232  1.4528 -1.0116 -0.2922
   11MOL   H376 4196   7.137   7.467   5.373 -0.3293  0.2702  0.0245
   11MOL   H377 4197   7.255   7.480   5.241  2.7876 -1.0499  0.9376
   11MOL   H378 4198   7.219   7.325   5.341 -1.0566 -0.6566 -1.9487
   11MOL   H379 4199   7.059   7.308   4.973  0.0417 -1.6998 -1.0951
   11MOL   H380 4200   7.192   7.236   5.072  1.5928  1.1757  0.2512
   11MOL   H381 4201   7.193   7.399   5.025 -1.2471 -0.2537 -1.9385
   11MOL   H382 4202   7.081   7.774   5.233  0.3526 -0.7259 -0.8444
   12MOL     C1 4203   3.761   4.730   7.359  0.1517 -0.3514  0.6244
   12MOL     C2 4204   3.706   4.628   7.262  0.3744 -0.0818  0.5919
   12MOL     O3 4205   3.680   4.502   7.319 -0.3443  0.0676 -0.0194
   12MOL     C4 4206   3.793   4.419   7.323  0.0538  0.6998 -0.4711
   12MOL     C5 4207   3.777   4.283   7.397 -0.4369 -0.3215  1.0082
   12MOL     C6 4208   3.665   4.207   7.323  0.6869  0.1837  0.6698
   12MOL     C7 4209   3.755   4.304   7.551 -0.3468  0.1910  0.5218
   12MOL     H8 4210   3.786   4.831   7.324  1.0231  0.2238  2.8016
   12MOL     H9 4211   3.689   4.744   7.439 -0.5023 -2.9229  0.5074
   12MOL    H10 4212   3.781   4.621   7.182 -2.1194 -2.2981 -1.6645
   12MOL    H11 4213   3.892   4.460   7.346  0.3489 -1.1920  1.7781
   12MOL    H12 4214   3.803   4.393   7.217 -0.4877  1.3394 -0.6785
   12MOL    H13 4215   3.871   4.229   7.385 -0.2399  0.1349  0.4720
   12MOL    H14 4216   3.647   4.104   7.355  0.1060 -0.1284 -0.6183
   12MOL    H15 4217   3.570   4.259   7.334  0.2164 -0.2119 -1.3553
   12MOL    H16 4218   3.691   4.203   7.217 -3.0198 -2.4427 -0.2321
   12MOL    H17 4219   3.730   4.214   7.607  2.1355 -2.0358 -1.7963
   12MOL    H18 4220   3.845   4.345   7.596  1.0326  0.8194 -2.6444
   12MOL    H19 4221   3.673   4.375   7.565 -0.6222  0.7930 -3.4548
   12MOL    H20 4222   3.861   4.704   7.395  1.2940  0.2075 -1.9446
   12MOL    C21 4223   3.576   4.693   7.200 -0.8739 -0.4892 -0.4001
   12MOL    C22 4224   3.594   4.790   7.075  0.4209  0.7038  0.6541
   12MOL    O23 4225   3.673   4.902   7.111 -0.4113 -0.1485 -0.5864
   12MOL    C24 4226   3.648   5.027   7.047 -0.0846 -0.0316 -0.0806
   12MOL    C25 4227   3.763   5.129   7.088  0.6020  1.1787  0.1822
   12MOL    C26 4228   3.722   5.197   7.221  0.4402 -0.8894 -0.4689
   12MOL    C27 4229   3.906   5.072   7.096 -0.9504  0.1504 -0.1165
   12MOL    H28 4230   3.519   4.602   7.181 -0.2857 -1.3276  1.6764
   12MOL    H29 4231   3.521   4.746   7.278  0.4101  1.5939 -0.8859
   12MOL    H30 4232   3.496   4.826   7.043 -0.1375 -2.2683 -1.1658
   12MOL    H31 4233   3.549   5.070   7.058  0.0526  0.5115 -0.9454
   12MOL    H32 4234   3.642   5.017   6.939 -0.7978  2.6482 -0.3090
   12MOL    H33 4235   3.765   5.209   7.015 -1.8183  1.5019  0.4174
   12MOL    H34 4236   3.622   5.238   7.207  1.1916  0.3102 -2.5766
   12MOL    H35 4237   3.789   5.280   7.246  1.2432 -1.6672 -0.0404
   12MOL    H36 4238   3.728   5.119   7.297 -1.4134 -0.0642  0.5546
   12MOL    H37 4239   3.975   5.155   7.111 -3.3581  2.0645  0.7845
   12MOL    H38 4240   3.917   4.986   7.162  1.7202 -0.2631 -1.0641
   12MOL    H39 4241   3.919   5.037   6.994 -2.2920 -0.5737 -0.0556
   12MOL    C40 4242   3.664   4.731   6.956 -0.8567  0.6774  0.6484
   12MOL    C41 4243   3.622   4.595   6.903  0.4242 -0.2853 -0.1730
   12MOL    O42 4244   3.702   4.554   6.796  0.5666 -0.1918  0.1768
   12MOL    C43 4245   3.832   4.501   6.817 -0.7885 -0.4170 -0.1063
   12MOL    C44 4246   3.922   4.496   6.690 -0.3545  0.4544  0.3140
   12MOL    C45 4247   3.861   4.412   6.575 -0.1936 -0.2187  0.5535
   12MOL    C46 4248   3.954   4.642   6.659 -0.4956  0.2572  0.6309
   12MOL    H47 4249   3.772   4.738   6.963 -0.4905 -1.1678 -2.3520
   12MOL    H48 4250   3.651   4.800   6.872  2.3971  0.1127 -0.3804
   12MOL    H49 4251   3.644   4.529   6.988 -0.3403 -0.1649  0.1197
   12MOL    H50 4252   3.832   4.399   6.855 -0.9785  0.3589  2.0010
   12MOL    H51 4253   3.888   4.562   6.888  1.4170  0.6853 -2.6879
   12MOL    H52 4254   4.015   4.445   6.716  0.4825  0.6415 -2.2147
   12MOL    H53 4255   3.836   4.308   6.594 -0.8785 -0.3581 -1.0256
   12MOL    H54 4256   3.774   4.465   6.535  1.0824  1.1842 -0.4416
   12MOL    H55 4257   3.927   4.411   6.488 -0.9706  2.2556 -0.1255
   12MOL    H56 4258   4.009   4.666   6.568 -0.1562 -1.9291  0.2465
   12MOL    H57 4259   4.021   4.689   6.732 -1.6505  1.5475  0.8944
   12MOL    H58 4260   3.874   4.714   6.678 -0.1622  0.4534  1.3097
   12MOL    C59 4261   3.475   4.597   6.842 -0.7408 -0.7848  0.0910
   12MOL    C60 4262   3.381   4.472   6.856  0.2803  0.5281  0.4846
   12MOL    O61 4263   3.312   4.487   6.985 -0.3443 -0.5336 -0.1885
   12MOL    C62 4264   3.170   4.483   6.979  0.4941 -0.6141  0.5442
   12MOL    C63 4265   3.120   4.486   7.130 -0.2981 -0.7566 -0.2982
   12MOL    C64 4266   3.176   4.367   7.205  0.0816 -0.6593  0.2573
   12MOL    C65 4267   3.128   4.625   7.191  0.3699  0.3341  0.1931
   12MOL    H66 4268   3.498   4.622   6.739 -0.3454 -0.1702  0.3273
   12MOL    H67 4269   3.416   4.678   6.884 -1.0637 -0.6566 -0.6096
   12MOL    H68 4270   3.322   4.478   6.765 -0.6506 -0.5661  1.0029
   12MOL    H69 4271   3.136   4.572   6.927  1.6176 -1.8786 -2.4269
   12MOL    H70 4272   3.144   4.393   6.924  1.4088 -0.4198 -0.2012
   12MOL    H71 4273   3.012   4.471   7.121 -0.7934  1.3388  1.6909
   12MOL    H72 4274   3.143   4.357   7.309  2.9601  1.4832  1.4405
   12MOL    H73 4275   3.283   4.346   7.203  0.2275 -0.0131  1.0208
   12MOL    H74 4276   3.148   4.281   7.143  1.9922 -0.8395 -0.3984
   12MOL    H75 4277   3.166   4.621   7.293 -2.4201 -1.7966  1.2264
   12MOL    H76 4278   3.198   4.685   7.134 -0.9466  2.0136  0.2917
   12MOL    H77 4279   3.029   4.669   7.200  0.4805  0.7986 -0.8450
   12MOL    C78 4280   3.454   4.344   6.853  0.8423  0.3265 -0.2170
   12MOL    C79 4281   3.375   4.217   6.829 -0.4717  0.2108 -0.0583
   12MOL    O80 4282   3.306   4.223   6.708 -0.4384 -0.3198  0.0957
   12MOL    C81 4283   3.189   4.142   6.698  0.8017 -0.4460  0.7207
   12MOL    C82 4284   3.167   4.107   6.549 -0.6527  0.2608 -0.0216
   12MOL    C83 4285   3.038   4.022   6.521 -0.1631  0.1338  0.1735
   12MOL    C84 4286   3.291   4.042   6.481  0.6854 -0.5109  0.3507
   12MOL    H85 4287   3.505   4.334   6.949 -0.7170  1.7847  0.8031
   12MOL    H86 4288   3.530   4.358   6.776  0.5029  1.0209 -0.4339
   12MOL    H87 4289   3.299   4.212   6.907  0.0119  1.0935  0.4836
   12MOL    H88 4290   3.194   4.051   6.758 -0.9867 -0.6102  0.6468
   12MOL    H89 4291   3.108   4.197   6.746  1.2575  0.9197 -0.0370
   12MOL    H90 4292   3.149   4.205   6.506  1.4889  0.0530 -1.4513
   12MOL    H91 4293   2.962   4.060   6.590 -0.7000 -2.3748  1.0230
   12MOL    H92 4294   3.058   3.917   6.541 -3.0672 -1.0158 -2.6009
   12MOL    H93 4295   3.009   4.022   6.416 -0.3055  0.7332  0.2096
   12MOL    H94 4296   3.338   3.968   6.546  1.6794  1.1986  1.5802
   12MOL    H95 4297   3.372   4.114   6.475  0.8663 -0.7997 -0.6941
   12MOL    H96 4298   3.267   3.994   6.386  1.9665  0.6445 -0.5682
   12MOL    C97 4299   3.470   4.100   6.830 -0.1296  0.9300  0.0697
   12MOL    C98 4300   3.542   4.066   6.966  0.5189 -0.2210  0.3181
   12MOL    O99 4301   3.610   3.938   6.966  0.5157  0.5160 -0.3995
   12MOL   C100 4302   3.726   3.934   6.881  0.1123 -0.0331 -0.1116
   12MOL   C101 4303   3.821   3.827   6.929 -0.4704 -0.0691  0.7650
   12MOL   C102 4304   3.946   3.832   6.835  0.6129  0.3836 -0.6467
   12MOL   C103 4305   3.873   3.830   7.077  0.2094 -0.4096 -0.5550
   12MOL   H104 4306   3.558   4.126   6.771  0.5533  3.6055  2.1895
   12MOL   H105 4307   3.422   4.008   6.796 -1.2159  2.4280 -2.6175
   12MOL   H106 4308   3.615   4.143   6.993  1.2279  0.1018 -2.4040
   12MOL   H107 4309   3.770   4.033   6.894 -0.3654  0.0780  0.6893
   12MOL   H108 4310   3.699   3.913   6.778 -0.2824 -0.2134  0.0280
   12MOL   H109 4311   3.788   3.725   6.908 -0.6253  0.3963 -1.4121
   12MOL   H110 4312   3.994   3.930   6.839 -1.1193  1.2593 -0.7959
   12MOL   H111 4313   4.017   3.752   6.858  1.7790  1.3718 -0.7912
   12MOL   H112 4314   3.922   3.816   6.730  1.9813 -0.1482 -0.8848
   12MOL   H113 4315   3.956   3.899   7.093  1.4632 -2.1014  0.4631
   12MOL   H114 4316   3.793   3.862   7.144 -0.7893 -0.9432 -1.4682
   12MOL   H115 4317   3.898   3.725   7.093 -0.7541 -0.8675 -2.0087
   12MOL   C116 4318   3.442   4.063   7.087 -0.2710 -0.1176 -0.0762
   12MOL   C117 4319   3.331   3.952   7.088  0.1507  0.3147  0.5342
   12MOL   O118 4320   3.358   3.861   7.193  0.1114  0.1483 -0.8974
   12MOL   C119 4321   3.459   3.767   7.164  0.0298 -0.0579 -0.0491
   12MOL   C120 4322   3.445   3.637   7.243  0.2633  0.6034  1.0020
   12MOL   C121 4323   3.320   3.564   7.193 -0.5988  0.8539 -0.1351
   12MOL   C122 4324   3.570   3.541   7.220 -0.1172  0.2583  0.4927
   12MOL   H123 4325   3.500   4.056   7.179  0.0143 -0.5662 -0.2871
   12MOL   H124 4326   3.394   4.161   7.091 -1.4380 -0.5182 -3.0620
   12MOL   H125 4327   3.332   3.888   7.000  1.4126  0.9250  0.0854
   12MOL   H126 4328   3.560   3.802   7.185  0.8166 -1.3240 -1.6038
   12MOL   H127 4329   3.465   3.740   7.059 -0.4477  1.5706 -0.5183
   12MOL   H128 4330   3.426   3.664   7.347  0.6066  1.3994  0.8579
   12MOL   H129 4331   3.329   3.529   7.090  3.2632  0.8852  0.1045
   12MOL   H130 4332   3.238   3.635   7.201  0.1601  1.5544  1.6403
   12MOL   H131 4333   3.311   3.474   7.253 -0.0016  2.2410  2.0937
   12MOL   H132 4334   3.663   3.593   7.243  0.0183  0.5933 -0.8045
   12MOL   H133 4335   3.554   3.456   7.287  1.4061  0.8717  1.6910
   12MOL   H134 4336   3.587   3.516   7.115  0.3786  1.8047  0.1978
   12MOL   C135 4337   3.192   4.005   7.117 -0.2202  0.3749 -0.4863
   12MOL   C136 4338   3.069   3.905   7.104 -0.5934 -0.3830 -0.1260
   12MOL   O137 4339   2.950   3.957   7.174  0.2459 -0.2680 -0.1223
   12MOL   C138 4340   2.950   3.927   7.315 -0.2250  0.1988 -0.1145
   12MOL   C139 4341   2.825   3.985   7.374  0.8364  0.6746  0.2906
   12MOL   C140 4342   2.826   4.136   7.375  0.1284  0.0208 -0.2741
   12MOL   C141 4343   2.701   3.921   7.317  1.3044 -0.6353  0.1218
   12MOL   H142 4344   3.204   4.052   7.214 -1.7114 -0.8797  0.3196
   12MOL   H143 4345   3.172   4.078   7.038 -0.4313  0.7137 -0.1224
   12MOL   H144 4346   3.105   3.814   7.152  0.6712 -1.1003 -2.3677
   12MOL   H145 4347   3.042   3.970   7.354  0.7860 -0.2664 -1.9145
   12MOL   H146 4348   2.954   3.820   7.337 -0.9402  0.3139  0.5794
   12MOL   H147 4349   2.837   3.952   7.477 -2.5986 -0.3416  0.4366
   12MOL   H148 4350   2.732   4.167   7.419  0.9221  1.5878  0.3828
   12MOL   H149 4351   2.829   4.173   7.272 -1.3941  0.2994 -0.2236
   12MOL   H150 4352   2.904   4.195   7.424  0.6989 -0.9593  0.0163
   12MOL   H151 4353   2.663   3.965   7.224 -1.2520 -0.9166  0.9797
   12MOL   H152 4354   2.705   3.815   7.290  0.4739 -0.2876 -1.4827
   12MOL   H153 4355   2.613   3.927   7.382  1.0065 -2.7621 -0.0412
   12MOL   C154 4356   3.039   3.870   6.956 -0.0036 -0.1724 -0.3458
   12MOL   C155 4357   2.937   3.753   6.939  0.1184 -0.1246  0.1536
   12MOL   O156 4358   2.883   3.768   6.803  0.2285 -0.0521  0.7664
   12MOL   C157 4359   2.743   3.774   6.791 -0.0220  0.0863  0.2358
   12MOL   C158 4360   2.713   3.791   6.642 -0.0685 -0.4146 -0.0697
   12MOL   C159 4361   2.758   3.681   6.547 -0.3321  0.8531 -0.6513
   12MOL   C160 4362   2.572   3.837   6.607  0.3177  0.5829 -0.3964
   12MOL   H161 4363   3.125   3.863   6.888  0.9238  2.4346  0.5083
   12MOL   H162 4364   2.999   3.960   6.910  1.1809  0.9658  0.8072
   12MOL   H163 4365   2.857   3.767   7.011 -0.3495  2.8246 -0.8889
   12MOL   H164 4366   2.704   3.848   6.861 -2.8898 -0.1889 -1.0205
   12MOL   H165 4367   2.704   3.682   6.833  1.5815 -0.8105 -0.1729
   12MOL   H166 4368   2.778   3.874   6.616  0.6253 -1.0667 -0.4441
   12MOL   H167 4369   2.863   3.675   6.576 -1.1897  0.6190  2.6242
   12MOL   H168 4370   2.757   3.711   6.442  2.3427 -0.0764 -0.9874
   12MOL   H169 4371   2.723   3.578   6.559 -0.8198  1.4811  3.9590
   12MOL   H170 4372   2.503   3.752   6.611  0.1068  0.8137  1.0316
   12MOL   H171 4373   2.529   3.907   6.678 -0.3383 -1.1949  1.0171
   12MOL   H172 4374   2.557   3.871   6.504 -0.8417  3.0949  0.5549
   12MOL   C173 4375   2.993   3.612   6.965  0.3954 -0.3368  0.3431
   12MOL   C174 4376   2.888   3.509   7.017 -0.6268 -0.0470  1.0989
   12MOL   O175 4377   2.934   3.372   7.030  0.4190 -0.0878  0.0283
   12MOL   C176 4378   2.954   3.306   6.908 -0.0640  0.5040  0.1102
   12MOL   C177 4379   3.037   3.178   6.946 -0.1359  0.6012  0.4279
   12MOL   C178 4380   3.073   3.101   6.820 -0.8837  0.3158  0.2881
   12MOL   C179 4381   3.161   3.219   7.021  0.0623  0.1653 -0.0949
   12MOL   H180 4382   3.033   3.573   6.871 -0.0177  2.9256 -1.2317
   12MOL   H181 4383   3.076   3.613   7.035 -0.5208  1.8311  1.4190
   12MOL   H182 4384   2.792   3.517   6.965 -0.3219  0.6252  0.6387
   12MOL   H183 4385   3.005   3.371   6.837 -0.3880  1.6059  0.8631
   12MOL   H184 4386   2.863   3.274   6.858  0.4464  1.3212 -1.3430
   12MOL   H185 4387   2.981   3.114   7.015 -0.5935  2.5044  1.8639
   12MOL   H186 4388   3.153   3.028   6.831  0.0310  1.4469  1.3913
   12MOL   H187 4389   2.989   3.062   6.762 -0.7128 -0.4813  0.5844
   12MOL   H188 4390   3.129   3.164   6.750  0.7567 -1.2255  0.1791
   12MOL   H189 4391   3.228   3.287   6.968 -0.2515  0.7104  0.2068
   12MOL   H190 4392   3.205   3.119   7.030 -2.8802 -1.1814 -0.1159
   12MOL   H191 4393   3.140   3.259   7.121 -0.0479 -0.2832  0.0616
   12MOL   C192 4394   2.856   3.535   7.170  0.7291  0.2820  0.2233
   12MOL   C193 4395   2.737   3.456   7.226  0.5333 -0.0639 -0.2180
   12MOL   O194 4396   2.610   3.475   7.161 -0.3452 -0.5255 -0.0333
   12MOL   C195 4397   2.568   3.364   7.089  0.0641  0.3855  0.0042
   12MOL   C196 4398   2.443   3.394   7.006 -0.2318  0.4405  0.3703
   12MOL   C197 4399   2.479   3.496   6.898 -0.0237 -0.0942  0.1180
   12MOL   C198 4400   2.309   3.424   7.073  0.6448  0.0462  0.1112
   12MOL   H199 4401   2.837   3.641   7.189 -0.3837  0.2856 -0.8459
   12MOL   H200 4402   2.944   3.518   7.232 -0.2920  3.1912  2.6094
   12MOL   H201 4403   2.755   3.349   7.224 -0.6219 -0.2437 -1.9880
   12MOL   H202 4404   2.544   3.293   7.168 -1.1780  2.2867  1.3731
   12MOL   H203 4405   2.650   3.315   7.037  0.8087  0.0115  1.4713
   12MOL   H204 4406   2.429   3.300   6.951 -0.5268 -0.4059  1.8769
   12MOL   H205 4407   2.497   3.594   6.941 -0.4947  0.2714 -0.5064
   12MOL   H206 4408   2.574   3.466   6.853 -0.2798 -2.5740  1.1936
   12MOL   H207 4409   2.392   3.512   6.834 -0.2102  3.4691  1.1680
   12MOL   H208 4410   2.275   3.332   7.120  0.4293  0.6177  1.0915
   12MOL   H209 4411   2.319   3.504   7.147 -0.5598  0.3757 -0.0852
   12MOL   H210 4412   2.237   3.453   6.997  1.0590  2.0767  0.4652
   12MOL   C211 4413   2.700   3.501   7.366  0.4286 -0.1850 -0.2090
   12MOL   C212 4414   2.800   3.463   7.479 -0.1882  0.6809  0.6553
   12MOL   O213 4415   2.751   3.524   7.597 -0.0434  0.5533 -0.7945
   12MOL   C214 4416   2.792   3.656   7.616  0.2753 -0.5862  0.2071
   12MOL   C215 4417   2.684   3.724   7.707 -0.3743  0.2262 -0.5105
   12MOL   C216 4418   2.721   3.863   7.755 -0.0277  0.6641 -0.4672
   12MOL   C217 4419   2.556   3.736   7.625  0.6872  0.2145  0.3063
   12MOL   H218 4420   2.602   3.462   7.393  0.6238  0.5477  1.5766
   12MOL   H219 4421   2.709   3.609   7.354 -1.9730 -0.1447 -2.2257
   12MOL   H220 4422   2.885   3.525   7.449 -0.6420  0.3025 -1.4533
   12MOL   H221 4423   2.822   3.704   7.523 -1.8238 -0.5002 -0.4613
   12MOL   H222 4424   2.886   3.643   7.669  1.7197  0.3298 -2.0594
   12MOL   H223 4425   2.667   3.660   7.793 -0.3162  0.7359 -0.1143
   12MOL   H224 4426   2.740   3.930   7.672  1.0094  0.1294 -0.6643
   12MOL   H225 4427   2.648   3.902   0.001 -0.9422 -3.8438  1.2789
   12MOL   H226 4428   2.810   3.851   7.817 -0.9105  0.7676  0.8323
   12MOL   H227 4429   2.518   3.646   7.577 -0.8955 -0.2427  2.3236
   12MOL   H228 4430   2.578   3.803   7.542  1.6963  0.4580  0.7712
   12MOL   H229 4431   2.478   3.786   7.683 -0.7307 -0.5903 -0.8735
   12MOL   C230 4432   2.849   3.322   7.493 -0.5857  0.0285 -0.9096
   12MOL   C231 4433   2.960   3.305   7.600  0.0619  0.0948 -0.5527
   12MOL   O232 4434   2.953   3.168   7.641  0.0741 -0.4140 -0.0144
   12MOL   C233 4435   2.850   3.132   7.733 -0.4968  0.7303  0.3514
   12MOL   C234 4436   2.899   3.012   7.813  0.0872  0.1235  0.7313
   12MOL   C235 4437   2.969   2.907   7.722  0.5156  0.2098 -0.1756
   12MOL   C236 4438   2.981   3.063   0.104 -0.0749 -0.8037  0.4315
   12MOL   H237 4439   2.867   3.285   7.392 -3.2591  0.7615 -1.6920
   12MOL   H238 4440   2.754   3.281   7.529  0.2468 -0.8236  0.3763
   12MOL   H239 4441   2.939   3.353   7.696 -0.0254  0.5709 -0.8113
   12MOL   H240 4442   2.821   3.220   7.791 -1.9503  0.3674  0.1882
   12MOL   H241 4443   2.764   3.112   7.669  0.0016  2.2822 -0.8406
   12MOL   H242 4444   2.809   2.967   0.031  0.2106  0.2937  1.1782
   12MOL   H243 4445   3.056   2.942   7.667  1.6740 -1.5054  0.4958
   12MOL   H244 4446   2.902   2.868   7.645 -1.2880 -0.3542  1.6156
   12MOL   H245 4447   3.004   2.816   7.772  2.4134  2.3267  2.4359
   12MOL   H246 4448   2.920   3.130   0.164 -0.5274  0.2132 -1.1153
   12MOL   H247 4449   3.018   2.982   0.165 -1.7364 -2.9594 -1.3203
   12MOL   H248 4450   3.073   3.111   0.071 -0.4664 -0.1745  0.2481
   12MOL   C249 4451   3.101   3.322   7.547 -0.2582 -0.1919  0.0814
   12MOL   C250 4452   3.211   3.297   7.656 -0.6113 -0.2017 -0.1066
   12MOL   O251 4453   3.335   3.248   7.589  0.5177 -0.0965  0.0704
   12MOL   C252 4454   3.335   3.108   7.561 -0.2257  0.0156 -0.4665
   12MOL   C253 4455   3.437   3.087   7.444  0.0582 -0.2924 -0.1153
   12MOL   C254 4456   3.385   3.152   7.309  0.2941 -0.0409 -0.1182
   12MOL   C255 4457   3.496   2.948   7.427 -0.8357 -0.3705  0.1358
   12MOL   H256 4458   3.112   3.419   7.500 -1.5269  0.7260  1.6123
   12MOL   H257 4459   3.113   3.251   7.466 -0.1154 -2.0880  1.7308
   12MOL   H258 4460   3.172   3.218   7.720 -0.7791 -0.0235  0.0128
   12MOL   H259 4461   3.367   3.059   7.653 -0.2638 -0.6391 -0.7992
   12MOL   H260 4462   3.238   3.073   7.526  1.1170 -2.2415 -1.9884
   12MOL   H261 4463   3.519   3.155   7.467 -0.5360  1.2693 -2.3719
   12MOL   H262 4464   3.469   3.187   7.249 -0.0162  0.5313 -0.2136
   12MOL   H263 4465   3.321   3.239   7.322 -1.9365 -1.5980 -0.4516
   12MOL   H264 4466   3.322   3.092   7.243  2.0004 -0.3189 -1.5304
   12MOL   H265 4467   3.520   2.906   7.525 -2.3589 -0.5587  0.4364
   12MOL   H266 4468   3.427   2.877   7.382  1.1890 -2.1313 -0.3009
   12MOL   H267 4469   3.576   2.945   7.353 -1.1463  0.7556 -0.2550
   12MOL   C268 4470   3.226   3.425   7.743  0.0349 -0.3179  1.1220
   12MOL   C269 4471   3.335   3.413   0.028  0.2141 -0.4481  0.5040
   12MOL   O270 4472   3.291   3.331   0.131 -0.0805 -0.5300  0.5599
   12MOL   C271 4473   3.394   3.243   0.175  0.4902 -0.3203 -0.2295
   12MOL   C272 4474   3.329   3.168   0.291 -0.0680  0.0846  0.5806
   12MOL   C273 4475   3.402   3.038   0.328  0.0720  0.3526  0.2776
   12MOL   C274 4476   3.296   3.251   0.423  0.7658 -0.7866  0.0703
   12MOL   H275 4477   3.140   3.452   7.805  0.4394  0.0628  1.5195
   12MOL   H276 4478   3.244   3.521   7.693 -2.4918 -1.0069 -1.2161
   12MOL   H277 4479   3.424   3.387   7.796  0.1636 -0.5806  0.4851
   12MOL   H278 4480   3.410   3.173   0.093  0.3305 -0.1120 -0.4363
   12MOL   H279 4481   3.489   3.291   0.199  0.7434 -1.1177  0.4215
   12MOL   H280 4482   3.230   3.134   0.260  0.8682  0.2863 -2.8133
   12MOL   H281 4483   3.424   2.980   0.239  2.5164  1.2491  0.2711
   12MOL   H282 4484   3.349   2.974   0.398 -0.1561  0.3878  0.1375
   12MOL   H283 4485   3.494   3.058   0.383 -1.1653 -0.3384  2.6742
   12MOL   H284 4486   3.225   3.203   0.490 -0.3413 -0.9574 -1.2131
   12MOL   H285 4487   3.246   3.341   0.386  1.0530 -1.1877 -1.3222
   12MOL   H286 4488   3.389   3.285   0.470 -0.3051 -2.0877  3.2368
   12MOL   C287 4489   3.370   3.543   0.105  0.1006  0.1187  0.6224
   12MOL   C288 4490   3.428   3.650   0.013  0.0230 -0.0057 -1.0113
   12MOL   O289 4491   3.548   3.587   7.774 -0.6471  0.0023  0.1200
   12MOL   C290 4492   3.565   3.614   7.637  0.5533  1.1224  0.0187
   12MOL   C291 4493   3.668   3.522   7.569  0.0078 -0.4269 -0.1300
   12MOL   C292 4494   3.610   3.387   7.546 -0.1677  0.3563 -0.4766
   12MOL   C293 4495   3.808   3.521   7.631 -0.0521  0.1133 -0.1642
   12MOL   H294 4496   3.437   3.518   0.188  1.1845  0.9471  0.0133
   12MOL   H295 4497   3.295   3.578   0.175  0.4825  0.5966  0.7945
   12MOL   H296 4498   3.356   3.686   7.764 -3.5205 -1.2495  1.7037
   12MOL   H297 4499   3.470   3.608   7.583  0.6367  0.3879 -0.0523
   12MOL   H298 4500   3.584   3.719   7.618 -1.3015  1.3807 -0.5307
   12MOL   H299 4501   3.696   3.558   7.470  2.6929 -2.1107 -0.0227
   12MOL   H300 4502   3.520   3.393   7.486 -0.0836  1.0829 -0.5374
   12MOL   H301 4503   3.575   3.346   7.641  0.0027  1.0425 -0.1094
   12MOL   H302 4504   3.689   3.328   7.500  0.2871  1.2255 -0.8339
   12MOL   H303 4505   3.866   3.614   7.629 -0.5713  0.4095 -1.8122
   12MOL   H304 4506   3.804   3.485   7.734  2.3913  1.1669  0.3505
   12MOL   H305 4507   3.865   3.451   7.570 -2.2976  0.7206 -3.0336
   12MOL   C306 4508   3.475   3.769   0.105  0.3737  0.4127  0.1873
   12MOL   C307 4509   3.512   3.898   0.035 -0.2601  0.3648 -0.0261
   12MOL   O308 4510   3.402   3.947   7.786  0.1607  0.1948  0.2938
   12MOL   C309 4511   3.427   3.977   7.648  0.7021  0.1533 -1.1109
   12MOL   C310 4512   3.305   4.058   7.596  0.2004  0.0050  0.1926
   12MOL   C311 4513   3.328   4.198   7.655 -0.0601 -0.0716 -0.4006
   12MOL   C312 4514   3.169   3.998   7.637  0.3049  0.5141  0.6467
   12MOL   H313 4515   3.553   3.729   0.169  1.6515 -1.2145 -2.2731
   12MOL   H314 4516   3.392   3.796   0.170 -0.6998  1.4875 -1.5885
   12MOL   H315 4517   3.589   3.871   7.788 -0.5429 -1.1105  0.2150
   12MOL   H316 4518   3.436   3.885   7.590  0.6822 -0.8179  0.3888
   12MOL   H317 4519   3.524   4.027   7.646  1.5255 -1.2612  0.9067
   12MOL   H318 4520   3.311   4.077   7.489 -0.0529 -0.8800  0.0134
   12MOL   H319 4521   3.415   4.251   7.617  0.5814 -0.6619  0.2195
   12MOL   H320 4522   3.327   4.203   7.764 -0.4916  2.9326 -0.4887
   12MOL   H321 4523   3.251   4.267   7.620 -0.7395 -0.1049  0.9831
   12MOL   H322 4524   3.145   3.895   7.611  0.6222 -0.0053  2.3284
   12MOL   H323 4525   3.086   4.067   7.621  0.4333  0.2546 -1.2328
   12MOL   H324 4526   3.167   3.979   7.744 -0.0563 -0.1464  0.5240
   12MOL   C325 4527   3.562   4.009   0.126  0.6641  0.0308 -0.0967
   12MOL   C326 4528   3.672   3.969   0.221  0.2907  0.3539 -0.5969
   12MOL   O327 4529   3.783   3.930   0.144  0.2131  0.3625  0.1790
   12MOL   C328 4530   3.840   3.808   0.186 -0.0792  0.3337  0.2024
   12MOL   C329 4531   3.978   3.793   0.127 -0.2823 -0.2012 -0.5612
   12MOL   C330 4532   4.061   3.903   0.192 -0.4185  0.3855  0.0698
   12MOL   C331 4533   4.048   3.654   0.131  0.0830  0.2512 -0.3642
   12MOL   H332 4534   3.473   4.044   0.180  1.2832 -1.6797  2.0980
   12MOL   H333 4535   3.590   4.090   0.059 -0.2456  1.8989  1.6957
   12MOL   H334 4536   3.647   3.890   0.292 -0.3137  2.6477  1.8398
   12MOL   H335 4537   3.846   3.809   0.295 -0.7991 -0.4639  0.2516
   12MOL   H336 4538   3.770   3.732   0.150  0.6471 -1.5560  2.6796
   12MOL   H337 4539   3.960   3.817   0.023 -3.0586 -2.2705 -0.6148
   12MOL   H338 4540   4.088   3.869   0.293 -0.2320 -0.0558 -0.1288
   12MOL   H339 4541   4.148   3.932   0.133  0.6596 -1.1339  0.8603
   12MOL   H340 4542   4.003   3.994   0.204 -2.8685 -1.0268 -0.7792
   12MOL   H341 4543   3.999   3.596   0.053 -0.0012 -0.9774  0.6030
   12MOL   H342 4544   4.150   3.649   0.094  1.1687  1.0110  2.4356
   12MOL   H343 4545   4.051   3.614   0.232  0.5364  1.3971  0.0925
   12MOL   C344 4546   3.719   4.086   0.309  0.1203 -0.1819  0.3933
   12MOL   C345 4547   3.622   4.156   0.405 -0.3406 -0.3824 -0.7308
   12MOL   O346 4548   3.538   4.067   0.472 -0.0788 -0.1223  0.1384
   12MOL   C347 4549   3.591   3.971   0.556  0.1893  0.1618 -0.1189
   12MOL   C348 4550   3.467   3.873   0.580 -0.5361  0.1117 -0.2435
   12MOL   C349 4551   3.494   3.786   0.707  0.3733 -0.1131  0.3237
   12MOL   C350 4552   3.419   3.798   0.458 -0.0589  0.5794  0.0199
   12MOL   H351 4553   3.755   4.157   0.234  0.8257 -2.2031 -1.2487
   12MOL   H352 4554   3.810   4.057   0.362  0.9478 -1.7143 -1.7943
   12MOL   H353 4555   3.560   4.214   0.338  1.5484  1.7002 -0.7398
   12MOL   H354 4556   3.634   4.010   0.648  1.2984  1.1501 -1.0497
   12MOL   H355 4557   3.660   3.906   0.502 -0.5429  0.3639 -1.3105
   12MOL   H356 4558   3.379   3.930   0.610 -0.2649 -1.1177  3.0736
   12MOL   H357 4559   3.424   3.703   0.718  0.4754 -0.2267  0.1269
   12MOL   H358 4560   3.494   3.857   0.790 -0.3601  0.6511 -0.3179
   12MOL   H359 4561   3.590   3.734   0.703  0.4613  0.1915 -1.9297
   12MOL   H360 4562   3.388   3.869   0.382 -0.8780 -0.1604 -0.3479
   12MOL   H361 4563   3.496   3.728   0.426  0.4128  0.6268  1.0199
   12MOL   H362 4564   3.329   3.741   0.480  0.3897 -0.9838 -2.0087
   12MOL   C363 4565   3.687   4.264   0.496 -0.4143  0.1952  0.1609
   12MOL   C364 4566   3.587   4.364   0.572  0.5355  0.6021  0.5491
   12MOL   O365 4567   3.662   4.460   0.640 -0.1259  0.2271 -0.2997
   12MOL   C366 4568   3.573   4.546   0.706  0.0925  0.6097  0.4210
   12MOL   C367 4569   3.639   4.657   0.779  0.3693  0.0282 -0.7224
   12MOL   C368 4570   3.745   4.607   0.887  0.4317  0.4478  0.4103
   12MOL   C369 4571   3.543   4.753   0.854  0.4316  0.3411 -0.1911
   12MOL   H370 4572   3.753   4.206   0.561 -0.6976 -0.3948 -0.0772
   12MOL   H371 4573   3.764   4.320   0.444 -0.8445  0.9849  0.3586
   12MOL   H372 4574   3.522   4.315   0.644 -2.3494  2.2403 -0.8766
   12MOL   H373 4575   3.511   4.591   0.628  1.0593 -0.9365 -1.2722
   12MOL   H374 4576   3.505   4.498   0.776  1.2666 -0.2556  0.9787
   12MOL   H375 4577   3.688   4.719   0.703  0.2127  1.7313  0.5331
   12MOL   H376 4578   3.692   4.529   0.941 -3.6422  3.3051  0.7457
   12MOL   H377 4579   3.788   4.683   0.953 -0.3131  1.1780  0.0627
   12MOL   H378 4580   3.837   4.576   0.837  0.2773  0.8732 -0.1364
   12MOL   H379 4581   3.451   4.785   0.804  0.3771 -2.3728 -1.9630
   12MOL   H380 4582   3.589   4.847   0.886  0.3463  1.0221 -2.0052
   12MOL   H381 4583   3.507   4.704   0.944  1.7269  1.5698  1.0104
   12MOL   H382 4584   3.520   4.416   0.504 -0.4981  0.2532  1.3028
   13MOL     C1 4585   6.999   3.408   3.281 -0.4166 -0.3438 -0.1678
   13MOL     C2 4586   7.074   3.371   3.403  0.5066  0.0665  0.7668
   13MOL     O3 4587   7.124   3.472   3.492  0.5620  0.5462  0.2487
   13MOL     C4 4588   7.217   3.563   3.430 -0.2660  0.5739 -0.2876
   13MOL     C5 4589   7.279   3.662   3.535  0.5519 -0.1324 -0.0355
   13MOL     C6 4590   7.379   3.762   3.466  0.9509 -0.2103  0.2125
   13MOL     C7 4591   7.348   3.593   3.650 -0.0400 -0.5465  0.4975
   13MOL     H8 4592   7.063   3.434   3.197  2.5084 -0.6139  1.9073
   13MOL     H9 4593   6.935   3.333   3.235 -1.0771  0.4379 -0.5197
   13MOL    H10 4594   7.159   3.305   3.382 -0.2222 -1.4708  2.5335
   13MOL    H11 4595   7.174   3.613   3.343  0.6668 -1.3451 -1.9112
   13MOL    H12 4596   7.295   3.504   3.382 -0.5382  0.2754 -0.3705
   13MOL    H13 4597   7.199   3.723   3.577  0.8136 -0.4434  0.9155
   13MOL    H14 4598   7.364   3.858   3.516 -1.6123 -1.1541  1.3291
   13MOL    H15 4599   7.484   3.731   3.460  0.8614 -0.5161  0.2205
   13MOL    H16 4600   7.354   3.780   3.362 -0.1313 -1.0494  0.3186
   13MOL    H17 4601   7.393   3.666   3.717 -0.8478 -1.2297  1.8074
   13MOL    H18 4602   7.280   3.527   3.705 -1.0029 -0.0042 -0.0256
   13MOL    H19 4603   7.429   3.538   3.603  0.9623  2.6478 -1.6271
   13MOL    H20 4604   6.950   3.503   3.298 -0.0068  0.1453 -1.6809
   13MOL    C21 4605   6.993   3.274   3.490  0.0630  0.5929 -0.4807
   13MOL    C22 4606   7.069   3.168   3.574 -0.0322 -1.1065  0.4121
   13MOL    O23 4607   6.977   3.120   3.679  0.4001  0.4456 -0.2192
   13MOL    C24 4608   6.985   3.200   3.795 -0.0269  0.8437 -0.4520
   13MOL    C25 4609   6.924   3.133   3.917 -0.0205  0.5476  0.3869
   13MOL    C26 4610   6.959   3.197   4.053  0.8864  0.5741  0.1921
   13MOL    C27 4611   6.770   3.116   3.906  0.2404  0.3428  0.2315
   13MOL    H28 4612   6.926   3.328   3.557 -0.6092 -0.5637 -0.2105
   13MOL    H29 4613   6.925   3.218   3.427  0.8802 -0.4200 -0.4740
   13MOL    H30 4614   7.157   3.214   3.618 -0.6315 -0.2155  0.6923
   13MOL    H31 4615   6.935   3.296   3.780 -1.8969  0.5310  3.0938
   13MOL    H32 4616   7.090   3.213   3.819  0.4642 -2.5331 -0.5855
   13MOL    H33 4617   6.970   3.035   3.916 -0.3458  0.3869 -2.6374
   13MOL    H34 4618   7.066   3.216   4.056  0.8739  0.7069 -0.1551
   13MOL    H35 4619   6.915   3.133   4.130  1.2314 -1.2182 -1.0675
   13MOL    H36 4620   6.899   3.286   4.066  1.3466  0.7523  1.0793
   13MOL    H37 4621   6.735   3.058   3.991  0.6920  2.0650  1.6294
   13MOL    H38 4622   6.720   3.213   3.900 -0.3928 -0.0044 -0.1409
   13MOL    H39 4623   6.732   3.071   3.815 -1.3966 -0.1274  1.1383
   13MOL    C40 4624   7.099   3.039   3.496 -0.5101  0.5225  0.0057
   13MOL    C41 4625   7.224   2.954   3.543 -0.0825 -0.5930  0.1473
   13MOL    O42 4626   7.333   3.039   3.544  0.4690  0.1455 -0.3808
   13MOL    C43 4627   7.432   3.017   3.648 -0.1052 -0.4988  0.6402
   13MOL    C44 4628   7.543   3.130   3.636  0.3136  0.6485 -0.9552
   13MOL    C45 4629   7.473   3.269   3.606  0.3580 -0.6163 -0.1813
   13MOL    C46 4630   7.632   3.142   3.759  0.2315  0.0533 -0.3905
   13MOL    H47 4631   7.123   3.076   3.397  1.1984  1.7746  0.8516
   13MOL    H48 4632   7.009   2.979   3.480  0.9722 -1.6545 -0.3971
   13MOL    H49 4633   7.207   2.900   3.636  1.4758  0.5090  1.0892
   13MOL    H50 4634   7.474   2.916   3.647  0.6022 -0.1989 -0.9146
   13MOL    H51 4635   7.381   3.028   3.744 -0.8102  0.8208  0.1310
   13MOL    H52 4636   7.612   3.110   3.554  1.7198 -2.3082  0.8638
   13MOL    H53 4637   7.553   3.341   3.621  0.8501 -0.9488 -1.1581
   13MOL    H54 4638   7.441   3.275   3.503  2.7467 -0.2604 -0.9453
   13MOL    H55 4639   7.390   3.290   3.673  1.5583 -2.5162  1.9926
   13MOL    H56 4640   7.691   3.051   3.773 -1.3618 -0.9238  0.1302
   13MOL    H57 4641   7.571   3.162   3.847  0.9925  2.0530 -0.2991
   13MOL    H58 4642   7.696   3.230   3.754  1.3965 -0.7861 -0.3476
   13MOL    C59 4643   7.254   2.841   3.442 -0.4854  0.1645 -0.1925
   13MOL    C60 4644   7.155   2.728   3.437  0.1236  0.1683  0.6402
   13MOL    O61 4645   7.163   2.666   3.559  0.2934 -0.4913 -0.0817
   13MOL    C62 4646   7.044   2.672   3.642  0.3103 -0.3339 -0.2180
   13MOL    C63 4647   7.069   2.620   3.783 -0.3893  0.3493 -0.7043
   13MOL    C64 4648   7.175   2.708   3.863  0.8200  0.1356 -0.3300
   13MOL    C65 4649   6.930   2.615   3.860  0.1757  0.5485  0.8363
   13MOL    H66 4650   7.348   2.789   3.458 -0.9676 -0.3538  1.0343
   13MOL    H67 4651   7.255   2.886   3.342  2.6488  1.7343  0.5027
   13MOL    H68 4652   7.057   2.775   3.426  0.4302  0.1461 -3.0589
   13MOL    H69 4653   7.015   2.777   3.648  1.7036 -0.0427  2.2633
   13MOL    H70 4654   6.955   2.621   3.603 -0.3745 -1.0872  2.2380
   13MOL    H71 4655   7.114   2.521   3.776 -0.8631  0.0608  0.3101
   13MOL    H72 4656   7.262   2.727   3.799  2.6856 -0.9325  1.8147
   13MOL    H73 4657   7.210   2.650   3.948  0.6328  0.3448 -0.1092
   13MOL    H74 4658   7.122   2.799   3.889 -1.0448 -0.5552 -1.6559
   13MOL    H75 4659   6.888   2.715   3.877  0.3317  0.4754  1.6715
   13MOL    H76 4660   6.854   2.549   3.817  1.4422  0.2123 -0.9259
   13MOL    H77 4661   6.940   2.578   3.962 -1.3337 -0.9549  0.4564
   13MOL    C78 4662   7.180   2.628   3.320  0.3445 -0.2325  0.4206
   13MOL    C79 4663   7.114   2.655   3.185 -0.2969  0.1357 -0.4523
   13MOL    O80 4664   7.179   2.765   3.113 -0.0687  0.3328  0.0635
   13MOL    C81 4665   7.310   2.744   3.071  0.0992  0.7372  0.4465
   13MOL    C82 4666   7.387   2.871   3.023 -0.5293 -0.0455 -0.4018
   13MOL    C83 4667   7.326   2.910   2.884 -0.5618  0.0103  1.0528
   13MOL    C84 4668   7.543   2.845   3.012 -0.5673 -0.4702  0.1866
   13MOL    H85 4669   7.151   2.530   3.358  0.3126  0.1264  1.3400
   13MOL    H86 4670   7.288   2.628   3.310  0.4431  2.2346  1.2222
   13MOL    H87 4671   7.010   2.685   3.196 -0.7738 -2.0630  1.3014
   13MOL    H88 4672   7.380   2.694   3.138 -0.5092 -0.2816  0.3362
   13MOL    H89 4673   7.300   2.675   2.988 -1.5267 -0.1615  1.3563
   13MOL    H90 4674   7.369   2.952   3.094  1.1581 -0.2950  0.3432
   13MOL    H91 4675   7.219   2.890   2.880 -0.1660 -2.2633  1.1483
   13MOL    H92 4676   7.374   2.861   2.799  0.3333  0.1624  1.4607
   13MOL    H93 4677   7.344   3.014   2.856 -0.9645  0.3692  2.1310
   13MOL    H94 4678   7.578   2.752   2.966 -0.4824 -0.0960 -0.5130
   13MOL    H95 4679   7.595   2.871   3.103 -0.5024  1.9319 -0.4996
   13MOL    H96 4680   7.580   2.914   2.936  0.5922  0.4371  1.5741
   13MOL    C97 4681   7.103   2.526   3.099 -0.1471 -0.8303  0.4627
   13MOL    C98 4682   6.988   2.511   2.994  0.3170 -0.3655 -0.2387
   13MOL    O99 4683   7.002   2.387   2.935 -0.4126 -0.1786 -0.2663
   13MOL   C100 4684   6.964   2.271   3.005 -0.2570  0.0083  0.7918
   13MOL   C101 4685   6.960   2.156   2.902  0.0677  0.0501 -0.2078
   13MOL   C102 4686   6.925   2.022   2.959  0.1043 -0.0884 -0.1989
   13MOL   C103 4687   6.861   2.203   2.791 -0.1010 -0.4677  0.3856
   13MOL   H104 4688   7.094   2.449   3.175  1.8665  0.5723  2.1812
   13MOL   H105 4689   7.190   2.510   3.035 -1.0847 -2.8810 -0.3618
   13MOL   H106 4690   6.891   2.516   3.043  0.5993  1.0696  0.1984
   13MOL   H107 4691   6.870   2.304   3.049 -0.2720  2.4863 -1.0208
   13MOL   H108 4692   7.036   2.238   3.080  0.4199 -1.4713 -0.4834
   13MOL   H109 4693   7.061   2.155   2.862  0.6279  1.4180  1.1032
   13MOL   H110 4694   6.921   1.945   2.882  1.1943  2.3384 -2.7480
   13MOL   H111 4695   7.000   1.996   3.034 -0.3374  0.9918  0.6419
   13MOL   H112 4696   6.828   2.030   3.009  0.2431  3.4771 -0.3524
   13MOL   H113 4697   6.913   2.274   2.727 -2.8967  0.3211 -1.0901
   13MOL   H114 4698   6.830   2.123   2.723  0.5596  0.8598 -1.5078
   13MOL   H115 4699   6.771   2.249   2.832  0.3438  1.0925 -0.3749
   13MOL   C116 4700   6.982   2.629   2.891 -0.5902 -0.3925  0.2880
   13MOL   C117 4701   6.865   2.624   2.791 -0.6649  0.1949  0.1146
   13MOL   O118 4702   6.740   2.638   2.857 -0.8488 -0.1658  0.6467
   13MOL   C119 4703   6.623   2.600   2.783  0.7001 -0.5252  0.1496
   13MOL   C120 4704   6.495   2.600   2.879  0.0894 -0.1553  0.1268
   13MOL   C121 4705   6.369   2.543   2.812  0.0917 -0.8133  0.0277
   13MOL   C122 4706   6.520   2.516   3.002 -0.1102 -0.7748 -0.3257
   13MOL   H123 4707   6.981   2.726   2.940 -1.1413 -1.2383  1.9973
   13MOL   H124 4708   7.076   2.623   2.836 -1.2675  0.1511 -0.9492
   13MOL   H125 4709   6.872   2.522   2.752 -0.0557 -0.5156  2.0380
   13MOL   H126 4710   6.638   2.498   2.750  1.0983 -0.4373  0.0596
   13MOL   H127 4711   6.609   2.658   2.692 -1.3719 -0.5080  0.4544
   13MOL   H128 4712   6.476   2.703   2.908 -1.1454  0.0047 -1.1992
   13MOL   H129 4713   6.376   2.437   2.792  1.8261 -0.7639  0.2325
   13MOL   H130 4714   6.338   2.594   2.721 -3.1269 -1.2314  0.8266
   13MOL   H131 4715   6.282   2.542   2.878  1.2471 -0.8094  1.5873
   13MOL   H132 4716   6.452   2.529   3.086  2.0331  2.9116  0.9693
   13MOL   H133 4717   6.538   2.411   2.979  1.6386 -0.7183  0.7027
   13MOL   H134 4718   6.617   2.552   3.037 -0.2356  1.0275 -1.7403
   13MOL   C135 4719   6.882   2.740   2.688  0.8096 -0.1996 -0.3310
   13MOL   C136 4720   6.845   2.875   2.740 -0.2439 -0.2477 -0.3398
   13MOL   O137 4721   6.941   2.932   2.827 -0.4292 -0.1923 -0.5094
   13MOL   C138 4722   6.887   2.970   2.947 -0.6831  0.2515 -0.6136
   13MOL   C139 4723   6.986   3.047   3.035 -0.0518  0.3107  0.1483
   13MOL   C140 4724   7.030   3.177   2.965  0.4368  0.5356  0.3034
   13MOL   C141 4725   6.913   3.082   3.166  0.0634  0.6693  0.0013
   13MOL   H142 4726   6.982   2.747   2.645  0.5358  0.8966 -0.8273
   13MOL   H143 4727   6.828   2.720   2.596  0.0799  0.5747 -0.0799
   13MOL   H144 4728   6.746   2.876   2.784  0.1564  0.4931  0.5636
   13MOL   H145 4729   6.848   2.881   2.995  0.2240  1.1635  1.9021
   13MOL   H146 4730   6.802   3.038   2.935 -0.4628  0.3445 -1.6867
   13MOL   H147 4731   7.075   2.994   3.070 -0.7346 -0.5204  0.6757
   13MOL   H148 4732   6.949   3.250   2.970 -0.6641 -0.7193  0.9865
   13MOL   H149 4733   7.059   3.170   2.860  0.5624 -3.3640  0.5433
   13MOL   H150 4734   7.115   3.225   3.014  0.4202 -0.2079  1.0543
   13MOL   H151 4735   6.985   3.119   3.240  1.5545  0.6646 -1.4140
   13MOL   H152 4736   6.845   3.165   3.149  1.7015  2.3265  1.3295
   13MOL   H153 4737   6.848   3.004   3.205  0.4787  0.2704 -0.0995
   13MOL   C154 4738   6.838   2.970   2.622  0.2051  0.3183 -0.3576
   13MOL   C155 4739   6.795   3.113   2.652 -0.1313  0.1845  0.7045
   13MOL   O156 4740   6.818   3.198   2.529  0.2241  0.6310  0.0525
   13MOL   C157 4741   6.942   3.263   2.510 -0.4486 -0.2362  0.1327
   13MOL   C158 4742   6.948   3.339   2.376 -0.8122 -0.4768  0.4394
   13MOL   C159 4743   6.950   3.233   2.265 -0.5568 -0.3699  0.3805
   13MOL   C160 4744   6.845   3.448   2.359  1.0613  0.3637 -0.5170
   13MOL   H161 4745   6.784   2.930   2.536  0.7931 -1.2738 -0.0044
   13MOL   H162 4746   6.939   2.986   2.583 -0.3024  1.3351 -1.2772
   13MOL   H163 4747   6.857   3.155   2.731 -0.4516  0.1308  0.9877
   13MOL   H164 4748   7.033   3.208   2.535  0.5647  2.0603  1.7903
   13MOL   H165 4749   6.948   3.341   2.586  0.6003  2.2223 -2.3638
   13MOL   H166 4750   7.043   3.393   2.374 -0.7908 -0.5578 -1.4952
   13MOL   H167 4751   6.854   3.181   2.257 -0.6199  0.0487 -2.1030
   13MOL   H168 4752   7.044   3.179   2.269 -0.5200 -0.2558  1.0072
   13MOL   H169 4753   6.951   3.293   2.174  4.1082 -0.5084  0.2470
   13MOL   H170 4754   6.845   3.538   2.421  2.4519  2.3441 -3.2553
   13MOL   H171 4755   6.852   3.488   2.258  0.2472 -0.3697 -0.8692
   13MOL   H172 4756   6.743   3.413   2.377  0.7785  2.3907  2.1625
   13MOL   C173 4757   6.652   3.133   2.704  0.5671  0.3322 -1.0414
   13MOL   C174 4758   6.536   3.080   2.618  0.6833 -0.5384  0.3275
   13MOL   O175 4759   6.419   3.068   2.706  0.1325 -0.2841  0.2556
   13MOL   C176 4760   6.414   2.951   2.794 -0.0465  0.1087  0.1117
   13MOL   C177 4761   6.290   2.947   2.883  0.4191 -0.2834 -0.4238
   13MOL   C178 4762   6.291   3.064   2.975  0.4008 -0.8777  0.0628
   13MOL   C179 4763   6.163   2.937   2.802 -0.2095  0.6107 -0.6308
   13MOL   H180 4764   6.646   3.085   2.801  0.4734 -0.7136 -1.5574
   13MOL   H181 4765   6.634   3.240   2.719  1.5026  0.4660 -0.7944
   13MOL   H182 4766   6.561   2.978   2.588 -0.4396 -1.1974  1.5708
   13MOL   H183 4767   6.502   2.950   2.858  0.1575 -0.7204 -0.1771
   13MOL   H184 4768   6.414   2.860   2.735 -4.9099  0.6837 -0.9589
   13MOL   H185 4769   6.300   2.851   2.933  1.3214  0.1470  0.2391
   13MOL   H186 4770   6.391   3.093   3.008  0.5455 -0.8669 -0.3755
   13MOL   H187 4771   6.259   3.155   2.925 -2.2383 -2.1658 -0.6802
   13MOL   H188 4772   6.230   3.039   3.062  0.9145  1.5250  1.1632
   13MOL   H189 4773   6.081   2.895   2.861  0.8331 -1.0578 -0.3208
   13MOL   H190 4774   6.175   2.857   2.729 -3.4778 -0.0191 -0.5378
   13MOL   H191 4775   6.135   3.038   2.772 -0.1502  0.9407  0.4089
   13MOL   C192 4776   6.495   3.166   2.496 -0.1950  0.7433 -0.5534
   13MOL   C193 4777   6.441   3.071   2.388 -0.0899  0.5166 -0.5178
   13MOL   O194 4778   6.414   3.137   2.263  0.3216 -0.5027  0.1252
   13MOL   C195 4779   6.527   3.184   2.187 -0.1986  0.2751  0.5601
   13MOL   C196 4780   6.479   3.257   2.062  0.4258  0.1503 -0.0100
   13MOL   C197 4781   6.600   3.289   1.965 -0.5306 -0.2244 -0.0187
   13MOL   C198 4782   6.388   3.379   2.095 -0.2994  0.4529 -0.1589
   13MOL   H199 4783   6.584   3.210   2.451  1.2800 -0.3543  1.2097
   13MOL   H200 4784   6.427   3.251   2.506  0.1802  0.9714  0.0874
   13MOL   H201 4785   6.499   2.981   2.364 -1.4755 -0.5305  0.0026
   13MOL   H202 4786   6.589   3.102   2.152 -0.3432  1.2197 -2.0092
   13MOL   H203 4787   6.589   3.255   2.242 -0.8879  0.3951  1.1860
   13MOL   H204 4788   6.408   3.194   2.006 -0.3427  0.0547  1.0610
   13MOL   H205 4789   6.654   3.196   1.943 -1.2035 -0.5201 -0.4332
   13MOL   H206 4790   6.573   3.327   1.867  0.0237  1.0971  0.3370
   13MOL   H207 4791   6.670   3.352   2.019  0.5070 -0.8215 -0.6445
   13MOL   H208 4792   6.336   3.404   2.003  0.5301  0.3059 -0.6787
   13MOL   H209 4793   6.325   3.367   2.183  1.8661 -1.7297  1.1580
   13MOL   H210 4794   6.456   3.461   2.117 -1.0648  1.0292  0.0526
   13MOL   C211 4795   6.303   3.026   2.430  0.2212  0.5236 -0.2946
   13MOL   C212 4796   6.241   2.906   2.345  0.6337 -0.0968  0.4497
   13MOL   O213 4797   6.326   2.794   2.363 -0.7707 -0.7624 -0.0674
   13MOL   C214 4798   6.341   2.703   2.262 -0.8620  0.4516  0.5537
   13MOL   C215 4799   6.385   2.576   2.337 -0.1188 -0.0627 -0.3273
   13MOL   C216 4800   6.454   2.485   2.237 -0.2555  0.8695 -0.2894
   13MOL   C217 4801   6.479   2.589   2.458  0.2345 -0.1366  0.1509
   13MOL   H218 4802   6.237   3.112   2.429 -1.3901 -0.6681  0.3610
   13MOL   H219 4803   6.293   2.981   2.530 -2.0570  0.3389 -0.5781
   13MOL   H220 4804   6.238   2.939   2.241  1.8079 -1.1841  0.0596
   13MOL   H221 4805   6.408   2.731   2.181 -1.1296  0.1850  0.2407
   13MOL   H222 4806   6.245   2.681   2.215 -1.1658  0.9971  0.9069
   13MOL   H223 4807   6.291   2.534   2.373 -0.9755  1.6399 -0.5017
   13MOL   H224 4808   6.448   2.381   2.268  1.1308  0.9742  0.3526
   13MOL   H225 4809   6.407   2.489   2.138 -1.4100 -2.1049  0.0997
   13MOL   H226 4810   6.560   2.513   2.240  0.3145 -1.2212 -0.4550
   13MOL   H227 4811   6.495   2.493   2.506  1.2722  0.7662  1.6674
   13MOL   H228 4812   6.420   2.657   2.519  0.8643  2.1747 -1.6874
   13MOL   H229 4813   6.571   2.640   2.427  1.2449 -1.1863  1.3643
   13MOL   C230 4814   6.091   2.867   2.382  0.5925  0.2394  0.7093
   13MOL   C231 4815   5.988   2.984   2.361  0.1921 -0.1041  0.2186
   13MOL   O232 4816   6.002   3.033   2.232 -1.1007 -0.4086 -0.0319
   13MOL   C233 4817   5.955   3.167   2.208 -0.5299 -0.4120 -0.5057
   13MOL   C234 4818   5.883   3.188   2.072 -0.8589  0.1517  0.2718
   13MOL   C235 4819   5.959   3.129   1.938  0.4144  0.4670  0.2518
   13MOL   C236 4820   5.732   3.135   2.077 -0.3582 -0.8995 -0.6555
   13MOL   H237 4821   6.089   2.844   2.488  1.0023  0.5770  0.7966
   13MOL   H238 4822   6.059   2.783   2.321 -0.7967  1.6593 -0.5580
   13MOL   H239 4823   6.006   3.071   2.425 -2.1677 -1.6202  3.0914
   13MOL   H240 4824   5.902   3.217   2.289  1.3345  2.0038 -0.7039
   13MOL   H241 4825   6.045   3.228   2.205 -1.1885  0.6495  0.7466
   13MOL   H242 4826   5.895   3.294   2.047  2.0352 -0.7243 -2.5191
   13MOL   H243 4827   5.899   3.143   1.848  1.0137 -0.3383 -0.2755
   13MOL   H244 4828   5.975   3.022   1.931 -1.6438 -0.1239  3.6696
   13MOL   H245 4829   6.047   3.189   1.915  0.4485 -0.1137 -1.1734
   13MOL   H246 4830   5.666   3.163   2.159  3.5472 -0.7517  2.6407
   13MOL   H247 4831   5.680   3.167   1.988 -2.0647 -1.1836  0.2298
   13MOL   H248 4832   5.733   3.026   2.081  1.9240 -0.8508  2.0310
   13MOL   C249 4833   5.837   2.934   2.387 -0.1436  0.2543  0.1375
   13MOL   C250 4834   5.813   2.899   2.540 -0.3405 -0.0330  0.4559
   13MOL   O251 4835   5.880   2.779   2.586 -0.4058  0.0292 -0.0135
   13MOL   C252 4836   5.820   2.661   2.534 -0.1359  0.1767  0.3081
   13MOL   C253 4837   5.876   2.538   2.608 -0.8033  0.5052 -0.0928
   13MOL   C254 4838   6.024   2.530   2.611  0.1951 -0.3461 -0.1305
   13MOL   C255 4839   5.814   2.413   2.547 -0.1971  0.6102 -0.1910
   13MOL   H256 4840   5.811   2.847   2.326  0.9177  0.4599 -0.6365
   13MOL   H257 4841   5.770   3.016   2.361  0.8217  0.9638 -0.1236
   13MOL   H258 4842   5.710   2.874   2.564 -0.3208  0.3768  0.9782
   13MOL   H259 4843   5.713   2.671   2.553 -0.3603 -0.9367 -0.3642
   13MOL   H260 4844   5.857   2.653   2.432  1.5487  1.9153  0.7418
   13MOL   H261 4845   5.839   2.545   2.711  0.5297  2.3948  0.2825
   13MOL   H262 4846   6.071   2.542   2.513 -1.4012  1.7124 -0.6737
   13MOL   H263 4847   6.057   2.439   2.662 -1.0248 -0.1834  0.9545
   13MOL   H264 4848   6.063   2.606   2.679  0.1372 -1.5956  1.3268
   13MOL   H265 4849   5.849   2.322   2.595 -1.5438 -0.8508 -1.9300
   13MOL   H266 4850   5.705   2.418   2.543 -0.2590 -1.3334 -1.2787
   13MOL   H267 4851   5.842   2.406   2.442 -0.4324  0.7636 -0.2646
   13MOL   C268 4852   5.857   3.004   2.645 -0.1247 -0.8118 -0.0779
   13MOL   C269 4853   5.818   3.147   2.619 -0.1985 -0.1590 -0.3082
   13MOL   O270 4854   5.891   3.235   2.705  0.3409  0.2356  0.1145
   13MOL   C271 4855   6.003   3.291   2.638 -0.0377  0.3233 -0.2986
   13MOL   C272 4856   6.080   3.384   2.740 -0.1012 -0.1340 -0.5395
   13MOL   C273 4857   6.220   3.417   2.685  0.0298 -0.0270 -0.3100
   13MOL   C274 4858   6.003   3.513   2.750  0.2806 -0.1207 -0.5958
   13MOL   H275 4859   5.966   2.998   2.651 -0.1968 -1.5315  0.4972
   13MOL   H276 4860   5.812   2.968   2.737 -0.2502 -1.3743 -0.3538
   13MOL   H277 4861   5.823   3.158   2.511  1.2399 -3.5404 -0.6283
   13MOL   H278 4862   6.062   3.205   2.607  1.3483  0.7190  1.1807
   13MOL   H279 4863   5.969   3.357   2.558 -0.5966 -1.2602 -1.3914
   13MOL   H280 4864   6.086   3.324   2.831  0.8843  0.6111 -0.1052
   13MOL   H281 4865   6.215   3.454   2.583  0.1156  2.0463  0.4075
   13MOL   H282 4866   6.266   3.318   2.684 -0.1316 -0.1084  0.2333
   13MOL   H283 4867   6.280   3.490   2.740  1.2413 -0.5800 -0.8725
   13MOL   H284 4868   6.049   3.575   2.827  1.4717 -1.5768 -0.1010
   13MOL   H285 4869   5.908   3.473   2.783  0.0719  0.6502 -0.2561
   13MOL   H286 4870   5.975   3.569   2.662  0.2548  0.2307 -0.3663
   13MOL   C287 4871   5.670   3.174   2.649  0.6981  0.2568  0.2370
   13MOL   C288 4872   5.635   3.323   2.623 -0.1656 -0.3478  0.0500
   13MOL   O289 4873   5.522   3.352   2.699  0.2619 -0.3010  0.3688
   13MOL   C290 4874   5.540   3.452   2.804 -0.2466 -0.5595 -0.2927
   13MOL   C291 4875   5.425   3.470   2.899  0.4711 -0.0966 -0.2409
   13MOL   C292 4876   5.468   3.576   3.005  0.2328  0.5803  0.7623
   13MOL   C293 4877   5.374   3.338   2.962  0.7080 -0.0959  0.0608
   13MOL   H294 4878   5.644   3.154   2.754  1.3861  0.0014  0.3598
   13MOL   H295 4879   5.609   3.100   2.597  0.7403  0.9749 -0.8313
   13MOL   H296 4880   5.716   3.394   2.643 -1.4332  1.4504 -1.0798
   13MOL   H297 4881   5.620   3.421   2.871 -0.7481  0.4605  0.8126
   13MOL   H298 4882   5.555   3.544   2.748  2.0217 -0.3532  0.6068
   13MOL   H299 4883   5.341   3.511   2.843  2.2498  0.5052 -2.5205
   13MOL   H300 4884   5.467   3.675   2.958 -1.2562 -0.4336 -1.4235
   13MOL   H301 4885   5.567   3.547   3.040 -0.0413 -0.8397  0.3760
   13MOL   H302 4886   5.383   3.575   3.073  0.2997  1.2775  0.8640
   13MOL   H303 4887   5.338   3.283   2.876  1.3126 -0.7276  0.2062
   13MOL   H304 4888   5.446   3.273   3.012 -0.9187 -2.9228 -1.1649
   13MOL   H305 4889   5.283   3.345   3.020 -0.6375 -1.3359 -1.8547
   13MOL   C306 4890   5.603   3.344   2.480 -0.1765  0.4322  0.5533
   13MOL   C307 4891   5.541   3.481   2.454 -0.0600  0.0671  0.0794
   13MOL   O308 4892   5.646   3.581   2.456  0.2687  0.0298  0.4089
   13MOL   C309 4893   5.617   3.710   2.505 -0.2318  0.1202  0.1910
   13MOL   C310 4894   5.707   3.811   2.435 -0.1256  0.5200  0.1491
   13MOL   C311 4895   5.680   3.813   2.285  0.6151  0.1220  0.4514
   13MOL   C312 4896   5.860   3.786   2.465 -0.4767 -0.1795  0.4899
   13MOL   H313 4897   5.541   3.263   2.442 -0.0792  1.3106 -1.5369
   13MOL   H314 4898   5.695   3.337   2.423  0.0976  0.2310  1.0178
   13MOL   H315 4899   5.464   3.503   2.528  1.1361  2.5979  0.6372
   13MOL   H316 4900   5.623   3.725   2.613 -0.6450  0.6350  0.1424
   13MOL   H317 4901   5.511   3.728   2.488  0.1679  3.3279  0.7832
   13MOL   H318 4902   5.675   3.908   2.473  0.6012  0.3968  1.1113
   13MOL   H319 4903   5.573   3.824   2.268  0.4442  0.0754  1.4379
   13MOL   H320 4904   5.716   3.724   2.234  1.0269  0.6081 -0.1132
   13MOL   H321 4905   5.724   3.901   2.239 -1.6615  0.4698 -1.0917
   13MOL   H322 4906   5.917   3.855   2.404  0.2627  0.0201  1.3970
   13MOL   H323 4907   5.885   3.681   2.447  0.6008  0.1121  0.2546
   13MOL   H324 4908   5.875   3.809   2.571 -0.6159 -1.6501  0.8452
   13MOL   C325 4909   5.473   3.491   2.313  0.4052  0.4674  0.2451
   13MOL   C326 4910   5.360   3.589   2.293 -0.1800 -0.5582 -0.6310
   13MOL   O327 4911   5.303   3.578   2.161  0.1429  0.5851  0.6321
   13MOL   C328 4912   5.372   3.635   2.056  0.2359  0.9465  0.4327
   13MOL   C329 4913   5.279   3.663   1.935  0.4567 -0.1826 -0.4796
   13MOL   C330 4914   5.157   3.741   1.981 -0.0231  0.4548  0.7161
   13MOL   C331 4915   5.349   3.744   1.830 -0.2130 -0.0460  0.6387
   13MOL   H332 4916   5.432   3.393   2.287  1.4293 -0.3247  1.5421
   13MOL   H333 4917   5.557   3.504   2.245 -0.5347  2.1450 -0.6411
   13MOL   H334 4918   5.385   3.692   2.317  1.4320 -1.0709 -0.0408
   13MOL   H335 4919   5.411   3.728   2.098 -1.3271  2.7299 -1.9229
   13MOL   H336 4920   5.453   3.570   2.025 -2.0798 -1.4523 -0.8491
   13MOL   H337 4921   5.245   3.569   1.892  2.4927 -1.1888  0.0621
   13MOL   H338 4922   5.188   3.834   2.028 -1.5521  1.2258  0.2289
   13MOL   H339 4923   5.088   3.765   1.900  1.2437 -0.6251 -0.7181
   13MOL   H340 4924   5.087   3.693   2.051 -2.1782  1.0508 -0.9771
   13MOL   H341 4925   5.366   3.849   1.854  2.7151 -0.7665  2.0415
   13MOL   H342 4926   5.445   3.700   1.801 -0.6665 -0.5943 -0.0361
   13MOL   H343 4927   5.288   3.740   1.740  0.4917 -0.2087  0.1642
   13MOL   C344 4928   5.250   3.558   2.394  0.4200 -0.1425  0.5291
   13MOL   C345 4929   5.106   3.598   2.347 -0.2686  0.4647  0.0129
   13MOL   O346 4930   5.011   3.546   2.436 -0.3578  0.6050 -0.7735
   13MOL   C347 4931   4.936   3.435   2.390 -0.4261 -0.2478  0.2904
   13MOL   C348 4932   4.865   3.376   2.510 -0.0494  0.0033 -0.3077
   13MOL   C349 4933   4.958   3.353   2.635 -1.1361 -0.8448 -0.7348
   13MOL   C350 4934   4.785   3.262   2.461  0.6597  0.3830 -0.0567
   13MOL   H351 4935   5.252   3.611   2.489  0.3687  2.8576 -1.0717
   13MOL   H352 4936   5.249   3.454   2.426 -1.7554 -0.2427  0.2288
   13MOL   H353 4937   5.081   3.565   2.246  2.8343 -0.5015 -0.4792
   13MOL   H354 4938   5.008   3.363   2.353  2.7670  2.6259  0.6982
   13MOL   H355 4939   4.861   3.462   2.316 -1.2631 -0.0839  1.1746
   13MOL   H356 4940   4.807   3.460   2.547  2.5499  1.3304  0.9565
   13MOL   H357 4941   4.999   3.449   2.668 -2.8404 -0.5305  0.5239
   13MOL   H358 4942   5.044   3.287   2.622  1.5811  2.0572  1.6474
   13MOL   H359 4943   4.896   3.319   2.718 -0.2103 -1.5487 -0.3156
   13MOL   H360 4944   4.736   3.212   2.545  3.1844 -1.1255  0.5606
   13MOL   H361 4945   4.713   3.292   2.384 -0.2715 -0.3495  0.5099
   13MOL   H362 4946   4.844   3.186   2.411  0.1250 -0.4903  0.6069
   13MOL   C363 4947   5.081   3.750   2.356  0.4630  0.1097  0.6531
   13MOL   C364 4948   4.932   3.788   2.328 -0.3670 -0.1455  0.3460
   13MOL   O365 4949   4.887   3.733   2.204  0.1310  0.3152 -0.1251
   13MOL   C366 4950   4.744   3.715   2.202 -0.1702 -0.2972  0.3142
   13MOL   C367 4951   4.692   3.654   2.069 -0.0821  0.2402 -0.6618
   13MOL   C368 4952   4.741   3.512   2.039 -0.3883 -0.0920 -0.2797
   13MOL   C369 4953   4.707   3.735   1.945 -0.0144 -0.3902 -0.0350
   13MOL   H370 4954   5.124   3.792   2.447 -1.9637  3.3982  0.3778
   13MOL   H371 4955   5.130   3.789   2.267  1.1314 -1.6116  0.2310
   13MOL   H372 4956   4.917   3.895   2.316 -0.0441 -0.1250  0.1117
   13MOL   H373 4957   4.708   3.644   2.276 -0.0801 -0.2243  0.4282
   13MOL   H374 4958   4.696   3.811   2.227  0.0209  0.2191 -1.2643
   13MOL   H375 4959   4.585   3.642   2.088  0.2032  1.3447  1.9550
   13MOL   H376 4960   4.844   3.496   2.005 -1.3303 -0.3118 -3.1948
   13MOL   H377 4961   4.682   3.471   1.957 -2.6055  1.4490  0.4915
   13MOL   H378 4962   4.721   3.458   2.132  1.0698 -0.0203  0.0835
   13MOL   H379 4963   4.811   3.751   1.918  0.0030 -0.6119 -0.1004
   13MOL   H380 4964   4.656   3.831   1.942 -0.0126 -0.4404 -3.1389
   13MOL   H381 4965   4.668   3.674   1.864 -2.5992 -0.5441  1.2933
   13MOL   H382 4966   4.869   3.761   2.412 -1.4591  0.1918 -0.3539
   14MOL     C1 4967   0.002   6.246   2.812 -0.0950 -0.0608 -0.6158
   14MOL     C2 4968   0.096   6.286   2.704  0.4988  0.5907 -0.2041
   14MOL     O3 4969   0.104   6.158   2.638  0.2868 -0.3753  0.2553
   14MOL     C4 4970   0.233   6.113   2.596  0.0273  0.0477  0.2258
   14MOL     C5 4971   0.221   5.982   2.507 -0.3544 -0.0379  0.0680
   14MOL     C6 4972   0.131   6.016   2.391 -0.5998  0.0890 -0.5549
   14MOL     C7 4973   0.177   5.863   2.585  0.7911 -0.0020  0.3979
   14MOL     H8 4974   0.003   6.333   2.878 -0.3892  1.4723 -2.5929
   14MOL     H9 4975   7.724   6.225   2.782 -0.9540  0.8782  1.5615
   14MOL    H10 4976   0.193   6.311   2.747  0.8090  0.5075 -0.8549
   14MOL    H11 4977   0.304   6.108   2.679  0.8951 -0.3445 -0.5316
   14MOL    H12 4978   0.286   6.179   2.527  0.2834 -0.5199 -0.1232
   14MOL    H13 4979   0.321   5.959   2.470 -0.8247 -1.0233 -0.6042
   14MOL    H14 4980   0.149   6.109   2.338 -0.1197  0.0678 -0.4408
   14MOL    H15 4981   0.125   5.936   2.317  1.6037 -0.3545 -0.3203
   14MOL    H16 4982   0.029   6.026   2.427 -0.6908 -1.3234 -0.3883
   14MOL    H17 4983   0.074   5.876   2.617  1.6672  2.8796  2.2786
   14MOL    H18 4984   0.183   5.762   2.545 -2.0922 -1.1007  2.5646
   14MOL    H19 4985   0.238   5.842   2.673  0.3153  1.7702  1.1755
   14MOL    H20 4986   0.047   6.164   2.868 -1.0527 -0.4636 -0.4281
   14MOL    C21 4987   0.037   6.401   2.615  0.0065  0.3126  0.1607
   14MOL    C22 4988   0.118   6.449   2.495  0.0820  0.4671 -0.4160
   14MOL    O23 4989   0.051   6.553   2.426  0.0834 -0.0407 -0.3347
   14MOL    C24 4990   7.792   6.490   2.333 -0.2549  0.1407 -0.0337
   14MOL    C25 4991   7.730   6.589   2.237 -0.3938 -0.5727  0.3070
   14MOL    C26 4992   0.006   6.667   2.153 -0.4226 -0.7500  0.1667
   14MOL    C27 4993   7.627   6.509   2.161  0.1996 -0.4694  0.1668
   14MOL    H28 4994   7.759   6.373   2.589 -0.8812  1.8370  1.9573
   14MOL    H29 4995   0.031   6.487   2.681 -0.4748  2.7118 -2.8780
   14MOL    H30 4996   0.140   6.361   2.434 -0.1097 -0.1485  0.3789
   14MOL    H31 4997   7.714   6.439   2.389 -0.0970 -2.0931 -1.7891
   14MOL    H32 4998   0.032   6.417   2.285  1.3519  0.6287  1.3121
   14MOL    H33 4999   7.679   6.657   2.306  0.7949  1.3962 -0.7200
   14MOL    H34 5000   0.060   6.595   2.091 -0.0041  0.8244 -1.3471
   14MOL    H35 5001   0.066   6.730   2.219 -0.6537 -0.1373 -0.1971
   14MOL    H36 5002   7.776   6.737   2.090  0.2717 -0.9765 -0.7055
   14MOL    H37 5003   7.559   6.462   2.232  1.2367 -2.0446  0.1459
   14MOL    H38 5004   7.572   6.566   2.086 -0.7450  0.8430  1.8299
   14MOL    H39 5005   7.677   6.429   2.106  1.9336 -0.9313  2.3278
   14MOL    C40 5006   0.258   6.501   2.544 -0.9920  0.0213 -0.4002
   14MOL    C41 5007   0.358   6.541   2.427 -0.6748 -0.3673  0.8323
   14MOL    O42 5008   0.438   6.436   2.380  0.1966 -0.3418  0.5034
   14MOL    C43 5009   0.380   6.369   2.263 -0.4402 -0.2151  0.8467
   14MOL    C44 5010   0.498   6.281   2.222  0.5355  0.5323  0.1686
   14MOL    C45 5011   0.630   6.359   2.200 -0.4039 -0.0975 -0.3142
   14MOL    C46 5012   0.530   6.164   2.322 -0.2095  0.3152 -0.5311
   14MOL    H47 5013   0.307   6.421   2.598 -2.2382 -0.2520  0.3554
   14MOL    H48 5014   0.239   6.589   2.604 -1.0235  1.1713 -2.0535
   14MOL    H49 5015   0.311   6.593   2.344  2.0405  0.5187 -0.1836
   14MOL    H50 5016   0.365   6.429   2.174  1.2822  0.0704  0.7305
   14MOL    H51 5017   0.293   6.309   2.290 -1.5711  0.7054 -0.6942
   14MOL    H52 5018   0.462   6.244   2.126 -0.0687  0.2508  0.5066
   14MOL    H53 5019   0.713   6.290   2.183  0.8292  0.7685  2.0339
   14MOL    H54 5020   0.618   6.433   2.122 -3.5825  0.3158  0.4871
   14MOL    H55 5021   0.662   6.411   2.291 -1.5330 -1.9453  1.1832
   14MOL    H56 5022   0.631   6.126   2.311 -0.4266  0.1114 -1.9412
   14MOL    H57 5023   0.471   6.077   2.291  2.3101 -1.3153 -0.8948
   14MOL    H58 5024   0.501   6.195   2.423 -0.7357  4.0440 -1.7752
   14MOL    C59 5025   0.469   6.643   2.486 -0.2097  0.2410 -0.4277
   14MOL    C60 5026   0.536   6.729   2.376 -0.3622 -0.1935  0.3985
   14MOL    O61 5027   0.661   6.788   2.422 -0.0310 -0.3193  0.2337
   14MOL    C62 5028   0.774   6.764   2.344  0.2219 -0.2428  0.9827
   14MOL    C63 5029   0.897   6.812   2.430  0.1116  0.0143  0.6955
   14MOL    C64 5030   1.025   6.800   2.342 -0.4234 -0.0792 -0.1999
   14MOL    C65 5031   0.876   6.954   2.487  0.6122 -0.4400  0.2303
   14MOL    H66 5032   0.541   6.583   2.541  0.8140  0.5182 -1.4559
   14MOL    H67 5033   0.429   6.710   2.562 -2.0288 -1.1078 -0.1607
   14MOL    H68 5034   0.566   6.674   2.286  1.1622 -0.0465  0.7941
   14MOL    H69 5035   0.771   6.660   2.312 -1.3944 -0.2604  1.1449
   14MOL    H70 5036   0.752   6.828   2.258 -1.0605  0.0544  1.5184
   14MOL    H71 5037   0.909   6.750   2.518  1.6272  0.7477  1.0182
   14MOL    H72 5038   1.000   6.850   2.249  0.4720 -1.0347 -0.9649
   14MOL    H73 5039   1.039   6.697   2.309 -0.0720  0.0064 -0.3187
   14MOL    H74 5040   1.121   6.826   2.386 -1.2760  2.8212  0.0274
   14MOL    H75 5041   0.960   7.011   2.526  1.4035 -1.8071  0.5551
   14MOL    H76 5042   0.829   7.012   2.407 -0.9168 -0.3531  1.1597
   14MOL    H77 5043   0.793   6.948   2.557  1.8434  1.6078  1.9405
   14MOL    C78 5044   0.451   6.856   2.336 -0.4119  0.1755  0.0436
   14MOL    C79 5045   0.476   6.928   2.205 -0.0568 -0.5755 -0.0993
   14MOL    O80 5046   0.472   6.836   2.095  0.1387  0.2323  0.4587
   14MOL    C81 5047   0.543   6.868   1.976 -0.2712 -0.2607 -0.2558
   14MOL    C82 5048   0.576   6.749   1.889 -0.5101  1.4044  0.3861
   14MOL    C83 5049   0.458   6.663   1.854  0.0599 -0.2961  0.3157
   14MOL    C84 5050   0.678   6.667   1.969 -0.0431  0.1594 -0.0046
   14MOL    H85 5051   0.477   6.924   2.417 -4.6451 -1.9159  3.4042
   14MOL    H86 5052   0.348   6.832   2.364 -0.6376  0.9459 -0.1331
   14MOL    H87 5053   0.571   6.982   2.201 -0.4824  0.0752 -4.3162
   14MOL    H88 5054   0.474   6.936   1.927 -0.5770  0.2270  0.8205
   14MOL    H89 5055   0.633   6.925   2.001  0.2198 -1.0757 -0.1561
   14MOL    H90 5056   0.613   6.787   1.794 -2.3358  0.4759 -0.7073
   14MOL    H91 5057   0.380   6.721   1.805 -0.2945  0.5710  1.8460
   14MOL    H92 5058   0.409   6.614   1.939 -1.3308 -0.6102 -0.6494
   14MOL    H93 5059   0.495   6.597   1.776  0.2718 -1.0058  1.0044
   14MOL    H94 5060   0.750   6.730   2.021 -0.1119  0.5483 -0.3756
   14MOL    H95 5061   0.718   6.575   1.926  0.9518  0.2182  0.7818
   14MOL    H96 5062   0.614   6.628   2.048 -0.7244  2.1727  0.4607
   14MOL    C97 5063   0.360   7.036   2.183 -0.1120  0.3597 -0.2107
   14MOL    C98 5064   0.394   7.169   2.256  0.0547 -1.2063 -1.2115
   14MOL    O99 5065   0.383   7.138   2.391  0.4792 -0.4954 -0.2777
   14MOL   C100 5066   0.449   7.231   2.485  0.1107 -0.0691  0.1668
   14MOL   C101 5067   0.391   7.187   2.626 -0.4996 -0.6771  0.1163
   14MOL   C102 5068   0.485   7.234   2.747 -0.0442  0.6593  0.0176
   14MOL   C103 5069   0.241   7.227   2.651 -0.2352 -0.1906  0.4896
   14MOL   H104 5070   0.265   6.989   2.208  1.5267 -2.3865  1.0539
   14MOL   H105 5071   0.347   7.060   2.077  0.6283 -1.7645 -0.8028
   14MOL   H106 5072   0.497   7.194   2.231  0.2796 -0.6486  0.2261
   14MOL   H107 5073   0.448   7.335   2.453  2.3289 -0.3051 -0.7557
   14MOL   H108 5074   0.556   7.214   2.490  0.1869  0.2416 -0.3942
   14MOL   H109 5075   0.395   7.078   2.622 -3.1108 -0.7598 -1.3981
   14MOL   H110 5076   0.438   7.200   2.839 -1.8702  0.9345 -0.7820
   14MOL   H111 5077   0.580   7.183   2.738  1.4858  3.6964 -1.9937
   14MOL   H112 5078   0.493   7.343   2.752 -3.3165  0.8494  3.6928
   14MOL   H113 5079   0.224   7.334   2.638  1.4299 -0.1856 -2.0608
   14MOL   H114 5080   0.170   7.183   2.580 -1.0329 -1.1802  1.8918
   14MOL   H115 5081   0.218   7.189   2.750  1.0346 -2.6128 -0.1004
   14MOL   C116 5082   0.304   7.289   2.212 -0.0238 -0.0383 -0.8115
   14MOL   C117 5083   0.342   7.359   2.084 -0.4589  0.2820 -1.2250
   14MOL   O118 5084   0.218   7.410   2.043 -0.1187 -0.3091  0.3258
   14MOL   C119 5085   0.143   7.320   1.956 -0.1636 -0.2287  0.0305
   14MOL   C120 5086   7.823   7.377   1.945  0.0465 -0.3399  0.0475
   14MOL   C121 5087   7.805   7.530   1.926 -0.0421  0.5111  0.0442
   14MOL   C122 5088   7.745   7.288   1.838 -0.4838  0.3223  0.1854
   14MOL   H123 5089   0.200   7.257   2.213 -0.1057  0.1391  3.3757
   14MOL   H124 5090   0.312   7.370   2.284  1.2559 -0.2139 -0.7386
   14MOL   H125 5091   0.391   7.283   2.023 -0.2160 -2.3340  2.0959
   14MOL   H126 5092   0.146   7.216   1.986  0.0330 -0.5291 -1.0098
   14MOL   H127 5093   0.187   7.329   1.857 -1.7409 -0.2180 -0.6988
   14MOL   H128 5094   7.768   7.358   2.038 -0.1896  0.0187 -0.0180
   14MOL   H129 5095   0.010   7.573   1.831  1.1983  1.7317  0.9613
   14MOL   H130 5096   0.030   7.584   2.007 -1.9025  2.2141  0.0731
   14MOL   H131 5097   7.702   7.561   1.942 -0.8989 -1.6306 -1.1619
   14MOL   H132 5098   7.727   7.183   1.859 -1.7282  0.8013  1.6303
   14MOL   H133 5099   7.644   7.329   1.838 -1.3559 -1.7615  0.3948
   14MOL   H134 5100   7.785   7.284   1.737 -0.0646  3.8698  0.1240
   14MOL   C135 5101   0.452   7.474   2.097 -0.4243  1.4817  0.0312
   14MOL   C136 5102   0.486   7.552   1.974  0.1272 -0.1202  0.4825
   14MOL   O137 5103   0.573   7.659   1.987 -0.5604 -0.0179  0.0000
   14MOL   C138 5104   0.527   7.784   2.040  0.6040  0.1056  0.3138
   14MOL   C139 5105   0.634   0.066   2.014 -0.5381 -0.0160 -0.3868
   14MOL   C140 5106   0.773   0.030   2.069  0.6658  0.5390  0.5869
   14MOL   C141 5107   0.649   0.122   1.871  0.3535  0.1544  0.3561
   14MOL   H142 5108   0.428   7.539   2.182  0.2559  0.8823  0.6896
   14MOL   H143 5109   0.546   7.424   2.120 -0.6326 -0.4070 -3.0212
   14MOL   H144 5110   0.394   7.588   1.929  1.2954  3.2561  0.6835
   14MOL   H145 5111   0.508   7.781   2.147 -0.2886 -2.9502  0.1041
   14MOL   H146 5112   0.437   7.813   1.986 -1.3147 -1.8134  2.3883
   14MOL   H147 5113   0.595   0.150   2.071 -1.7271 -0.7814 -0.0602
   14MOL   H148 5114   0.849   0.107   2.054  0.7279  0.1515 -1.1315
   14MOL   H149 5115   0.813   7.763   2.025  0.8711  0.6259  0.5886
   14MOL   H150 5116   0.772   0.012   2.177  0.3774 -0.8492  0.3578
   14MOL   H151 5117   0.709   0.213   1.867  0.8389 -0.0943  1.8425
   14MOL   H152 5118   0.692   0.044   1.809 -1.6671  0.4743 -1.5121
   14MOL   H153 5119   0.547   0.142   1.836 -0.1816 -2.6089  0.2572
   14MOL   C154 5120   0.560   7.468   1.872 -0.0196 -0.4639 -0.1856
   14MOL   C155 5121   0.537   7.528   1.732  0.4306  0.7859  0.2955
   14MOL   O156 5122   0.634   7.477   1.638  0.0647  0.3240 -0.3275
   14MOL   C157 5123   0.752   7.556   1.627 -0.2091 -0.9029  0.0333
   14MOL   C158 5124   0.829   7.487   1.514  0.4520 -0.5577  0.7714
   14MOL   C159 5125   0.872   7.344   1.555  0.0548  0.0869 -0.7444
   14MOL   C160 5126   0.742   7.489   1.390  0.2494 -0.4969 -0.6366
   14MOL   H161 5127   0.531   7.363   1.865  1.4275 -0.9299  0.6563
   14MOL   H162 5128   0.667   7.470   1.893 -0.3225  1.0655  1.2901
   14MOL   H163 5129   0.540   7.636   1.743  2.3197  0.9952 -1.8414
   14MOL   H164 5130   0.809   7.565   1.719  2.5066  0.2555 -1.7139
   14MOL   H165 5131   0.722   7.658   1.604 -0.4436 -0.8353  0.6194
   14MOL   H166 5132   0.913   7.552   1.489  1.1841 -1.0514  1.9364
   14MOL   H167 5133   0.913   7.290   1.469 -0.2090  0.8825 -1.3710
   14MOL   H168 5134   0.782   7.294   1.591 -0.0871  0.1223 -1.0551
   14MOL   H169 5135   0.939   7.345   1.641 -0.5629 -0.4287 -0.2486
   14MOL   H170 5136   0.790   7.426   1.314  0.2164 -2.6724  1.0828
   14MOL   H171 5137   0.647   7.438   1.408  0.1256  0.9703  3.1134
   14MOL   H172 5138   0.704   7.586   1.358 -1.0536 -0.7603  0.0742
   14MOL   C173 5139   0.396   7.492   1.676 -0.8371 -0.2954 -0.4733
   14MOL   C174 5140   0.372   7.552   1.537  0.9222  0.1440  0.1049
   14MOL   O175 5141   0.251   7.493   1.481  0.5262  0.3202  1.1164
   14MOL   C176 5142   0.280   7.396   1.377 -0.6652 -0.1488  0.4968
   14MOL   C177 5143   0.151   7.342   1.308 -0.6790 -0.1144 -0.0806
   14MOL   C178 5144   0.194   7.255   1.190  0.1644 -0.3117 -0.1135
   14MOL   C179 5145   0.066   7.257   1.406  0.2303 -0.4643  0.3709
   14MOL   H180 5146   0.395   7.383   1.666  0.5909 -0.3252 -0.4690
   14MOL   H181 5147   0.310   7.521   1.736  0.2776 -1.1565  1.6037
   14MOL   H182 5148   0.460   7.530   1.477  0.5840 -1.1250  0.0569
   14MOL   H183 5149   0.338   7.312   1.414 -2.8524 -0.9258  2.1975
   14MOL   H184 5150   0.335   7.451   1.300  0.4788  0.0812  1.4504
   14MOL   H185 5151   0.090   7.425   1.272  2.9012  2.0210 -1.4438
   14MOL   H186 5152   0.110   7.211   1.136 -0.2303 -2.6116  2.3221
   14MOL   H187 5153   0.256   7.313   1.121 -0.3438  1.2710  0.7337
   14MOL   H188 5154   0.258   7.172   1.219 -0.5251 -0.5709  0.6853
   14MOL   H189 5155   0.085   7.149   1.408 -0.1707 -0.5662 -0.8750
   14MOL   H190 5156   7.789   7.257   1.366  1.2236 -1.0712 -2.2832
   14MOL   H191 5157   0.076   7.289   1.509 -1.0233 -1.8715  0.9386
   14MOL   C192 5158   0.348   7.704   1.534  0.1439  0.1638  0.3166
   14MOL   C193 5159   0.369   7.766   1.390 -0.4968 -0.1856  0.6192
   14MOL   O194 5160   0.441   0.059   1.408 -0.0421 -0.0720 -0.3129
   14MOL   C195 5161   0.587   0.051   1.391 -0.3803 -0.0719  0.0679
   14MOL   C196 5162   0.640   0.192   1.367  0.0241 -0.0465  0.2093
   14MOL   C197 5163   0.791   0.193   1.329 -0.4393 -0.2403 -0.4914
   14MOL   C198 5164   0.609   0.292   1.473  0.3178  0.0392  0.0480
   14MOL   H199 5165   0.428   7.745   1.596  0.1523 -0.0087  0.4216
   14MOL   H200 5166   0.248   7.728   1.572 -1.6545 -1.9181 -2.8824
   14MOL   H201 5167   0.430   7.703   1.326  0.3705  1.4920 -0.2362
   14MOL   H202 5168   0.609   7.806   1.311 -2.0400  0.3653 -0.8029
   14MOL   H203 5169   0.636   0.010   1.480  0.7929  1.3363  0.0837
   14MOL   H204 5170   0.580   0.234   1.285 -0.1153 -0.5483  0.0558
   14MOL   H205 5171   0.854   0.186   1.418  0.7212  0.3416 -1.2434
   14MOL   H206 5172   0.833   0.115   1.265  0.2156 -0.4550  0.1895
   14MOL   H207 5173   0.808   0.289   1.280 -1.3522  1.9117  3.2160
   14MOL   H208 5174   0.667   0.273   1.563 -1.5686  0.0872  1.2949
   14MOL   H209 5175   0.634   0.395   1.445 -3.0818  0.8191 -0.3623
   14MOL   H210 5176   0.504   0.298   1.502  0.3056  0.2047 -0.0269
   14MOL   C211 5177   0.239   7.786   1.317  0.0654 -0.7235  0.0997
   14MOL   C212 5178   0.245   7.820   1.159  0.6004  0.0647  0.1443
   14MOL   O213 5179   0.121   7.802   1.098 -0.1942  0.2159  0.1202
   14MOL   C214 5180   0.088   7.675   1.033  0.7336 -0.4529 -1.0267
   14MOL   C215 5181   7.773   7.684   0.973  0.6958 -0.0294  0.2104
   14MOL   C216 5182   7.672   7.687   1.076 -0.6167 -0.5074  0.3793
   14MOL   C217 5183   7.763   7.802   0.879  0.4048 -0.6295  0.1830
   14MOL   H218 5184   0.179   0.035   1.371  0.5338 -1.0472  1.0629
   14MOL   H219 5185   0.185   7.692   1.326  0.7326 -1.0998  0.2156
   14MOL   H220 5186   0.316   7.751   1.112 -1.4098  0.2835 -3.3360
   14MOL   H221 5187   0.093   7.608   1.119 -1.5406  0.1908 -0.3411
   14MOL   H222 5188   0.158   7.643   0.957  0.0421  0.1677 -1.9354
   14MOL   H223 5189   7.764   7.591   0.917  0.2297 -0.0797  0.3620
   14MOL   H224 5190   7.683   7.603   1.146  0.7179 -0.0944  0.6796
   14MOL   H225 5191   7.676   7.774   1.141 -0.8616 -0.6525  0.5920
   14MOL   H226 5192   7.570   7.686   1.036 -0.8998  0.9055  1.0424
   14MOL   H227 5193   7.772   0.072   0.931  0.3029  0.2607 -1.3797
   14MOL   H228 5194   7.669   7.811   0.824 -0.1904  1.4391  1.4874
   14MOL   H229 5195   0.017   7.787   0.804  0.2317  1.5018 -0.4516
   14MOL   C230 5196   0.279   0.144   1.152  0.4750  0.3116 -0.3040
   14MOL   C231 5197   0.291   0.182   1.010  0.3883  0.2325  0.1710
   14MOL   O232 5198   0.298   0.328   1.010  0.3824 -0.0069  0.7287
   14MOL   C233 5199   0.166   0.387   1.004 -0.5011  0.0635  0.5674
   14MOL   C234 5200   0.168   0.541   0.990  0.1060 -0.2125  0.7665
   14MOL   C235 5201   0.196   0.601   1.133 -0.3509 -0.1454  0.0807
   14MOL   C236 5202   0.280   0.586   0.896  0.2143 -0.0635 -0.0475
   14MOL   H237 5203   0.374   0.154   1.204  0.7452 -2.5884 -0.1575
   14MOL   H238 5204   0.195   0.201   1.193  0.0894 -0.3622 -0.1527
   14MOL   H239 5205   0.212   0.148   0.944  0.2746 -2.5897  1.6709
   14MOL   H240 5206   0.119   0.355   0.911  2.0792  2.6703 -1.7480
   14MOL   H241 5207   0.100   0.369   1.089 -0.9505  1.4117  0.5180
   14MOL   H242 5208   0.074   0.580   0.952  0.9607 -1.0378 -2.3812
   14MOL   H243 5209   0.098   0.601   1.181  0.8123 -0.8818  2.5716
   14MOL   H244 5210   0.229   0.703   1.149  1.4041 -0.7240  0.2219
   14MOL   H245 5211   0.265   0.536   1.187  0.0814  1.1540  1.0944
   14MOL   H246 5212   0.376   0.550   0.932  1.1473  1.0441 -1.4060
   14MOL   H247 5213   0.272   0.532   0.802 -1.0485  0.3999 -0.2094
   14MOL   H248 5214   0.271   0.694   0.899  0.8795 -0.0227  0.6753
   14MOL   C249 5215   0.433   0.148   0.953 -0.5330 -0.3172  0.3152
   14MOL   C250 5216   0.466   0.224   0.821 -0.4324  0.3371 -0.2864
   14MOL   O251 5217   0.594   0.162   0.779 -0.1474 -0.1180 -0.3982
   14MOL   C252 5218   0.703   0.238   0.837  0.2845  0.2405  0.0029
   14MOL   C253 5219   0.834   0.208   0.755  0.4589 -0.1244 -0.5076
   14MOL   C254 5220   0.953   0.271   0.827 -0.3074  0.3100 -0.9463
   14MOL   C255 5221   0.819   0.263   0.616  0.5342  0.1273 -0.7671
   14MOL   H256 5222   0.451   0.042   0.933  0.4263  0.1382 -1.2861
   14MOL   H257 5223   0.513   0.173   1.023  0.5673 -0.8661 -0.7322
   14MOL   H258 5224   0.471   0.331   0.838 -0.2853  0.5491 -1.6491
   14MOL   H259 5225   0.689   0.346   0.841  2.0205  0.5273 -0.7982
   14MOL   H260 5226   0.714   0.205   0.941  0.4654  1.1751  0.2906
   14MOL   H261 5227   0.845   0.100   0.751  0.0112 -0.1004 -3.7553
   14MOL   H262 5228   0.946   0.380   0.821 -2.2544  0.3792  1.6350
   14MOL   H263 5229   1.031   0.222   0.769 -2.3199 -1.8046 -1.9529
   14MOL   H264 5230   0.961   0.229   0.927  0.4363 -0.0979 -1.1755
   14MOL   H265 5231   0.818   0.372   0.608  0.5529  0.2977  1.1778
   14MOL   H266 5232   0.906   0.233   0.558  1.0007  0.6665 -0.3585
   14MOL   H267 5233   0.726   0.233   0.568  2.1626 -2.1922 -2.5402
   14MOL   C268 5234   0.361   0.182   0.713  0.1824 -0.4300  0.0338
   14MOL   C269 5235   0.397   0.236   0.572 -0.0073 -0.1523 -0.8394
   14MOL   O270 5236   0.378   0.369   0.594 -0.0092  0.0301 -0.0114
   14MOL   C271 5237   0.460   0.456   0.520 -0.3411 -0.0565  0.9552
   14MOL   C272 5238   0.450   0.602   0.583 -0.2181  0.0204 -0.4208
   14MOL   C273 5239   0.559   0.696   0.538 -0.1899  1.0500 -0.5094
   14MOL   C274 5240   0.316   0.683   0.568  0.1473  0.9808  0.2269
   14MOL   H275 5241   0.256   0.207   0.728  0.1092  0.4707 -1.8940
   14MOL   H276 5242   0.354   0.073   0.709 -1.1432 -0.3217 -0.7140
   14MOL   H277 5243   0.502   0.213   0.555  0.0102 -0.5873 -0.1478
   14MOL   H278 5244   0.564   0.425   0.515 -0.2278  0.4315  0.0861
   14MOL   H279 5245   0.419   0.452   0.419 -2.3203  2.6848  1.5668
   14MOL   H280 5246   0.446   0.590   0.692 -0.0659  1.4188 -0.2425
   14MOL   H281 5247   0.654   0.648   0.563 -0.6711  0.2312 -0.2075
   14MOL   H282 5248   0.554   0.785   0.601 -2.5317  1.0084 -0.5891
   14MOL   H283 5249   0.555   0.724   0.433  2.8074 -0.9145 -1.2295
   14MOL   H284 5250   0.234   0.628   0.613  2.7907 -1.6346  2.0258
   14MOL   H285 5251   0.284   0.694   0.464  0.6809  3.3503  0.2853
   14MOL   H286 5252   0.319   0.780   0.617  1.2403 -1.2052  4.7811
   14MOL   C287 5253   0.311   0.175   0.463 -0.7783  0.8183  0.1780
   14MOL   C288 5254   0.374   0.047   0.403  0.9415  0.0382  0.2955
   14MOL   O289 5255   0.397   7.759   0.483  0.5096  0.4455 -0.2897
   14MOL   C290 5256   0.280   7.684   0.538 -0.9287 -0.2062 -0.1446
   14MOL   C291 5257   0.324   7.550   0.588  0.5083 -0.1428 -0.3335
   14MOL   C292 5258   0.412   7.462   0.497  0.6635  0.3880 -0.0447
   14MOL   C293 5259   0.200   7.487   0.657  0.7030 -0.2424 -0.1675
   14MOL   H294 5260   0.300   0.248   0.383 -1.3817  0.4290 -0.1012
   14MOL   H295 5261   0.209   0.146   0.489 -0.1950 -2.6627 -1.1940
   14MOL   H296 5262   0.307   0.006   0.328  0.2558  0.1865  0.8259
   14MOL   H297 5263   0.225   7.750   0.606  0.8315  0.8583  0.2809
   14MOL   H298 5264   0.216   7.663   0.453 -1.2961 -1.9208  0.5333
   14MOL   H299 5265   0.392   7.578   0.668 -2.4437 -0.3273  2.3766
   14MOL   H300 5266   0.505   7.510   0.468  0.5743 -0.0890 -1.1583
   14MOL   H301 5267   0.367   7.426   0.404  0.2051 -1.0541  0.7083
   14MOL   H302 5268   0.434   7.361   0.533  0.4695 -0.1549 -1.4009
   14MOL   H303 5269   0.166   7.544   0.744  1.2517 -0.2402  0.0491
   14MOL   H304 5270   0.108   7.478   0.600 -1.6811  0.2017  3.4503
   14MOL   H305 5271   0.215   7.382   0.681 -0.2858 -0.3391  0.0418
   14MOL   C306 5272   0.506   0.061   0.318 -0.2606 -0.0606  0.5474
   14MOL   C307 5273   0.514   0.176   0.214 -0.0914  0.2517  1.2376
   14MOL   O308 5274   0.640   0.148   0.153  0.8010 -0.4280  0.1522
   14MOL   C309 5275   0.749   0.217   0.206  0.3569 -0.0334 -0.6330
   14MOL   C310 5276   0.871   0.188   0.110 -0.3280 -0.3402 -0.0221
   14MOL   C311 5277   1.003   0.251   0.152  0.2957  0.1291  0.6505
   14MOL   C312 5278   0.835   0.233   7.792  0.6225 -0.3505 -0.3203
   14MOL   H313 5279   0.525   7.787   0.275  1.0430  1.0837 -1.5396
   14MOL   H314 5280   0.589   0.072   0.387 -0.7588 -2.7765  1.6648
   14MOL   H315 5281   0.507   0.273   0.263  2.1454 -0.7008  3.5269
   14MOL   H316 5282   0.765   0.183   0.308 -2.8738 -1.0120 -0.3902
   14MOL   H317 5283   0.726   0.323   0.218  1.4836  0.2314 -0.7865
   14MOL   H318 5284   0.895   0.082   0.102  1.8225  0.0907  0.1730
   14MOL   H319 5285   1.014   0.196   0.246 -1.1149  0.3831  0.9741
   14MOL   H320 5286   1.003   0.355   0.183  0.2441  0.1297  0.6479
   14MOL   H321 5287   1.087   0.213   0.094 -1.2213  0.4089 -1.8156
   14MOL   H322 5288   0.797   0.335   7.800 -0.2532 -0.6890 -0.1325
   14MOL   H323 5289   0.759   0.173   7.742  1.3611 -2.3760  0.9221
   14MOL   H324 5290   0.915   0.240   7.719 -0.3578 -0.9623 -1.4691
   14MOL   C325 5291   0.408   0.160   0.104  0.0116  1.0297  0.0370
   14MOL   C326 5292   0.410   0.035   0.014  0.1264  0.0161 -0.2090
   14MOL   O327 5293   0.345   7.758   0.084  0.0747  0.2427  0.1805
   14MOL   C328 5294   0.380   7.626   0.043 -0.5722 -0.2028  0.4814
   14MOL   C329 5295   0.318   7.538   0.146  0.1972  0.2000 -0.1244
   14MOL   C330 5296   0.163   7.553   0.136  0.1644 -0.0585  0.8523
   14MOL   C331 5297   0.372   7.395   0.136  0.3952  0.7082 -0.1407
   14MOL   H332 5298   0.413   0.253   0.047  0.8145  0.4800 -0.8213
   14MOL   H333 5299   0.307   0.169   0.142 -0.1174  0.6660 -0.2111
   14MOL   H334 5300   0.515   0.006   0.005 -0.3564 -1.2390 -2.1974
   14MOL   H335 5301   0.336   7.613   7.769 -0.0397  1.4925 -0.0009
   14MOL   H336 5302   0.487   7.607   0.034 -0.3288  1.8798 -1.6263
   14MOL   H337 5303   0.342   7.557   0.251 -1.0028 -2.0191  0.5896
   14MOL   H338 5304   0.125   7.651   0.165 -1.9033 -0.9722  1.2858
   14MOL   H339 5305   0.121   7.528   0.039  0.0709  1.3779  0.5098
   14MOL   H340 5306   0.126   7.474   0.202 -0.8603  1.1540  1.7720
   14MOL   H341 5307   0.334   7.326   0.211  0.4289 -1.2125 -1.8606
   14MOL   H342 5308   0.333   7.357   0.042 -2.1934 -0.5949  1.3977
   14MOL   H343 5309   0.480   7.384   0.131  0.4908  1.1484  0.7242
   14MOL   C344 5310   0.349   0.059   7.702 -0.5090 -0.2926 -0.2583
   14MOL   C345 5311   0.464   0.123   7.612 -0.2346  0.7256  0.5582
   14MOL   O346 5312   0.536   0.017   7.562  0.2848 -0.0720 -0.2009
   14MOL   C347 5313   0.654   0.043   7.487 -0.4994  0.5004 -0.3543
   14MOL   C348 5314   0.740   7.738   7.499 -0.1311 -0.2832 -0.2604
   14MOL   C349 5315   0.679   7.629   7.407  0.2898  0.0123  0.1930
   14MOL   C350 5316   0.772   7.689   7.636  0.1313  0.2114  0.5234
   14MOL   H351 5317   0.259   0.119   7.713 -0.2498  0.5710 -2.4743
   14MOL   H352 5318   0.311   7.791   7.659 -0.7503 -0.8255  1.0924
   14MOL   H353 5319   0.540   0.171   7.675 -0.3042 -1.1402  2.1069
   14MOL   H354 5320   0.702   0.127   7.537 -1.9159  0.2587  1.4592
   14MOL   H355 5321   0.640   0.062   7.381 -0.4779 -3.2577 -1.1145
   14MOL   H356 5322   0.832   7.767   7.447 -0.8705  0.3084 -1.2578
   14MOL   H357 5323   0.629   7.673   7.321  2.5400  3.0934  0.3970
   14MOL   H358 5324   0.606   7.570   7.464 -0.4629  0.9758  0.2489
   14MOL   H359 5325   0.760   7.568   7.368  0.8770  1.6824 -1.2344
   14MOL   H360 5326   0.795   7.776   7.697 -0.9493  0.8294  0.0821
   14MOL   H361 5327   0.682   7.647   7.681 -1.9947  0.6917 -3.0604
   14MOL   H362 5328   0.849   7.612   7.638  0.1968  0.2548 -0.0824
   14MOL   C363 5329   0.396   0.210   7.507  0.5172  0.1931 -0.3618
   14MOL   C364 5330   0.358   0.339   7.569 -0.3783  0.3174  0.5035
   14MOL   O365 5331   0.476   0.405   7.608 -0.0452 -0.1105  0.8171
   14MOL   C366 5332   0.444   0.505   7.702  0.2691 -0.0448  0.2531
   14MOL   C367 5333   0.553   0.532   7.807  0.1672  0.1434 -0.0759
   14MOL   C368 5334   0.501   0.616   0.098 -0.3824  0.1752 -0.5587
   14MOL   C369 5335   0.686   0.585   7.738  0.1731  0.2405 -0.4517
   14MOL   H370 5336   0.472   0.226   7.431 -0.1777  0.1857 -1.0679
   14MOL   H371 5337   0.313   0.160   7.456  0.7482  0.7084 -1.2603
   14MOL   H372 5338   0.285   0.326   7.649  0.3804  2.5642  1.6085
   14MOL   H373 5339   0.440   0.602   7.651 -0.5861 -0.4857 -0.5292
   14MOL   H374 5340   0.346   0.487   7.745 -0.0153 -0.0098 -0.3643
   14MOL   H375 5341   0.583   0.439   0.031  2.2163  0.9263  0.2270
   14MOL   H376 5342   0.451   0.552   0.171 -2.1422  3.2017  0.9403
   14MOL   H377 5343   0.421   0.677   0.056 -0.5932  0.8387  0.7820
   14MOL   H378 5344   0.571   0.680   0.151 -1.8936 -0.1364  1.8618
   14MOL   H379 5345   0.674   0.692   7.727  0.1670 -0.0024 -3.1245
   14MOL   H380 5346   0.713   0.535   7.645  3.9872 -1.5885  1.4744
   14MOL   H381 5347   0.772   0.582   7.805  0.4108  0.2901 -0.7531
   14MOL   H382 5348   0.315   0.402   7.491  0.1482  0.4826  0.3434
   15MOL     C1 5349   4.855   2.451   4.921  0.2250  0.2019 -0.0507
   15MOL     C2 5350   4.801   2.319   4.875 -0.0550 -0.1161  0.9090
   15MOL     O3 5351   4.904   2.220   4.866 -0.0493  0.1213 -0.3530
   15MOL     C4 5352   4.898   2.117   4.765 -0.2581  0.0465 -0.0189
   15MOL     C5 5353   4.983   2.158   4.642  0.2428 -1.1023 -0.5840
   15MOL     C6 5354   5.125   2.181   4.683  0.6632 -0.7945  0.4189
   15MOL     C7 5355   4.927   2.280   4.568  0.0389  0.1191  0.0089
   15MOL     H8 5356   4.911   2.440   5.013 -1.6765  1.0783  1.2430
   15MOL     H9 5357   4.936   2.471   4.851  1.2138 -1.4384  0.6210
   15MOL    H10 5358   4.760   2.336   4.775 -0.6461 -1.0409  0.9898
   15MOL    H11 5359   4.792   2.103   4.742 -0.3600  1.0146 -0.1703
   15MOL    H12 5360   4.947   2.027   4.801 -0.2979  0.3532  0.7971
   15MOL    H13 5361   4.971   2.072   4.576  2.4162  0.7247 -3.4178
   15MOL    H14 5362   5.157   2.085   4.722 -1.9830 -1.9996 -0.3079
   15MOL    H15 5363   5.191   2.208   4.600  0.2557 -1.0716  0.0041
   15MOL    H16 5364   5.139   2.254   4.762  1.8376  0.8157 -1.2194
   15MOL    H17 5365   4.819   2.279   4.555 -0.1164  0.2894  1.1869
   15MOL    H18 5366   4.943   2.378   4.613 -1.8572 -0.0347  1.0979
   15MOL    H19 5367   4.987   2.295   4.478  0.8530  1.3446  0.7402
   15MOL    H20 5368   4.774   2.524   4.932 -0.3477 -0.6427  1.4300
   15MOL    C21 5369   4.694   2.260   4.958 -0.2173  0.1032  0.0061
   15MOL    C22 5370   4.571   2.345   4.975 -0.3659  0.8639  0.2328
   15MOL    O23 5371   4.524   2.366   4.842  0.4682  0.2760  0.4675
   15MOL    C24 5372   4.428   2.470   4.830 -0.1212 -0.5746 -0.5523
   15MOL    C25 5373   4.403   2.497   4.680  0.4770 -0.4487  0.6397
   15MOL    C26 5374   4.536   2.519   4.601  0.5609  0.4613  0.4023
   15MOL    C27 5375   4.321   2.389   4.612 -0.2899  0.3520  0.5681
   15MOL    H28 5376   4.668   2.168   4.906 -3.1585  2.2714 -2.5258
   15MOL    H29 5377   4.738   2.240   5.056 -1.4815 -0.1805  0.5316
   15MOL    H30 5378   4.599   2.447   5.004  2.5332  0.9793 -2.7343
   15MOL    H31 5379   4.464   2.555   4.886 -0.7691  0.3105 -1.4532
   15MOL    H32 5380   4.341   2.439   4.888  0.0159  0.1017  0.0203
   15MOL    H33 5381   4.335   2.582   4.674  1.3692  0.2128 -0.5210
   15MOL    H34 5382   4.592   2.598   4.651 -0.8977  0.6327  1.8116
   15MOL    H35 5383   4.525   2.539   4.494 -0.0358  1.1305  0.5876
   15MOL    H36 5384   4.596   2.429   4.592 -0.5301 -0.1161 -1.2877
   15MOL    H37 5385   4.386   2.308   4.580  2.6671  3.1628 -0.8454
   15MOL    H38 5386   4.250   2.343   4.680  0.3616 -1.5660 -0.0023
   15MOL    H39 5387   4.256   2.423   4.532 -0.3205 -2.8217 -0.8034
   15MOL    C40 5388   4.472   2.271   5.070 -0.4133 -0.1727 -0.1678
   15MOL    C41 5389   4.491   2.316   5.216  0.3751 -0.1826  0.4308
   15MOL    O42 5390   4.618   2.260   5.262 -0.6371  0.1884 -0.2319
   15MOL    C43 5391   4.673   2.333   5.364  0.0096 -0.1142 -0.4811
   15MOL    C44 5392   4.791   2.268   5.440  1.2377  0.1142  0.2327
   15MOL    C45 5393   4.920   2.244   5.362 -0.1890  0.3891  0.1429
   15MOL    C46 5394   4.819   2.338   5.573  0.7163  0.1155 -0.3994
   15MOL    H47 5395   4.489   2.165   5.047 -1.2339 -0.1091 -1.1035
   15MOL    H48 5396   4.370   2.297   5.041 -0.7233 -1.4016 -0.2545
   15MOL    H49 5397   4.487   2.425   5.223  0.0670 -0.0902 -1.0209
   15MOL    H50 5398   4.585   2.356   5.424 -0.9242 -0.1621 -1.8115
   15MOL    H51 5399   4.701   2.430   5.324 -0.9609 -0.1509 -1.2545
   15MOL    H52 5400   4.747   2.170   5.451  1.8848 -0.0536  1.4510
   15MOL    H53 5401   4.976   2.157   5.395  1.5184  1.8110  1.0552
   15MOL    H54 5402   4.884   2.236   5.259 -1.2343  3.1639  0.2503
   15MOL    H55 5403   4.983   2.332   5.369 -1.0710  0.8531  2.5724
   15MOL    H56 5404   4.887   2.266   5.618  1.4713  0.3145 -1.2135
   15MOL    H57 5405   4.726   2.339   5.630 -1.0085 -0.7460 -3.0551
   15MOL    H58 5406   4.862   2.438   5.561  0.0038  0.5159  0.3079
   15MOL    C59 5407   4.376   2.255   5.298  0.2963  0.5307 -0.3734
   15MOL    C60 5408   4.235   2.311   5.265 -0.4306  0.1109 -0.2185
   15MOL    O61 5409   4.240   2.451   5.294 -0.1023  0.2016  0.7005
   15MOL    C62 5410   4.193   2.529   5.188 -0.1781 -0.4340  0.0792
   15MOL    C63 5411   4.215   2.673   5.230 -0.3630 -0.5647  0.1327
   15MOL    C64 5412   4.360   2.709   5.247 -0.2122 -0.6200 -0.2742
   15MOL    C65 5413   4.148   2.752   5.121  0.2845  0.2973 -0.2548
   15MOL    H66 5414   4.397   2.270   5.404  0.5858 -0.5588 -0.2713
   15MOL    H67 5415   4.376   2.148   5.276  1.0807  0.4464  0.0281
   15MOL    H68 5416   4.210   2.287   5.162 -1.9957  1.8070 -0.2553
   15MOL    H69 5417   4.253   2.504   5.100 -0.2568  0.7612 -0.3120
   15MOL    H70 5418   4.089   2.503   5.167 -0.3072  0.6639 -0.6628
   15MOL    H71 5419   4.161   2.682   5.324 -0.9079  0.2231 -0.2531
   15MOL    H72 5420   4.414   2.640   5.313  0.1571  1.8949  2.1055
   15MOL    H73 5421   4.367   2.803   5.301  0.1335 -0.5681 -0.4020
   15MOL    H74 5422   4.397   2.707   5.144 -1.3794 -0.0851 -0.7099
   15MOL    H75 5423   4.147   2.857   5.149 -2.3294  0.3970 -0.5999
   15MOL    H76 5424   4.195   2.747   5.023 -0.8311 -0.4885 -0.7485
   15MOL    H77 5425   4.045   2.717   5.118 -0.0718  1.3469 -0.5656
   15MOL    C78 5426   4.138   2.250   5.361  1.0159  0.0737 -0.5482
   15MOL    C79 5427   3.991   2.247   5.308 -0.4376 -0.1523 -0.7475
   15MOL    O80 5428   3.993   2.160   5.192 -0.2338 -0.3648 -0.0208
   15MOL    C81 5429   3.866   2.156   5.122 -0.7973 -0.9239 -0.5661
   15MOL    C82 5430   3.897   2.141   4.973  0.4053  0.1670  0.6549
   15MOL    C83 5431   3.955   2.270   4.918 -0.2614  0.2990 -0.1936
   15MOL    C84 5432   3.766   2.107   4.902  0.0808 -0.3345  0.1117
   15MOL    H85 5433   4.131   2.312   5.450 -1.5880  0.7336 -1.1652
   15MOL    H86 5434   4.161   2.148   5.389  0.1767 -0.8513 -3.1100
   15MOL    H87 5435   3.969   2.349   5.275  0.3528  0.4411  0.5421
   15MOL    H88 5436   3.809   2.070   5.156 -1.8230 -0.4620 -1.1041
   15MOL    H89 5437   3.802   2.241   5.143  0.2760 -0.5078  1.1961
   15MOL    H90 5438   3.965   2.057   4.957 -0.7008 -0.1856 -2.5488
   15MOL    H91 5439   3.875   2.344   4.918 -2.4764 -2.0393 -1.8213
   15MOL    H92 5440   4.003   2.258   4.820  0.0761  1.4386 -0.1826
   15MOL    H93 5441   4.037   2.312   4.977 -0.2433 -1.1954  0.8698
   15MOL    H94 5442   3.779   2.090   4.795  1.9175 -1.1215  0.4442
   15MOL    H95 5443   3.690   2.185   4.905 -0.2427 -0.7025  2.6206
   15MOL    H96 5444   3.733   2.015   4.951  0.9204 -0.4821  0.4087
   15MOL    C97 5445   3.887   2.196   5.420 -0.2140  0.8892  0.0462
   15MOL    C98 5446   3.877   2.278   5.549  0.2818 -0.4278 -0.5271
   15MOL    O99 5447   3.769   2.222   5.618  0.1628  0.4092  0.1854
   15MOL   C100 5448   3.802   2.154   5.736  0.1357 -0.2030 -0.8418
   15MOL   C101 5449   3.678   2.076   5.783  0.5631 -0.7776 -0.2436
   15MOL   C102 5450   3.552   2.161   5.827 -0.4560 -0.5253  0.7478
   15MOL   C103 5451   3.632   1.967   5.683  0.4305  0.3468  0.1829
   15MOL   H104 5452   3.904   2.090   5.441  1.5385  0.5931 -2.5812
   15MOL   H105 5453   3.785   2.196   5.382 -0.9311 -1.9666  1.7691
   15MOL   H106 5454   3.962   2.259   5.614  0.2559  1.8183  0.1938
   15MOL   H107 5455   3.837   2.224   5.811 -0.1370 -0.0765 -0.8342
   15MOL   H108 5456   3.891   2.095   5.715 -0.7335 -0.6512 -3.4579
   15MOL   H109 5457   3.710   2.024   5.873 -0.5252  1.1311  1.2861
   15MOL   H110 5458   3.466   2.098   5.846 -0.6246 -0.2203  0.9942
   15MOL   H111 5459   3.563   2.240   5.902 -1.0306  0.5446 -0.2765
   15MOL   H112 5460   3.516   2.223   5.745  0.4435  1.6854  1.9805
   15MOL   H113 5461   3.562   1.897   5.729 -1.5048  2.3441  0.3585
   15MOL   H114 5462   3.587   2.016   5.596  1.2694  2.4663  0.9306
   15MOL   H115 5463   3.726   1.917   5.661  0.2070 -0.5076  1.1427
   15MOL   C116 5464   3.849   2.426   5.521  0.4689  0.0946 -0.4432
   15MOL   C117 5465   3.872   2.507   5.648  0.6013 -0.3878  0.0178
   15MOL   O118 5466   4.014   2.515   5.643  1.3300 -0.0468  0.0084
   15MOL   C119 5467   4.076   2.585   5.747 -0.4699 -0.5097 -0.6252
   15MOL   C120 5468   4.220   2.530   5.771 -0.2372 -0.5129  0.0795
   15MOL   C121 5469   4.236   2.380   5.797 -0.1173  0.1325  0.4071
   15MOL   C122 5470   4.298   2.572   5.645 -0.8020 -0.2629  0.6938
   15MOL   H123 5471   3.897   2.464   5.431  0.1402  0.1083 -0.6150
   15MOL   H124 5472   3.741   2.416   5.505  0.5306 -0.1969 -0.6844
   15MOL   H125 5473   3.838   2.449   5.734  1.1154 -0.8705 -0.1056
   15MOL   H126 5474   4.034   2.570   5.846 -1.7526  3.3352 -0.5027
   15MOL   H127 5475   4.076   2.693   5.730  0.0143  0.5274  4.9997
   15MOL   H128 5476   4.261   2.581   5.857 -1.2546  2.1630 -0.9682
   15MOL   H129 5477   4.200   2.355   5.897 -0.0228  0.1000  0.4329
   15MOL   H130 5478   4.344   2.361   5.798 -0.2008 -0.4070 -0.7526
   15MOL   H131 5479   4.183   2.329   5.717  3.6574 -1.5087 -1.1524
   15MOL   H132 5480   4.256   2.523   5.557  0.9540  0.7644 -0.7423
   15MOL   H133 5481   4.283   2.677   5.622 -1.4890 -0.5840 -0.4055
   15MOL   H134 5482   4.404   2.550   5.645 -0.4004  1.5590 -1.0284
   15MOL   C135 5483   3.806   2.640   5.635  0.3605  0.6001 -0.6650
   15MOL   C136 5484   3.829   2.721   5.506 -0.0364 -0.5991 -0.2899
   15MOL   O137 5485   3.737   2.684   5.412 -0.4677 -0.9157  0.2469
   15MOL   C138 5486   3.783   2.672   5.277 -0.1404 -0.3841 -0.0846
   15MOL   C139 5487   3.697   2.584   5.190  0.0372 -0.1359  0.7270
   15MOL   C140 5488   3.570   2.651   5.149  0.5452 -0.0854  0.5155
   15MOL   C141 5489   3.766   2.548   5.061  0.2580 -0.6386  0.4472
   15MOL   H142 5490   3.699   2.626   5.653  0.9345 -1.9103  1.1345
   15MOL   H143 5491   3.838   2.708   5.714 -1.4980 -1.1380  1.6727
   15MOL   H144 5492   3.931   2.698   5.473  0.2701  3.3201 -2.4600
   15MOL   H145 5493   3.883   2.629   5.278  0.3308  0.7005  0.4745
   15MOL   H146 5494   3.806   2.766   5.228  1.3210  0.7797  2.7000
   15MOL   H147 5495   3.676   2.493   5.247  1.2314  1.3657  3.6425
   15MOL   H148 5496   3.591   2.744   5.097 -1.3617 -1.3971 -2.7657
   15MOL   H149 5497   3.515   2.658   5.243 -1.2241  0.3919 -0.5291
   15MOL   H150 5498   3.508   2.595   5.079 -1.7291  1.2216  1.4343
   15MOL   H151 5499   3.714   2.477   4.997  2.8639 -0.3756 -2.0952
   15MOL   H152 5500   3.790   2.638   5.005 -1.5777  0.1734  0.9453
   15MOL   H153 5501   3.862   2.504   5.090 -0.2830 -0.3030  2.7802
   15MOL   C154 5502   3.814   2.871   5.528  0.5111  0.3300  0.1164
   15MOL   C155 5503   3.684   2.935   5.587 -0.0865  0.2394 -0.2214
   15MOL   O156 5504   3.711   2.948   5.726  0.0226  0.0958  0.0328
   15MOL   C157 5505   3.609   2.917   5.810  0.0872 -0.0915  0.6857
   15MOL   C158 5506   3.655   2.928   5.960 -0.6116 -0.8349 -0.1533
   15MOL   C159 5507   3.791   2.846   5.973  0.8026 -0.2159 -0.1628
   15MOL   C160 5508   3.674   3.075   5.998 -0.0060  0.9266 -0.1595
   15MOL   H161 5509   3.815   2.909   5.425 -1.0483 -1.1415 -0.4665
   15MOL   H162 5510   3.899   2.908   5.585  2.8357 -0.7183 -2.4967
   15MOL   H163 5511   3.606   2.862   5.564  1.0679 -0.2899 -2.6310
   15MOL   H164 5512   3.581   2.813   5.793  2.4833 -0.5153 -0.8769
   15MOL   H165 5513   3.522   2.977   5.782  2.1702  2.0284 -1.3707
   15MOL   H166 5514   3.573   2.883   6.015 -1.2127 -1.7168 -1.7158
   15MOL   H167 5515   3.760   2.743   5.954 -1.3878  0.3239  0.3289
   15MOL   H168 5516   3.815   2.845   6.080  2.5158 -0.5778 -0.5386
   15MOL   H169 5517   3.868   2.889   5.909 -0.2280  1.3098 -0.4031
   15MOL   H170 5518   3.742   3.128   5.931  2.4472 -1.5411  0.2882
   15MOL   H171 5519   3.578   3.127   5.995 -0.3457  0.3429  0.5384
   15MOL   H172 5520   3.710   3.081   6.100 -1.6727  0.5203  0.4676
   15MOL   C173 5521   3.655   3.082   5.543  0.5661 -0.6516  0.9229
   15MOL   C174 5522   3.572   3.088   5.417  0.5494 -0.4561  0.9254
   15MOL   O175 5523   3.436   3.053   5.448 -0.2835 -0.0913  0.0879
   15MOL   C176 5524   3.387   2.939   5.379 -0.4804  0.5061 -0.4336
   15MOL   C177 5525   3.237   2.920   5.401 -0.2503 -0.5137  0.1510
   15MOL   C178 5526   3.178   2.811   5.309  0.0911 -0.3885  0.1089
   15MOL   C179 5527   3.198   2.897   5.550 -0.2152  0.1239 -0.4629
   15MOL   H180 5528   3.590   3.128   5.618 -0.9146 -0.0590 -0.6960
   15MOL   H181 5529   3.744   3.145   5.552 -0.5988  1.3051 -1.0343
   15MOL   H182 5530   3.609   3.017   5.344  1.2771  1.4108 -0.5844
   15MOL   H183 5531   3.453   2.853   5.388  0.6728  1.4201 -0.0788
   15MOL   H184 5532   3.410   2.957   5.274  2.1061 -0.2485 -0.0163
   15MOL   H185 5533   3.179   3.006   5.370  0.8064 -1.0731 -3.6538
   15MOL   H186 5534   3.234   2.718   5.314 -0.3071 -0.6950 -0.9247
   15MOL   H187 5535   3.073   2.791   5.334  0.3869 -0.1589  1.5766
   15MOL   H188 5536   3.182   2.846   5.206 -0.3195 -1.7612 -0.3816
   15MOL   H189 5537   3.224   2.984   5.610  0.5077  0.3687 -1.1146
   15MOL   H190 5538   3.243   2.810   5.598  1.3643  0.2663 -1.6257
   15MOL   H191 5539   3.090   2.886   5.555 -0.4608  1.2951 -2.4831
   15MOL   C192 5540   3.572   3.228   5.348  0.5613 -0.1031 -0.5695
   15MOL   C193 5541   3.706   3.259   5.276 -0.4483  0.0868 -0.4800
   15MOL   O194 5542   3.697   3.379   5.206 -0.2240 -0.5692  0.0500
   15MOL   C195 5543   3.709   3.495   5.282 -0.1454  0.1944 -0.3840
   15MOL   C196 5544   3.729   3.622   5.201 -0.2232  0.3856 -0.3062
   15MOL   C197 5545   3.710   3.744   5.290 -0.2066  0.6490 -0.0572
   15MOL   C198 5546   3.645   3.618   5.077 -0.4387  0.0369  0.4282
   15MOL   H199 5547   3.547   3.305   5.420  0.8143 -0.0360 -0.5540
   15MOL   H200 5548   3.488   3.230   5.278 -1.6769 -1.5420  1.9822
   15MOL   H201 5549   3.791   3.257   5.345  0.0208 -1.6806 -1.0987
   15MOL   H202 5550   3.797   3.477   5.344 -0.0917  0.8384 -0.2709
   15MOL   H203 5551   3.631   3.503   5.358  2.2666  1.9040  1.9809
   15MOL   H204 5552   3.832   3.627   5.165  0.0626  1.6521  0.6453
   15MOL   H205 5553   3.718   3.836   5.233 -2.3203  0.9355  0.0636
   15MOL   H206 5554   3.619   3.755   5.350  1.0008  0.9719  1.7543
   15MOL   H207 5555   3.790   3.741   5.363 -0.0733  0.6495 -0.2037
   15MOL   H208 5556   3.687   3.536   5.018  1.1210  0.7416  0.5402
   15MOL   H209 5557   3.540   3.591   5.088 -0.8623  0.1310 -2.7777
   15MOL   H210 5558   3.636   3.704   5.010 -1.8805 -0.5600 -0.1631
   15MOL   C211 5559   3.731   3.161   5.153 -0.5097  0.0635  0.0241
   15MOL   C212 5560   3.867   3.166   5.095  0.6861  0.4128  0.1221
   15MOL   O213 5561   3.944   3.102   5.201  0.0610  0.1855 -0.6409
   15MOL   C214 5562   4.077   3.139   5.212 -0.4081  0.2279  0.4342
   15MOL   C215 5563   4.147   3.105   5.342 -0.0156 -0.4338 -0.6461
   15MOL   C216 5564   4.302   3.118   5.342 -0.2917 -0.3004  0.5686
   15MOL   C217 5565   4.084   3.164   5.474 -0.2704 -0.2635  0.2725
   15MOL   H218 5566   3.652   3.172   5.079  0.2763 -1.0037 -0.9891
   15MOL   H219 5567   3.716   3.057   5.182 -2.5957  0.1499 -0.6735
   15MOL   H220 5568   3.893   3.268   5.068 -1.0586  0.8301 -0.0762
   15MOL   H221 5569   4.079   3.248   5.209 -0.0106  0.2070 -0.3187
   15MOL   H222 5570   4.144   3.098   5.136  2.2188  1.2158  2.1044
   15MOL   H223 5571   4.136   2.997   5.335 -2.9629 -0.1536 -1.0453
   15MOL   H224 5572   4.355   3.047   5.407 -0.0231 -0.3516  0.2977
   15MOL   H225 5573   4.342   3.114   5.241 -0.1449 -0.8798  0.6483
   15MOL   H226 5574   4.335   3.214   5.380  2.0048  0.2632 -2.6210
   15MOL   H227 5575   4.109   3.270   5.484  0.6682 -0.4619  0.1031
   15MOL   H228 5576   4.127   3.105   5.554  1.2748  0.9886  0.3942
   15MOL   H229 5577   3.976   3.160   5.484 -0.2299 -1.0786  0.4000
   15MOL   C230 5578   3.874   3.065   4.980 -0.1909  0.4506  0.2116
   15MOL   C231 5579   3.988   3.069   4.871  0.0794  0.1417  0.1353
   15MOL   O232 5580   3.970   2.971   4.776  0.4093  0.3242  0.0644
   15MOL   C233 5581   4.037   2.847   4.801 -0.0309 -0.0839  0.2592
   15MOL   C234 5582   4.011   2.743   4.690 -0.3881  0.0411  0.0037
   15MOL   C235 5583   4.110   2.749   4.580  0.0929 -0.5952  0.3334
   15MOL   C236 5584   4.017   2.605   4.757  0.3620  0.2445  0.2302
   15MOL   H237 5585   3.778   3.068   4.927  1.0999 -0.8718 -2.2562
   15MOL   H238 5586   3.878   2.958   5.002 -1.5574 -0.0811 -1.8931
   15MOL   H239 5587   4.087   3.054   4.916  0.5817 -0.4613 -1.1671
   15MOL   H240 5588   4.143   2.857   4.820 -0.1759  0.9808  0.5296
   15MOL   H241 5589   3.986   2.809   4.890 -0.3666 -0.1972  0.0235
   15MOL   H242 5590   3.907   2.761   4.662 -0.3986  0.2573  0.1829
   15MOL   H243 5591   4.211   2.732   4.618  0.2276 -0.0940  0.1933
   15MOL   H244 5592   4.115   2.846   4.531 -1.1186 -0.3594  0.6567
   15MOL   H245 5593   4.098   2.682   4.495  1.6849 -1.7229  0.9501
   15MOL   H246 5594   3.953   2.535   4.704  0.1698  2.2233 -2.2719
   15MOL   H247 5595   4.121   2.575   4.762  0.4884  0.5444 -0.4729
   15MOL   H248 5596   3.976   2.610   4.858 -0.7876  0.1074 -0.2166
   15MOL   C249 5597   3.973   3.207   4.803 -0.2762  0.3556 -0.3209
   15MOL   C250 5598   4.043   3.231   4.665  1.0759  0.6570  0.1919
   15MOL   O251 5599   4.009   3.363   4.620  0.5651  0.2166 -0.1773
   15MOL   C252 5600   3.885   3.381   4.556  0.4228  0.7488  0.3351
   15MOL   C253 5601   3.861   3.532   4.549  0.2718 -0.9880  0.0143
   15MOL   C254 5602   3.979   3.601   4.480 -0.0685  0.6517 -0.4644
   15MOL   C255 5603   3.846   3.584   4.699  0.0869 -0.4070 -0.2333
   15MOL   H256 5604   4.005   3.290   4.865  4.0206 -1.0368 -0.5106
   15MOL   H257 5605   3.865   3.224   4.798 -0.0808  1.4134 -1.1172
   15MOL   H258 5606   4.014   3.161   4.586 -1.9283  0.8677  1.0543
   15MOL   H259 5607   3.893   3.348   4.453 -0.3431  2.2813 -0.2243
   15MOL   H260 5608   3.797   3.330   4.597  0.5456  0.5995  0.4125
   15MOL   H261 5609   3.770   3.556   4.495  1.8658  1.3515 -1.7459
   15MOL   H262 5610   4.027   3.538   4.405 -3.1903 -0.1613 -1.8491
   15MOL   H263 5611   4.060   3.634   4.546 -0.3902  0.7664 -0.1271
   15MOL   H264 5612   3.946   3.684   4.418 -0.3038  1.3113  0.5170
   15MOL   H265 5613   3.900   3.525   4.773 -2.1757 -2.2370  0.0053
   15MOL   H266 5614   3.867   3.690   4.709 -1.8941  0.1017 -1.3184
   15MOL   H267 5615   3.741   3.566   4.723 -0.2342  0.5683 -0.8729
   15MOL   C268 5616   4.193   3.210   4.669  0.2686  0.4046  0.2725
   15MOL   C269 5617   4.261   3.211   4.537 -0.1981 -0.1064 -0.0506
   15MOL   O270 5618   4.367   3.111   4.556 -0.1374  0.7683  0.4460
   15MOL   C271 5619   4.390   3.014   4.447  0.1824  0.3346 -0.3297
   15MOL   C272 5620   4.511   2.940   4.476 -0.6636 -0.3887 -0.0104
   15MOL   C273 5621   4.529   2.811   4.391 -0.1873  0.5886  0.0076
   15MOL   C274 5622   4.636   3.030   4.449 -0.2159 -0.0134 -0.4610
   15MOL   H275 5623   4.198   3.112   4.717  0.1539  0.5908  0.6618
   15MOL   H276 5624   4.242   3.285   4.731  0.8497  2.0453 -2.1255
   15MOL   H277 5625   4.196   3.178   4.457  0.6704  0.4365 -0.9897
   15MOL   H278 5626   4.305   2.947   4.458 -1.3407  2.2222 -0.2278
   15MOL   H279 5627   4.389   3.068   4.352  1.5309 -1.3295 -1.3086
   15MOL   H280 5628   4.519   2.908   4.580  0.9602  1.6300  0.5035
   15MOL   H281 5629   4.458   2.732   4.417 -1.8225  1.2465 -2.3343
   15MOL   H282 5630   4.624   2.758   4.393  0.4826  1.6572 -2.1512
   15MOL   H283 5631   4.490   2.840   4.293 -0.0910 -1.3971 -0.6341
   15MOL   H284 5632   4.631   3.119   4.511  1.2702  0.3327 -0.8043
   15MOL   H285 5633   4.641   3.056   4.343 -1.3418  1.8382 -0.0760
   15MOL   H286 5634   4.732   2.983   4.472  0.3827 -0.1724 -3.1216
   15MOL   C287 5635   4.312   3.350   4.497 -0.1508  0.7035 -0.3523
   15MOL   C288 5636   4.389   3.366   4.365  0.3325  0.6493  0.2900
   15MOL   O289 5637   4.481   3.472   4.378  0.4276  0.4706 -0.6065
   15MOL   C290 5638   4.621   3.437   4.407 -0.2845 -0.1836 -0.6029
   15MOL   C291 5639   4.687   3.565   4.457 -0.1794 -0.6594  0.5295
   15MOL   C292 5640   4.836   3.553   4.462  0.9786 -0.3620 -1.4603
   15MOL   C293 5641   4.629   3.606   4.593  0.0979 -0.1260  0.0270
   15MOL   H294 5642   4.383   3.381   4.574  0.1466  2.5384 -1.3355
   15MOL   H295 5643   4.236   3.427   4.514 -1.6402 -0.7328 -0.4077
   15MOL   H296 5644   4.440   3.274   4.338  1.1608  0.9962  0.6533
   15MOL   H297 5645   4.641   3.352   4.471 -1.1783 -0.5024 -0.7411
   15MOL   H298 5646   4.658   3.412   4.307  1.2163  1.6865 -0.5538
   15MOL   H299 5647   4.663   3.653   4.397  0.5473  0.3349  1.6578
   15MOL   H300 5648   4.869   3.656   4.471  0.2215 -0.3580  1.5401
   15MOL   H301 5649   4.885   3.517   4.371  1.5972 -0.1340 -1.2202
   15MOL   H302 5650   4.876   3.499   4.548  1.0843 -1.5793 -2.2443
   15MOL   H303 5651   4.521   3.599   4.602  0.3115  0.1271  3.1987
   15MOL   H304 5652   4.672   3.547   4.673  0.7144 -0.3101 -0.4414
   15MOL   H305 5653   4.672   3.703   4.617  0.4135  0.2217 -1.8728
   15MOL   C306 5654   4.286   3.408   4.257 -0.5422 -0.0634 -0.0352
   15MOL   C307 5655   4.308   3.332   4.122 -0.6071  0.0756 -0.1199
   15MOL   O308 5656   4.239   3.209   4.132 -0.1972 -0.5491  0.1735
   15MOL   C309 5657   4.295   3.106   4.053  0.7411 -0.4679 -0.1754
   15MOL   C310 5658   4.201   2.985   4.048 -0.6776 -0.0624  0.2025
   15MOL   C311 5659   4.057   3.025   4.024  0.9517 -0.1332 -0.1390
   15MOL   C312 5660   4.219   2.915   4.186  0.3467  0.1625 -0.0618
   15MOL   H313 5661   4.287   3.517   4.251  0.5760  0.0841  2.1943
   15MOL   H314 5662   4.186   3.393   4.297 -0.3574 -3.7293 -0.7524
   15MOL   H315 5663   4.412   3.314   4.096 -0.4174  1.3957 -0.3427
   15MOL   H316 5664   4.397   3.077   4.078  0.7842  0.6864  1.0940
   15MOL   H317 5665   4.311   3.145   3.953 -1.0748 -2.1586 -1.1676
   15MOL   H318 5666   4.231   2.914   3.971  1.7327 -0.2211  1.2602
   15MOL   H319 5667   4.030   3.078   3.933 -0.3656 -0.2789  0.1549
   15MOL   H320 5668   4.020   3.083   4.109  2.2467  1.3819 -0.5892
   15MOL   H321 5669   3.999   2.933   4.033  1.2236 -0.2053  0.9464
   15MOL   H322 5670   4.146   2.834   4.193  0.5235 -0.0355 -0.4654
   15MOL   H323 5671   4.186   2.967   4.276 -0.7762 -0.6070 -0.0176
   15MOL   H324 5672   4.322   2.881   4.197  0.7267  1.5804  0.8490
   15MOL   C325 5673   4.250   3.413   4.010 -0.0699 -0.0110 -0.4907
   15MOL   C326 5674   4.335   3.536   3.973 -1.0065 -0.7473  0.3684
   15MOL   O327 5675   4.427   3.498   3.873 -0.2097 -0.4376  0.2804
   15MOL   C328 5676   4.544   3.587   3.861  0.1851 -0.5659 -0.3322
   15MOL   C329 5677   4.635   3.565   3.739  0.0549  0.3507  0.6555
   15MOL   C330 5678   4.577   3.606   3.608  0.1401  0.8515  0.4115
   15MOL   C331 5679   4.778   3.626   3.761  0.5602  0.3557 -0.5721
   15MOL   H332 5680   4.144   3.436   4.026 -0.0892 -1.0954  1.0536
   15MOL   H333 5681   4.252   3.358   3.916  1.3625  0.6668 -0.8583
   15MOL   H334 5682   4.400   3.569   4.054  0.3072 -0.2127 -0.8881
   15MOL   H335 5683   4.522   3.694   3.859  1.6830 -0.1404  3.0564
   15MOL   H336 5684   4.600   3.570   3.952  0.0701  1.0901  0.0689
   15MOL   H337 5685   4.645   3.457   3.750 -2.7310 -0.0093 -0.1391
   15MOL   H338 5686   4.613   3.699   3.565 -1.9239  0.6592 -1.8665
   15MOL   H339 5687   4.571   3.539   3.522  0.0713  0.9384  0.3485
   15MOL   H340 5688   4.473   3.620   3.637  1.1171  0.4923  4.4085
   15MOL   H341 5689   4.788   3.735   3.762 -2.1265  0.6653  4.2702
   15MOL   H342 5690   4.829   3.581   3.845 -1.7587  2.5458  2.0909
   15MOL   H343 5691   4.844   3.605   3.676  0.9321 -0.9816  0.0432
   15MOL   C344 5692   4.253   3.655   3.912 -0.2951  1.0705 -0.2003
   15MOL   C345 5693   4.173   3.742   4.008 -0.2081  0.3899 -0.3629
   15MOL   O346 5694   4.265   3.815   4.088  0.3086  0.0987  0.6732
   15MOL   C347 5695   4.224   3.828   4.215 -1.1217 -0.4879 -1.4498
   15MOL   C348 5696   4.332   3.875   4.309  0.3433  0.4179 -0.7084
   15MOL   C349 5697   4.473   3.824   4.274  0.4910  0.0310 -0.3530
   15MOL   C350 5698   4.293   3.836   4.452  0.0043  0.6209  0.2393
   15MOL   H351 5699   4.181   3.625   3.836 -0.1661 -0.4775  0.2832
   15MOL   H352 5700   4.317   3.721   3.853 -0.4598  0.8607 -0.6208
   15MOL   H353 5701   4.101   3.686   4.068 -1.9227  1.6724 -1.1691
   15MOL   H354 5702   4.175   3.740   4.258 -0.1094  0.4685  1.8104
   15MOL   H355 5703   4.150   3.907   4.230 -1.0581 -0.7781  0.5555
   15MOL   H356 5704   4.335   3.984   4.305  2.2735  0.4908  1.7998
   15MOL   H357 5705   4.502   3.848   4.172 -0.0327  0.5096 -0.3940
   15MOL   H358 5706   4.476   3.717   4.293 -1.5730 -0.2456 -1.4773
   15MOL   H359 5707   4.546   3.868   4.343  0.0922 -1.3473  0.9838
   15MOL   H360 5708   4.287   3.727   4.455  2.0449  0.4864  0.5589
   15MOL   H361 5709   4.369   3.867   4.524 -0.6036 -0.5901  1.4119
   15MOL   H362 5710   4.199   3.882   4.481  0.7803  2.6163 -0.3043
   15MOL   C363 5711   4.081   3.836   3.925 -0.5114  0.3041  0.2469
   15MOL   C364 5712   3.972   3.918   3.990 -0.7006  0.1024  0.0864
   15MOL   O365 5713   3.878   3.834   4.064 -0.2594 -0.1103 -0.8087
   15MOL   C366 5714   3.768   3.782   3.983  0.2718 -0.1903  0.8750
   15MOL   C367 5715   3.675   3.698   4.072  0.1612 -0.2554  0.0174
   15MOL   C368 5716   3.593   3.790   4.166  0.9255  0.0856 -0.6072
   15MOL   C369 5717   3.751   3.590   4.150  0.2434 -0.3131  0.5254
   15MOL   H370 5718   4.140   3.908   3.867  2.0235 -2.5332 -0.8725
   15MOL   H371 5719   4.031   3.772   3.852  1.9798  1.8592 -2.9516
   15MOL   H372 5720   3.909   3.969   3.917  1.3338  2.4327 -0.0947
   15MOL   H373 5721   3.710   3.871   3.957  2.4707  1.2728  0.8476
   15MOL   H374 5722   3.801   3.724   3.897 -0.9469 -1.3400  1.1683
   15MOL   H375 5723   3.613   3.643   4.000 -1.3472  0.5103  0.7254
   15MOL   H376 5724   3.647   3.846   4.242 -0.1344 -0.9714  0.9539
   15MOL   H377 5725   3.524   3.724   4.218 -0.0990 -0.1644 -2.2234
   15MOL   H378 5726   3.537   3.863   4.107  0.1718  1.1127  1.3401
   15MOL   H379 5727   3.856   3.615   4.167 -0.5141  4.1028 -0.7020
   15MOL   H380 5728   3.745   3.502   4.086  1.1522 -0.9957  1.3595
   15MOL   H381 5729   3.705   3.569   4.247 -0.4578  3.8417  1.1855
   15MOL   H382 5730   4.013   3.998   4.052  0.0422  0.4376 -0.8274
   16MOL     C1 5731   2.470   0.079   3.389 -0.0647  0.4603 -0.0228
   16MOL     C2 5732   2.407   0.048   3.521  0.1022  0.2904 -0.2178
   16MOL     O3 5733   2.282   0.093   3.521  0.6514  0.6831 -0.0596
   16MOL     C4 5734   2.258   0.224   3.561 -0.0531 -0.4890  0.4383
   16MOL     C5 5735   2.109   0.255   3.551 -0.3378 -0.1684 -0.5864
   16MOL     C6 5736   2.028   0.163   3.645  0.1654  0.2033  0.6881
   16MOL     C7 5737   2.057   0.260   3.409  0.2483 -0.6556  0.2727
   16MOL     H8 5738   2.469   0.185   3.365  0.1333  0.2863 -0.8202
   16MOL     H9 5739   2.570   0.038   3.376 -0.5698 -0.4316 -1.1702
   16MOL    H10 5740   2.464   0.081   3.608 -0.1054  3.0576 -1.1052
   16MOL    H11 5741   2.308   0.293   3.493  0.0344  0.6598  1.6430
   16MOL    H12 5742   2.297   0.243   3.661 -0.2162 -0.1646  0.4432
   16MOL    H13 5743   2.087   0.352   3.596 -0.2176 -1.2874  1.9860
   16MOL    H14 5744   2.036   0.058   3.617 -1.9745  0.6997 -2.0997
   16MOL    H15 5745   2.070   0.174   3.745  0.8185  2.1913  0.2309
   16MOL    H16 5746   1.922   0.188   3.653 -0.1666 -0.2242 -2.0268
   16MOL    H17 5747   2.124   0.322   3.349  0.1551 -2.5372 -1.8320
   16MOL    H18 5748   2.063   0.166   3.356  1.3605 -0.4097 -0.0588
   16MOL    H19 5749   1.951   0.280   3.397  0.9667  2.5043 -1.4504
   16MOL    H20 5750   2.418   0.027   3.308  1.9390 -1.4637 -0.1246
   16MOL    C21 5751   2.389   7.720   3.535 -0.3849 -0.3127  0.4680
   16MOL    C22 5752   2.312   7.665   3.654  0.2312 -0.2926  0.0305
   16MOL    O23 5753   2.314   7.527   3.665  0.1586 -0.2871  0.3189
   16MOL    C24 5754   2.273   7.454   3.545  0.6537  0.2735  0.5547
   16MOL    C25 5755   2.241   7.307   3.573  0.5003  0.8836 -0.8501
   16MOL    C26 5756   2.367   7.221   3.609 -0.4984 -0.5721  0.8622
   16MOL    C27 5757   2.124   7.296   3.675  0.1469  0.8947  0.4792
   16MOL    H28 5758   2.337   7.681   3.448 -0.5364 -1.1812  0.9337
   16MOL    H29 5759   2.487   7.671   3.539  0.7598  1.9196  0.1838
   16MOL    H30 5760   2.211   7.694   3.626 -0.4938 -2.6449  0.1402
   16MOL    H31 5761   2.350   7.459   3.469 -1.2609 -1.0571 -1.5326
   16MOL    H32 5762   2.187   7.502   3.498 -1.5916 -0.0194  4.1330
   16MOL    H33 5763   2.198   7.262   3.483  1.6718  1.0842 -1.5188
   16MOL    H34 5764   2.401   7.235   3.711  0.2487 -1.2546  0.7190
   16MOL    H35 5765   2.454   7.236   3.545  0.0183 -2.3750  1.0972
   16MOL    H36 5766   2.348   7.113   3.606  0.7242 -0.7725  0.1479
   16MOL    H37 5767   2.050   7.376   3.666  1.1123  1.9263  1.4118
   16MOL    H38 5768   2.073   7.200   3.668 -0.1221  0.9371  1.8912
   16MOL    H39 5769   2.171   7.295   3.773 -0.1105  1.1234  0.6059
   16MOL    C40 5770   2.353   7.724   3.788 -0.0651 -0.1109  0.2788
   16MOL    C41 5771   2.282   7.672   3.916  0.9214  0.1343 -0.6786
   16MOL    O42 5772   2.149   7.721   3.897  0.0423 -0.2961 -0.5277
   16MOL    C43 5773   2.048   7.657   3.978 -0.6056 -0.0802  0.4539
   16MOL    C44 5774   1.916   7.737   3.978  1.0435 -0.1665  0.1337
   16MOL    C45 5775   1.806   7.673   4.064  0.1922 -0.1604 -0.5343
   16MOL    C46 5776   1.934   0.064   3.998 -0.4737 -0.1832 -0.4141
   16MOL    H47 5777   2.354   0.008   3.781 -0.4572 -0.2392 -2.8047
   16MOL    H48 5778   2.461   7.707   3.796 -0.0651 -1.3053 -1.6724
   16MOL    H49 5779   2.280   7.563   3.912 -1.2508  0.1322 -0.1553
   16MOL    H50 5780   2.064   7.658   4.086 -0.3341  2.8320  0.4299
   16MOL    H51 5781   2.052   7.554   3.941 -2.6016  0.2454 -0.7689
   16MOL    H52 5782   1.881   7.731   3.875  0.7410  0.0096  0.2242
   16MOL    H53 5783   1.800   7.567   4.039  1.5108 -0.3299 -0.2014
   16MOL    H54 5784   1.833   7.686   4.169 -2.2503 -0.1921  0.1372
   16MOL    H55 5785   1.703   7.709   4.064 -0.2187 -1.2300 -2.5988
   16MOL    H56 5786   1.976   0.091   4.095  0.8349  0.3679 -1.1269
   16MOL    H57 5787   1.844   0.119   3.971  0.4351  1.4389 -0.2220
   16MOL    H58 5788   2.007   0.092   3.922  0.4466  0.6753  0.7824
   16MOL    C59 5789   2.341   7.728   4.052  0.4072 -0.0360 -0.4817
   16MOL    C60 5790   2.321   7.653   4.184  0.0914 -0.1421 -0.1105
   16MOL    O61 5791   2.320   7.740   4.293  0.6520 -0.1554  0.5029
   16MOL    C62 5792   2.192   7.767   4.346 -0.0381  0.1230 -0.6082
   16MOL    C63 5793   2.198   0.036   4.469 -0.7561 -0.2071 -0.1934
   16MOL    C64 5794   2.283   7.790   4.583 -0.0301 -0.1867  0.4342
   16MOL    C65 5795   2.256   0.182   4.436 -0.6479 -0.4782 -0.6219
   16MOL    H66 5796   2.310   0.007   4.064  1.8147  0.2175  1.1234
   16MOL    H67 5797   2.449   7.742   4.046  0.4061  1.3467  2.2543
   16MOL    H68 5798   2.233   7.590   4.174 -0.3360  0.4509 -0.0667
   16MOL    H69 5799   2.128   7.815   4.272 -0.5028 -0.5079 -0.6100
   16MOL    H70 5800   2.140   7.673   4.362 -2.3985  1.1160 -2.2087
   16MOL    H71 5801   2.096   0.043   4.507 -0.9540  1.2669 -0.9648
   16MOL    H72 5802   2.252   7.824   4.682 -1.4602  0.9037 -0.3874
   16MOL    H73 5803   2.392   7.803   4.582  0.1088 -1.1057  1.7631
   16MOL    H74 5804   2.263   7.683   4.588  0.1751 -0.3196 -1.3655
   16MOL    H75 5805   2.273   0.245   4.523  0.3564  0.2939 -1.3715
   16MOL    H76 5806   2.362   0.166   4.415 -0.1879  2.9394 -1.1838
   16MOL    H77 5807   2.204   0.236   4.357  1.4764  0.4694 -1.4037
   16MOL    C78 5808   2.431   7.555   4.217  0.6642  0.0476  0.0381
   16MOL    C79 5809   2.416   7.467   4.340  0.6428 -0.4684 -0.3599
   16MOL    O80 5810   2.333   7.363   4.303  0.6124  0.2410  0.0286
   16MOL    C81 5811   2.209   7.349   4.369  0.1985  0.0656 -0.1767
   16MOL    C82 5812   2.133   7.223   4.310  0.0653 -0.3882 -0.2620
   16MOL    C83 5813   2.226   7.101   4.304 -0.5721  0.3726  0.2202
   16MOL    C84 5814   2.091   7.262   4.170 -0.2502 -0.2443 -0.5697
   16MOL    H85 5815   2.520   7.618   4.220  0.3029  0.6655 -1.4129
   16MOL    H86 5816   2.454   7.487   4.135 -1.8901 -0.7759 -0.0329
   16MOL    H87 5817   2.374   7.521   4.426 -1.7648 -1.9444 -0.5513
   16MOL    H88 5818   2.214   7.354   4.477 -1.9112 -0.6146 -0.0120
   16MOL    H89 5819   2.147   7.436   4.347 -0.6963 -1.0782 -2.3882
   16MOL    H90 5820   2.049   7.202   4.376  0.0572  1.3804  0.3362
   16MOL    H91 5821   2.280   7.108   4.398 -0.0312  1.9207 -0.1814
   16MOL    H92 5822   2.307   7.100   4.231  0.5791  1.0754  1.4729
   16MOL    H93 5823   2.177   7.004   4.299 -0.5667  0.3455  0.6601
   16MOL    H94 5824   2.035   7.355   4.161 -2.0871 -1.2525  0.3056
   16MOL    H95 5825   2.043   7.176   4.123 -0.5004  0.4967 -1.6776
   16MOL    H96 5826   2.186   7.272   4.116  0.2324 -3.0527 -0.3332
   16MOL    C97 5827   2.551   7.402   4.392 -0.2455  0.1451 -0.2292
   16MOL    C98 5828   2.528   7.306   4.515  0.0386 -0.2573 -0.3392
   16MOL    O99 5829   2.553   7.387   4.630 -0.0672  0.5693  0.0900
   16MOL   C100 5830   2.435   7.403   4.710  0.3965  0.0495 -0.5428
   16MOL   C101 5831   2.458   7.479   4.836 -0.5411  0.6600  0.0574
   16MOL   C102 5832   2.523   7.615   4.815  0.5131 -0.5417  0.1980
   16MOL   C103 5833   2.330   7.490   4.925 -0.1130  0.4915 -0.7020
   16MOL   H104 5834   2.604   7.490   4.428 -3.0405  1.9420 -0.3727
   16MOL   H105 5835   2.603   7.352   4.310  0.3310 -0.5026  0.5229
   16MOL   H106 5836   2.434   7.250   4.511 -0.6386  0.6695  1.8178
   16MOL   H107 5837   2.396   7.303   4.729 -2.2866  1.3728  1.3081
   16MOL   H108 5838   2.361   7.460   4.654 -1.8076 -1.1513  1.0345
   16MOL   H109 5839   2.525   7.419   4.899 -2.3164  1.3834  2.7356
   16MOL   H110 5840   2.496   7.668   4.724  0.5754 -1.5078 -0.3856
   16MOL   H111 5841   2.500   7.684   4.896  4.2730  0.8353  0.1805
   16MOL   H112 5842   2.632   7.606   4.819  0.6453 -0.4100 -2.3527
   16MOL   H113 5843   2.251   7.554   4.886 -1.2359 -1.5672 -1.9137
   16MOL   H114 5844   2.278   7.395   4.930 -2.4932  1.7339 -1.1633
   16MOL   H115 5845   2.356   7.520   5.027 -0.3082  1.0238 -0.8059
   16MOL   C116 5846   2.649   7.206   4.517  0.2921 -0.3112 -0.4746
   16MOL   C117 5847   2.647   7.094   4.623  0.2290  0.0332 -0.2579
   16MOL   O118 5848   2.535   7.007   4.602  0.6655 -0.4627  0.0857
   16MOL   C119 5849   2.528   6.915   4.497  0.2218 -0.5904 -0.1118
   16MOL   C120 5850   2.403   6.834   4.494  0.0043  0.1522  0.2175
   16MOL   C121 5851   2.401   6.746   4.369 -0.3073  0.3774 -0.5635
   16MOL   C122 5852   2.375   6.751   4.624  0.3917  0.3403  0.4818
   16MOL   H123 5853   2.669   7.180   4.413  0.6850 -3.0906  0.2437
   16MOL   H124 5854   2.730   7.279   4.517 -0.1220  0.1463 -0.5052
   16MOL   H125 5855   2.630   7.137   4.722 -2.1203 -1.6470  0.1151
   16MOL   H126 5856   2.611   6.849   4.521  0.0243 -1.1609 -0.9523
   16MOL   H127 5857   2.562   6.954   4.401  0.7423  2.3229  1.2024
   16MOL   H128 5858   2.322   6.907   4.488 -0.8239 -0.9257 -2.9188
   16MOL   H129 5859   2.427   6.798   4.277 -0.7705 -0.6574 -1.3016
   16MOL   H130 5860   2.301   6.706   4.349 -0.7420  0.9371  0.4814
   16MOL   H131 5861   2.464   6.658   4.382  1.9391  1.9181 -0.7543
   16MOL   H132 5862   2.357   6.824   4.704 -0.8401 -1.2199  1.6476
   16MOL   H133 5863   2.289   6.685   4.618  0.6159 -0.0300  1.2523
   16MOL   H134 5864   2.466   6.699   4.654  0.2760  0.5322  1.1997
   16MOL   C135 5865   2.779   7.018   4.632  0.2239 -0.0660  0.3574
   16MOL   C136 5866   2.915   7.100   4.670  0.1717 -0.2412  0.1066
   16MOL   O137 5867   2.902   7.172   4.790 -0.3015  0.1373  0.1978
   16MOL   C138 5868   2.912   7.308   4.792 -0.5643 -0.5752  0.5643
   16MOL   C139 5869   2.858   7.372   4.924 -0.6903  0.7833  0.0903
   16MOL   C140 5870   2.884   7.291   5.054 -0.3655  0.4282  0.8858
   16MOL   C141 5871   2.897   7.520   4.941 -0.1923  0.7434  0.5044
   16MOL   H142 5872   2.765   6.935   4.701 -0.4818  0.1173  0.4405
   16MOL   H143 5873   2.794   6.963   4.539  0.6504  0.2403  0.2424
   16MOL   H144 5874   2.942   7.168   4.590  1.0459 -2.4493 -1.5352
   16MOL   H145 5875   2.872   7.359   4.705  0.2657  1.1433  1.1719
   16MOL   H146 5876   3.019   7.331   4.791 -0.5068 -0.8383  0.4329
   16MOL   H147 5877   2.750   7.373   4.908 -0.6431  1.4578 -0.1920
   16MOL   H148 5878   2.897   7.184   5.036 -0.5632  0.1776  2.1464
   16MOL   H149 5879   2.797   7.303   5.119  0.2837  0.8573  1.6871
   16MOL   H150 5880   2.975   7.314   5.110  0.3725 -1.2608  0.4324
   16MOL   H151 5881   2.848   7.562   5.029 -2.0070 -0.1299 -0.0572
   16MOL   H152 5882   3.006   7.521   4.946 -0.1641  1.2482 -0.1922
   16MOL   H153 5883   2.867   7.574   4.851  3.4193  1.9500 -0.0701
   16MOL   C154 5884   3.032   6.998   4.672 -0.5979 -0.5170  0.3009
   16MOL   C155 5885   3.170   7.053   4.717 -0.3248 -0.1116  0.3160
   16MOL   O156 5886   3.262   6.943   4.720 -0.2599 -0.2092 -0.1848
   16MOL   C157 5887   3.250   6.867   4.841 -0.4597 -0.7650  0.6381
   16MOL   C158 5888   3.363   6.895   4.942 -0.3161  0.2054  0.1811
   16MOL   C159 5889   3.338   6.825   5.072  0.2388  0.4454 -0.0620
   16MOL   C160 5890   3.508   6.887   4.895  0.0606 -0.2994  0.2817
   16MOL   H161 5891   3.043   6.955   4.573 -0.1140 -1.5861  0.8111
   16MOL   H162 5892   3.002   6.914   4.734 -2.0427 -0.7039 -0.6327
   16MOL   H163 5893   3.144   7.089   4.816 -2.0148  0.1858 -0.2249
   16MOL   H164 5894   3.263   6.764   4.807 -0.4186 -1.0306  1.4551
   16MOL   H165 5895   3.155   6.877   4.894 -0.0219 -0.7980  1.4306
   16MOL   H166 5896   3.343   7.002   4.955  0.6833  0.5775 -1.2607
   16MOL   H167 5897   3.288   6.728   5.065 -1.0451  0.8497  2.5395
   16MOL   H168 5898   3.272   6.885   5.134 -3.1722 -0.6340 -2.5016
   16MOL   H169 5899   3.433   6.804   5.121 -0.6221  0.2206  1.5912
   16MOL   H170 5900   3.592   6.903   4.963 -1.9162 -2.3106  3.2918
   16MOL   H171 5901   3.522   6.791   4.846 -0.4712 -0.5780  0.6757
   16MOL   H172 5902   3.528   6.947   4.806  2.9632 -1.7611 -0.1300
   16MOL   C173 5903   3.239   7.155   4.620  0.3785 -0.0756  0.6801
   16MOL   C174 5904   3.365   7.227   4.684 -0.2191  0.0629  0.2494
   16MOL   O175 5905   3.421   7.296   4.575  0.3523 -0.1671  0.2266
   16MOL   C176 5906   3.552   7.255   4.553 -0.0753  0.1349 -0.1042
   16MOL   C177 5907   3.593   7.301   4.414  0.5448 -0.8815  0.2213
   16MOL   C178 5908   3.567   7.449   4.395  0.4251  0.2341 -0.2608
   16MOL   C179 5909   3.741   7.263   4.381  1.7642  0.3887 -0.2446
   16MOL   H180 5910   3.269   7.101   4.530 -0.9557 -1.2317  0.9164
   16MOL   H181 5911   3.173   7.235   4.588  0.5231  0.3290  1.3793
   16MOL   H182 5912   3.425   7.151   4.733  1.8152  0.7298 -1.1486
   16MOL   H183 5913   3.566   7.147   4.550  0.5464  0.2226 -0.4718
   16MOL   H184 5914   3.618   7.296   4.630 -0.9956  1.0392  0.2106
   16MOL   H185 5915   3.539   7.237   4.345 -1.1114  1.6609 -0.9328
   16MOL   H186 5916   3.597   7.490   4.298 -0.2441  0.6295 -0.3048
   16MOL   H187 5917   3.461   7.474   4.407  0.8616  1.7825  0.4919
   16MOL   H188 5918   3.627   7.511   4.461  1.9472  0.2119 -1.5978
   16MOL   H189 5919   3.824   7.302   4.440  0.6188  2.7133 -0.1217
   16MOL   H190 5920   3.765   7.303   4.283  2.2533  2.1205  0.5644
   16MOL   H191 5921   3.758   7.156   4.398 -4.3069 -0.5114  1.4782
   16MOL   C192 5922   3.322   7.320   4.798  0.4289  0.5436 -0.2621
   16MOL   C193 5923   3.425   7.404   4.871 -0.2509  0.7129 -0.5808
   16MOL   O194 5924   3.481   7.330   4.980  0.0824  0.2182 -0.1065
   16MOL   C195 5925   3.593   7.254   4.962 -0.3703  0.0893 -0.0001
   16MOL   C196 5926   3.636   7.217   5.112 -0.3397  0.3346 -0.3884
   16MOL   C197 5927   3.777   7.159   5.115 -0.2230  0.5530 -0.8280
   16MOL   C198 5928   3.530   7.136   5.181  0.0183 -0.5666  0.2106
   16MOL   H199 5929   3.255   7.275   4.871 -0.8540 -0.0176 -1.7510
   16MOL   H200 5930   3.260   7.398   4.753 -0.3503  1.1600  1.8546
   16MOL   H201 5931   3.507   7.447   4.813 -0.2657  1.4370 -0.0703
   16MOL   H202 5932   3.670   7.316   4.917  0.4535 -0.2951  0.8680
   16MOL   H203 5933   3.572   7.171   4.895 -0.8758  0.0947  0.1459
   16MOL   H204 5934   3.644   7.315   5.160  0.1291  0.3923 -0.5815
   16MOL   H205 5935   3.823   7.186   5.211 -0.3001 -0.0040 -0.6323
   16MOL   H206 5936   3.767   7.051   5.106 -0.2595  0.4377  0.4274
   16MOL   H207 5937   3.845   7.203   5.042  2.8515  1.5457  2.4657
   16MOL   H208 5938   3.570   7.115   5.280 -1.6446 -2.3008  0.5543
   16MOL   H209 5939   3.441   7.199   5.181  1.1106  0.9840 -0.4751
   16MOL   H210 5940   3.520   7.053   5.111 -2.3644 -0.7482  0.7131
   16MOL   C211 5941   3.350   7.518   4.945  0.2238  0.3390  0.1217
   16MOL   C212 5942   3.354   7.648   4.867  0.0315  0.8500  0.7882
   16MOL   O213 5943   3.256   7.643   4.760  0.1760 -0.1221 -0.2957
   16MOL   C214 5944   3.312   7.662   4.626  0.2498  0.4184 -0.4138
   16MOL   C215 5945   3.200   7.646   4.521 -0.6381 -0.2367 -0.2383
   16MOL   C216 5946   3.144   7.503   4.527  0.0969 -0.2330 -0.5511
   16MOL   C217 5947   3.092   7.750   4.525 -0.0189  1.3110 -0.1832
   16MOL   H218 5948   3.402   7.546   5.037 -0.5990 -1.4821  1.1846
   16MOL   H219 5949   3.254   7.475   4.975  0.4918 -0.0157  0.4906
   16MOL   H220 5950   3.455   7.660   4.827  0.0492 -0.3379  0.4618
   16MOL   H221 5951   3.393   7.592   4.603  0.1640  0.3535 -0.5211
   16MOL   H222 5952   3.363   7.758   4.616 -0.1402  0.6479 -0.1900
   16MOL   H223 5953   3.241   7.655   4.420 -0.6014 -0.3336 -0.2317
   16MOL   H224 5954   3.095   7.496   4.624  0.3936 -2.6893 -0.5601
   16MOL   H225 5955   3.068   7.481   4.452  0.0418 -2.2912  0.0725
   16MOL   H226 5956   3.220   7.425   4.522  1.2605  0.8501 -0.0868
   16MOL   H227 5957   3.151   0.013   4.552  3.5482 -1.0826  0.0081
   16MOL   H228 5958   3.025   7.735   4.610  1.4845  2.1559  1.1826
   16MOL   H229 5959   3.031   7.761   4.435 -2.5280 -3.8308  0.7090
   16MOL   C230 5960   3.308   7.774   4.956 -0.3892  0.8704 -0.7736
   16MOL   C231 5961   3.292   0.082   4.878 -0.1639 -0.0772  0.1455
   16MOL   O232 5962   3.222   0.170   4.966  0.2438  0.2180 -0.0673
   16MOL   C233 5963   3.122   0.261   4.919 -0.0827 -0.0671  0.2453
   16MOL   C234 5964   3.013   0.203   4.828 -0.1095  0.1796  0.8958
   16MOL   C235 5965   2.941   0.070   4.873 -0.2519  0.0989  0.0207
   16MOL   C236 5966   2.917   0.317   4.800  0.1234  0.3950 -0.3933
   16MOL   H237 5967   3.371   7.781   5.044 -0.3249  0.0500 -0.7440
   16MOL   H238 5968   3.211   7.736   4.991  1.0954 -1.6712  0.7416
   16MOL   H239 5969   3.229   0.057   4.793 -1.1225 -0.9135  1.0813
   16MOL   H240 5970   3.077   0.302   5.009 -0.9173  1.0173 -0.6580
   16MOL   H241 5971   3.171   0.344   4.868 -1.2583  0.8203  0.5514
   16MOL   H242 5972   3.049   0.166   4.732  0.2057  1.2263  0.6003
   16MOL   H243 5973   3.012   0.000   4.918 -0.1375  0.5026  0.4658
   16MOL   H244 5974   2.882   0.019   4.796 -0.4205  0.6380 -0.2055
   16MOL   H245 5975   2.863   0.090   4.947 -0.7271  0.3157 -0.5339
   16MOL   H246 5976   2.879   0.350   4.897 -1.5094 -4.7700  0.8699
   16MOL   H247 5977   2.971   0.398   4.751 -1.7821  0.6489 -2.1508
   16MOL   H248 5978   2.836   0.274   4.741 -0.3892  2.4100 -1.2155
   16MOL   C249 5979   3.429   0.130   4.833  0.7232 -0.2777  0.0350
   16MOL   C250 5980   3.442   0.276   4.778  0.0062 -0.3613  0.2235
   16MOL   O251 5981   3.577   0.308   4.739  0.6940 -0.2086  0.2197
   16MOL   C252 5982   3.657   0.341   4.844  0.5401 -0.4476  0.6155
   16MOL   C253 5983   3.797   0.367   4.797 -1.0353  0.1244  0.2767
   16MOL   C254 5984   3.794   0.477   4.693  0.3152  0.2059 -0.5766
   16MOL   C255 5985   3.856   0.238   4.737  0.0804 -0.5742 -0.1349
   16MOL   H256 5986   3.460   0.070   4.747  0.0555  1.5372 -1.4965
   16MOL   H257 5987   3.514   0.111   4.899  0.0110  0.4470  1.1842
   16MOL   H258 5988   3.405   0.342   4.856  1.3761 -0.2079  0.7671
   16MOL   H259 5989   3.632   0.440   4.882 -0.0745 -1.0905  1.9102
   16MOL   H260 5990   3.660   0.276   4.932  0.2005  1.2833  1.9396
   16MOL   H261 5991   3.849   0.402   4.886 -1.5285 -0.4887  0.8155
   16MOL   H262 5992   3.768   0.574   4.737 -0.5178  0.3681 -1.4094
   16MOL   H263 5993   3.734   0.449   4.607 -0.1312  1.2463 -0.6065
   16MOL   H264 5994   3.897   0.486   4.659  0.0654  1.5018 -1.0324
   16MOL   H265 5995   3.961   0.242   4.708  0.0630  0.8729 -0.0381
   16MOL   H266 5996   3.854   0.160   4.814  2.2187 -2.0501 -1.5096
   16MOL   H267 5997   3.790   0.205   4.657 -0.0811 -0.2335 -0.1407
   16MOL   C268 5998   3.349   0.299   4.655 -0.1033  0.1188  0.4429
   16MOL   C269 5999   3.318   0.442   4.616  0.7559 -0.7089  0.4618
   16MOL   O270 6000   3.245   0.457   4.494 -0.2599  0.4362  0.5649
   16MOL   C271 6001   3.103   0.461   4.501 -0.0778  0.0768  0.7269
   16MOL   C272 6002   3.058   0.501   4.352 -0.0256 -0.1466 -0.6909
   16MOL   C273 6003   3.082   0.378   4.262 -0.3506  0.2100 -0.3684
   16MOL   C274 6004   2.910   0.548   4.361 -0.7949 -0.3247 -0.2993
   16MOL   H275 6005   3.254   0.247   4.666  0.3516 -0.9447 -0.4771
   16MOL   H276 6006   3.393   0.245   4.571 -1.1858  1.3440 -0.9276
   16MOL   H277 6007   3.260   0.492   4.694  0.0105  1.4494 -1.4336
   16MOL   H278 6008   3.075   0.360   4.532 -1.4600  0.0889 -0.4353
   16MOL   H279 6009   3.062   0.525   4.579 -2.3995 -2.7067  1.8656
   16MOL   H280 6010   3.122   0.586   4.325 -3.1309  2.9021  1.0804
   16MOL   H281 6011   3.019   0.294   4.292 -0.9332  0.4521 -0.9106
   16MOL   H282 6012   3.188   0.356   4.269 -0.1694  1.3546  0.6384
   16MOL   H283 6013   3.054   0.396   4.158 -1.3231  1.4129  0.0914
   16MOL   H284 6014   2.892   0.634   4.426 -1.4780 -0.3376 -0.4676
   16MOL   H285 6015   2.833   0.472   4.376 -0.1856 -1.2293 -1.6778
   16MOL   H286 6016   2.893   0.585   4.260 -1.5891 -1.8483 -0.7420
   16MOL   C287 6017   3.448   0.525   4.596 -0.1206 -0.1608 -0.2525
   16MOL   C288 6018   3.418   0.669   4.559 -0.5361 -0.5689  0.3025
   16MOL   O289 6019   3.530   0.724   4.496 -0.1884  0.1367  0.4221
   16MOL   C290 6020   3.558   0.675   4.362 -0.4959 -0.0876  1.2990
   16MOL   C291 6021   3.654   0.782   4.304  0.1910  0.0032  0.1460
   16MOL   C292 6022   3.654   0.786   4.152 -0.0744 -0.0870  0.5885
   16MOL   C293 6023   3.803   0.764   4.351  0.2562  0.3929  0.1688
   16MOL   H294 6024   3.502   0.473   4.517  0.8230 -1.6436  1.3331
   16MOL   H295 6025   3.526   0.528   4.672 -1.2735 -0.7460  0.9540
   16MOL   H296 6026   3.336   0.680   4.487  0.6752 -0.1569 -1.0311
   16MOL   H297 6027   3.595   0.574   4.378 -0.4858 -0.4170 -0.6780
   16MOL   H298 6028   3.461   0.674   4.312 -0.1840 -0.0829  0.6789
   16MOL   H299 6029   3.626   0.886   4.325 -0.3827  0.1125 -1.1052
   16MOL   H300 6030   3.692   0.693   4.110  1.0730  0.0157  1.3836
   16MOL   H301 6031   3.721   0.866   4.121 -0.5451  0.2234  0.3623
   16MOL   H302 6032   3.561   0.818   4.106 -0.5103 -0.9816  0.8300
   16MOL   H303 6033   3.865   0.847   4.316 -1.7580  1.9477  0.1993
   16MOL   H304 6034   3.803   0.767   4.460 -1.2992 -0.0046  0.1854
   16MOL   H305 6035   3.851   0.671   4.321 -1.1015 -0.3694  0.3323
   16MOL   C306 6036   3.385   0.753   4.690  0.0195  0.3611 -0.0354
   16MOL   C307 6037   3.347   0.905   4.677  0.3606  0.1283  0.0071
   16MOL   O308 6038   3.231   0.908   4.600 -0.1369  0.3877 -0.4201
   16MOL   C309 6039   3.208   1.035   4.541  0.2659  0.2537 -0.0486
   16MOL   C310 6040   3.052   1.047   4.539 -0.2987  0.0357 -0.7845
   16MOL   C311 6041   2.995   1.073   4.682 -0.1939  0.0865 -0.6232
   16MOL   C312 6042   2.988   0.936   4.459 -0.1139 -0.6277  0.4145
   16MOL   H313 6043   3.458   0.736   4.769  2.5666  0.0194 -2.3867
   16MOL   H314 6044   3.293   0.713   4.733  0.5204 -1.3139 -0.4679
   16MOL   H315 6045   3.428   0.953   4.622 -1.0661  0.3834 -1.8977
   16MOL   H316 6046   3.244   1.032   4.438 -0.7303 -2.9482 -0.3532
   16MOL   H317 6047   3.262   1.115   4.591  3.3923 -1.3382 -0.8139
   16MOL   H318 6048   3.037   1.144   4.492  0.2132  0.5994  0.1973
   16MOL   H319 6049   2.993   0.977   4.733 -0.9918  0.3679 -0.1158
   16MOL   H320 6050   2.896   1.115   4.663  0.9458  2.0618 -2.4542
   16MOL   H321 6051   3.050   1.148   4.738 -1.6485  1.3995 -0.9162
   16MOL   H322 6052   2.885   0.952   4.430 -0.5928 -0.1912  2.2608
   16MOL   H323 6053   2.990   0.843   4.515  0.5234  0.2321  1.8623
   16MOL   H324 6054   3.037   0.934   4.361 -0.3850  2.2567  0.1638
   16MOL   C325 6055   3.337   0.981   4.813 -0.2370 -0.1275 -0.8576
   16MOL   C326 6056   3.468   0.989   4.886  0.9718  0.3113 -0.3385
   16MOL   O327 6057   3.566   1.051   4.803 -1.0033 -0.5646  0.3630
   16MOL   C328 6058   3.686   0.990   4.773  0.2840  0.0891 -0.3627
   16MOL   C329 6059   3.759   1.076   4.669  0.4638 -0.2490 -0.1188
   16MOL   C330 6060   3.749   1.228   4.695 -0.4593 -0.0970 -0.5967
   16MOL   C331 6061   3.894   1.015   4.626  0.4160  0.0139 -0.4533
   16MOL   H332 6062   3.272   0.932   4.886 -1.1592 -0.1367 -1.6804
   16MOL   H333 6063   3.289   1.079   4.803  0.2076  0.0216 -1.5917
   16MOL   H334 6064   3.503   0.892   4.923  1.2384  0.2757 -0.6806
   16MOL   H335 6065   3.741   0.988   4.867 -0.5338 -0.6603  0.1118
   16MOL   H336 6066   3.665   0.887   4.743 -2.6089  0.7274 -0.7075
   16MOL   H337 6067   3.702   1.080   4.577  1.9389  1.0185 -1.0027
   16MOL   H338 6068   3.646   1.253   4.720 -0.8866 -1.9679 -0.4220
   16MOL   H339 6069   3.807   1.262   4.782  0.7200  1.3269 -1.9074
   16MOL   H340 6070   3.779   1.294   4.614 -1.2730  0.7108 -0.2521
   16MOL   H341 6071   3.975   1.029   4.699 -0.7260 -0.3913  0.9075
   16MOL   H342 6072   3.887   0.909   4.604 -0.7840 -0.4698  2.0211
   16MOL   H343 6073   3.911   1.075   4.537 -0.7466 -1.7641 -1.8823
   16MOL   C344 6074   3.467   1.080   5.013 -0.2648 -0.2384  1.0421
   16MOL   C345 6075   3.379   1.038   5.132  0.1529  0.0601  0.6963
   16MOL   O346 6076   3.405   0.900   5.164  0.3310  0.6402  0.1243
   16MOL   C347 6077   3.287   0.830   5.210  0.4364  0.0633 -0.4709
   16MOL   C348 6078   3.306   0.680   5.246  0.1474  0.3226 -0.2550
   16MOL   C349 6079   3.359   0.600   5.126 -0.8702 -0.0347 -0.6013
   16MOL   C350 6080   3.173   0.616   5.292  0.7462  0.1741  0.1073
   16MOL   H351 6081   3.451   1.187   5.001  0.3181 -0.4670 -2.1369
   16MOL   H352 6082   3.567   1.067   5.054  0.8541 -2.2117 -2.1495
   16MOL   H353 6083   3.274   1.051   5.104  0.5696 -1.5899 -1.8252
   16MOL   H354 6084   3.209   0.838   5.134 -0.0727  2.2703  0.2396
   16MOL   H355 6085   3.248   0.886   5.295  0.9370 -0.0877 -0.1422
   16MOL   H356 6086   3.380   0.676   5.326 -0.6651  4.5628  0.8594
   16MOL   H357 6087   3.435   0.652   5.066  1.6811  1.2343  3.5262
   16MOL   H358 6088   3.273   0.571   5.066 -2.7374  0.4147  1.7873
   16MOL   H359 6089   3.401   0.503   5.152 -0.1127  0.4308 -0.0528
   16MOL   H360 6090   3.091   0.616   5.220  1.4749 -0.8615 -0.7450
   16MOL   H361 6091   3.196   0.515   5.326  1.0130  0.3717  0.5209
   16MOL   H362 6092   3.137   0.675   5.376  2.2240  1.1505  0.0845
   16MOL   C363 6093   3.414   1.131   5.255  0.0296 -0.0803  0.2958
   16MOL   C364 6094   3.378   1.280   5.244  0.3040  0.7053 -0.3784
   16MOL   O365 6095   3.235   1.280   5.229 -0.5605  0.4535  0.0127
   16MOL   C366 6096   3.204   1.361   5.115  0.5865 -0.0889  0.4992
   16MOL   C367 6097   3.050   1.334   5.077 -0.8221  0.1744  0.6719
   16MOL   C368 6098   3.014   1.385   4.939 -0.2233 -0.1348 -0.1488
   16MOL   C369 6099   2.939   1.370   5.182 -0.2043  0.1562 -0.5177
   16MOL   H370 6100   3.355   1.095   5.340 -2.1483 -1.9387 -1.9340
   16MOL   H371 6101   3.518   1.114   5.281  1.2068  1.7192 -2.9870
   16MOL   H372 6102   3.431   1.350   5.180 -0.8227  2.8835  1.0155
   16MOL   H373 6103   3.227   1.466   5.136 -1.4127  0.2155  1.2755
   16MOL   H374 6104   3.269   1.340   5.031  1.1853  1.5207  0.5292
   16MOL   H375 6105   3.049   1.226   5.060 -0.3651 -0.0520  2.0081
   16MOL   H376 6106   3.025   1.492   4.928 -1.6773  0.0237 -0.1921
   16MOL   H377 6107   2.909   1.360   4.921 -0.0241 -2.1615  1.3270
   16MOL   H378 6108   3.080   1.337   4.868 -0.0227  1.2406 -0.8980
   16MOL   H379 6109   2.838   1.333   5.166  0.4039 -1.5558 -0.5525
   16MOL   H380 6110   2.931   1.476   5.203  0.3208 -0.2559  1.9181
   16MOL   H381 6111   2.960   1.323   5.278 -2.2285  1.2289  0.4804
   16MOL   H382 6112   3.396   1.318   5.345 -1.6822  2.0715 -0.5218
   17MOL     C1 6113   1.775   2.558   0.287 -0.0096 -0.2288  0.2056
   17MOL     C2 6114   1.832   2.692   0.344  0.1689  0.0345 -0.7728
   17MOL     O3 6115   1.750   2.701   0.460 -0.1787 -0.0537  0.3377
   17MOL     C4 6116   1.742   2.831   0.517 -0.5814  0.8598 -0.1513
   17MOL     C5 6117   1.610   2.837   0.605  0.6936 -0.0035  0.2459
   17MOL     C6 6118   1.489   2.859   0.510 -0.8085 -0.6555  0.0553
   17MOL     C7 6119   1.615   2.954   0.716 -0.5274  0.2093 -0.0601
   17MOL     H8 6120   1.666   2.560   0.280 -0.0041  1.3258  0.4852
   17MOL     H9 6121   1.793   2.546   0.180 -3.4955 -2.5357 -0.2116
   17MOL    H10 6122   1.810   2.770   0.272  0.9296  0.0668 -0.9794
   17MOL    H11 6123   1.758   2.913   0.447 -0.9091  1.1533  0.1146
   17MOL    H12 6124   1.823   2.848   0.589 -1.1575  0.0097  0.7055
   17MOL    H13 6125   1.608   2.738   0.652 -1.5065 -0.0713  0.0701
   17MOL    H14 6126   1.393   2.818   0.540 -0.4711 -1.2135  0.3880
   17MOL    H15 6127   1.484   2.968   0.500  2.3913 -0.2317  2.3241
   17MOL    H16 6128   1.504   2.800   0.419  2.1132  0.2030 -0.0946
   17MOL    H17 6129   1.515   2.962   0.758 -1.3088 -1.3101 -1.5501
   17MOL    H18 6130   1.688   2.930   0.793  0.7156  1.3340 -0.8460
   17MOL    H19 6131   1.633   3.051   0.671 -2.1717 -0.2875 -1.8730
   17MOL    H20 6132   1.796   2.465   0.340  0.5639  0.7793  1.7811
   17MOL    C21 6133   1.987   2.685   0.371  0.3365  0.2774 -0.6468
   17MOL    C22 6134   2.072   2.657   0.242 -0.4562  0.5103 -0.5083
   17MOL    O23 6135   2.062   2.778   0.171  0.0263 -0.0387 -0.0797
   17MOL    C24 6136   2.035   2.772   0.031 -0.1614 -0.3611 -0.0226
   17MOL    C25 6137   2.010   2.911   7.787  0.3461  0.0049  0.8790
   17MOL    C26 6138   1.887   2.978   0.022  0.4469  0.4289 -0.5076
   17MOL    C27 6139   2.140   2.995   7.805  0.7249  0.2531 -0.0803
   17MOL    H28 6140   2.013   2.774   0.427 -1.7261  1.1528 -1.0435
   17MOL    H29 6141   2.012   2.607   0.444 -1.4403  1.0442  0.8041
   17MOL    H30 6142   2.042   2.568   0.186  2.9069  0.2175 -1.9888
   17MOL    H31 6143   1.939   2.722   0.015 -0.5976  0.4824 -0.0833
   17MOL    H32 6144   2.112   2.719   7.800  0.7682  0.7869  0.1514
   17MOL    H33 6145   1.997   2.897   7.680  1.9674 -0.5945  0.7461
   17MOL    H34 6146   1.885   2.951   0.128  1.4230 -0.1252 -0.6255
   17MOL    H35 6147   1.803   2.935   7.792 -0.5914  0.1459  1.2743
   17MOL    H36 6148   1.874   3.085   0.003  0.0977  0.8353  1.8708
   17MOL    H37 6149   2.233   2.941   7.785  0.1952 -1.0398  0.9193
   17MOL    H38 6150   2.124   3.079   7.737 -0.5688  1.1446  1.2846
   17MOL    H39 6151   2.141   3.019   0.087 -1.6675 -0.0768  0.0499
   17MOL    C40 6152   2.222   2.651   0.265  0.3856  0.2898  0.2154
   17MOL    C41 6153   2.270   2.514   0.327  0.6497  0.3441  0.9311
   17MOL    O42 6154   2.414   2.519   0.332  0.0152  0.3825  0.1062
   17MOL    C43 6155   2.451   2.557   0.465 -0.3117  0.8052 -0.2211
   17MOL    C44 6156   2.606   2.583   0.473  0.4999  0.4310  0.0757
   17MOL    C45 6157   2.656   2.620   0.607 -0.6047  0.2864 -0.1639
   17MOL    C46 6158   2.695   2.466   0.415 -0.8195 -1.0626  0.0525
   17MOL    H47 6159   2.251   2.738   0.324 -0.5385 -0.5843  2.0151
   17MOL    H48 6160   2.272   2.657   0.169  1.2942 -1.2372  0.5690
   17MOL    H49 6161   2.223   2.491   0.423 -1.4282  1.2008  0.1623
   17MOL    H50 6162   2.431   2.481   0.540  0.9736  0.0546 -0.6181
   17MOL    H51 6163   2.406   2.646   0.509 -1.4047 -0.6280  1.6473
   17MOL    H52 6164   2.617   2.674   0.414  0.6210  0.2476 -0.1844
   17MOL    H53 6165   2.758   2.655   0.591 -0.2648  0.6264  2.5584
   17MOL    H54 6166   2.605   2.706   0.649  3.1611  1.5838  2.0092
   17MOL    H55 6167   2.668   2.531   0.669 -0.1019 -0.6492 -1.5821
   17MOL    H56 6168   2.665   2.435   0.316  0.2360  0.1253 -0.6522
   17MOL    H57 6169   2.697   2.382   0.484 -2.2298 -0.9016  0.2949
   17MOL    H58 6170   2.802   2.487   0.401 -1.3504  1.4878 -0.4932
   17MOL    C59 6171   2.237   2.395   0.241 -0.1409 -0.1437  0.4034
   17MOL    C60 6172   2.258   2.259   0.308  0.3571  0.0363 -0.7205
   17MOL    O61 6173   2.183   2.255   0.429 -0.0153 -0.1815 -0.2317
   17MOL    C62 6174   2.035   2.255   0.436 -0.7032 -0.1753 -0.8568
   17MOL    C63 6175   1.989   2.208   0.580 -0.1676 -0.9252  0.3973
   17MOL    C64 6176   2.051   2.066   0.602 -0.3059  0.2337 -0.5295
   17MOL    C65 6177   2.032   2.302   0.694 -0.4448 -0.2510  0.2543
   17MOL    H66 6178   2.287   2.397   0.144 -2.4539 -1.5387 -0.8601
   17MOL    H67 6179   2.130   2.401   0.220  0.2543  0.5913 -1.5189
   17MOL    H68 6180   2.224   2.183   0.236  0.0614 -1.1089  0.6042
   17MOL    H69 6181   2.003   2.358   0.420  0.8060  0.6661  1.2572
   17MOL    H70 6182   2.001   2.183   0.361  2.0258 -2.6182  0.1450
   17MOL    H71 6183   1.880   2.197   0.583 -0.1039 -2.8717 -2.2596
   17MOL    H72 6184   2.015   2.001   0.522 -1.8039 -1.0655  1.1748
   17MOL    H73 6185   2.025   2.029   0.701  0.9106 -0.1922 -0.3511
   17MOL    H74 6186   2.160   2.074   0.593 -0.4112  2.8235  0.1383
   17MOL    H75 6187   1.978   2.395   0.709 -0.2825  0.0498 -0.9587
   17MOL    H76 6188   2.033   2.256   0.793  1.9230  0.1230  0.4434
   17MOL    H77 6189   2.135   2.332   0.673 -0.3636  0.2769  1.4072
   17MOL    C78 6190   2.401   2.207   0.333 -0.3473  0.1477  0.0764
   17MOL    C79 6191   2.421   2.058   0.380  0.3034 -0.5492  0.0352
   17MOL    O80 6192   2.349   1.974   0.295 -0.7197 -0.2988 -0.2162
   17MOL    C81 6193   2.261   1.878   0.360  1.2120 -0.3132 -0.2887
   17MOL    C82 6194   2.184   1.794   0.253  0.5172 -0.2918 -0.9400
   17MOL    C83 6195   2.078   1.878   0.191 -0.3565 -0.1643  0.6886
   17MOL    C84 6196   2.119   1.662   0.304  0.0829  0.3442  0.0346
   17MOL    H85 6197   2.444   2.277   0.405  0.9248 -0.3680 -0.1546
   17MOL    H86 6198   2.451   2.235   0.240 -0.5012 -1.4375 -0.5009
   17MOL    H87 6199   2.387   2.065   0.483  0.2679  0.8206 -0.0621
   17MOL    H88 6200   2.316   1.807   0.421  1.0763 -1.3956 -1.3982
   17MOL    H89 6201   2.186   1.929   0.421  0.9359 -1.5346  0.4079
   17MOL    H90 6202   2.253   1.777   0.171  1.7595  0.8801 -0.1627
   17MOL    H91 6203   2.015   1.925   0.266  0.2988  0.7307  0.6771
   17MOL    H92 6204   2.025   1.822   0.114  0.6925 -1.6691  1.0303
   17MOL    H93 6205   2.113   1.973   0.151  0.5034 -1.2401 -1.1990
   17MOL    H94 6206   2.193   1.585   0.324  1.0026  1.3813  0.6739
   17MOL    H95 6207   2.054   1.610   0.233 -2.1066  0.4053  1.9524
   17MOL    H96 6208   2.071   1.677   0.400 -0.6373 -1.2800 -0.0537
   17MOL    C97 6209   2.568   2.020   0.383 -0.8061  0.6213  0.7249
   17MOL    C98 6210   2.598   1.937   0.508  0.2906 -0.1060 -0.4189
   17MOL    O99 6211   2.585   2.027   0.619  0.0891  0.3262 -0.7159
   17MOL   C100 6212   2.521   1.986   0.741  0.2879 -0.2588  0.4748
   17MOL   C101 6213   2.510   2.110   0.827 -0.2775 -0.6669  0.0045
   17MOL   C102 6214   2.642   2.182   0.862  0.6666  0.0170 -0.1612
   17MOL   C103 6215   2.394   2.201   0.781 -0.3768 -0.0661  0.9009
   17MOL   H104 6216   2.626   2.112   0.393  0.4707 -0.2778  1.7643
   17MOL   H105 6217   2.601   1.968   0.293 -2.0931 -0.2152  0.7257
   17MOL   H106 6218   2.523   1.861   0.528  0.3020 -0.4252 -1.5627
   17MOL   H107 6219   2.578   1.908   0.792  3.1544  1.4633 -0.0058
   17MOL   H108 6220   2.419   1.957   0.715  1.3215  0.5320 -5.1218
   17MOL   H109 6221   2.474   2.080   0.925 -2.3750  0.7999 -0.2807
   17MOL   H110 6222   2.676   2.235   0.773  2.0859 -0.9700 -0.2208
   17MOL   H111 6223   2.634   2.250   0.947  1.3557  0.6517 -0.5873
   17MOL   H112 6224   2.720   2.108   0.877 -1.7589 -2.3232  1.2681
   17MOL   H113 6225   2.299   2.174   0.828  1.0312 -1.9947  2.6868
   17MOL   H114 6226   2.413   2.303   0.814  3.0124 -0.6147  0.8142
   17MOL   H115 6227   2.376   2.200   0.673 -0.8619  1.1309  0.9617
   17MOL   C116 6228   2.743   1.891   0.490  0.8368 -0.1167  0.8527
   17MOL   C117 6229   2.801   1.796   0.596 -0.5367 -0.4758  0.0244
   17MOL   O118 6230   2.716   1.681   0.585  0.3089 -0.7280  0.0454
   17MOL   C119 6231   2.727   1.579   0.682 -0.2878  0.1264 -0.7678
   17MOL   C120 6232   2.604   1.485   0.673  0.0287  0.2101 -0.0665
   17MOL   C121 6233   2.604   1.403   0.546  0.3221 -0.2129 -0.4601
   17MOL   C122 6234   2.592   1.405   0.802  0.3178  0.4309 -0.0685
   17MOL   H123 6235   2.749   1.857   0.387  0.5258  1.2342  0.3752
   17MOL   H124 6236   2.795   1.986   0.498  0.8671  0.0423 -0.9734
   17MOL   H125 6237   2.780   1.834   0.696 -0.5779  0.8264 -0.4668
   17MOL   H126 6238   2.729   1.635   0.775  1.5509 -1.5523  0.2310
   17MOL   H127 6239   2.826   1.534   0.673  0.1186  0.2824  2.4712
   17MOL   H128 6240   2.516   1.549   0.660 -1.1921 -1.4871 -0.3625
   17MOL   H129 6241   2.697   1.346   0.551 -1.1222 -2.6475 -0.5880
   17MOL   H130 6242   2.595   1.463   0.456 -1.9375 -0.4437 -0.4185
   17MOL   H131 6243   2.523   1.330   0.554  1.1537 -1.1327 -0.3696
   17MOL   H132 6244   2.580   1.469   0.890  0.9718  1.8458 -1.0020
   17MOL   H133 6245   2.511   1.332   0.795 -0.9625  1.7676  0.6567
   17MOL   H134 6246   2.676   1.339   0.824 -1.8590 -2.1034  1.0939
   17MOL   C135 6247   2.943   1.763   0.574 -0.3338  0.6929  0.5185
   17MOL   C136 6248   3.047   1.872   0.611  0.1855 -0.3017  0.4188
   17MOL   O137 6249   3.055   1.879   0.761  0.2164  0.8632 -0.2075
   17MOL   C138 6250   3.069   2.008   0.820 -0.4975  0.2391  0.0087
   17MOL   C139 6251   3.078   1.982   0.963 -0.1499  0.6786 -0.3608
   17MOL   C140 6252   3.138   2.102   1.032 -0.1422 -1.0079 -1.5885
   17MOL   C141 6253   2.948   1.938   1.030  0.0093  0.7186 -0.7219
   17MOL   H142 6254   2.975   1.682   0.639 -0.1956 -1.7496 -2.5183
   17MOL   H143 6255   2.953   1.723   0.474  0.1217 -1.4669  1.3949
   17MOL   H144 6256   3.006   1.964   0.570 -0.6278  0.3582  2.6361
   17MOL   H145 6257   2.982   2.066   0.789  0.3686  0.9677 -1.1540
   17MOL   H146 6258   3.157   2.055   0.776  0.2647 -0.4788  0.7539
   17MOL   H147 6259   3.153   1.905   0.982 -2.3111 -0.7949  2.5458
   17MOL   H148 6260   3.081   2.190   1.001  0.5555 -0.3687 -1.0587
   17MOL   H149 6261   3.237   2.112   0.989  0.3189  2.0549  0.0906
   17MOL   H150 6262   3.154   2.092   1.139  0.2894  1.3047 -1.4161
   17MOL   H151 6263   2.873   2.016   1.021 -1.6049 -0.8759 -1.5336
   17MOL   H152 6264   2.900   1.851   0.985 -1.2212  1.0804 -0.1233
   17MOL   H153 6265   2.960   1.913   1.135 -0.7748 -2.2381 -1.2880
   17MOL   C154 6266   3.192   1.846   0.551 -0.2687  0.3385  0.0751
   17MOL   C155 6267   3.199   1.884   0.403 -0.2874  0.2674  0.6632
   17MOL   O156 6268   3.198   2.026   0.403 -0.1004  0.0943 -0.0908
   17MOL   C157 6269   3.148   2.087   0.283  0.5339 -0.2023  0.7477
   17MOL   C158 6270   3.187   2.232   0.301  0.5693  0.0378 -0.0823
   17MOL   C159 6271   3.136   2.288   0.430 -0.2558  0.7019  0.0244
   17MOL   C160 6272   3.335   2.250   0.279  0.0535 -0.3837  0.2347
   17MOL   H161 6273   3.207   1.738   0.564 -3.0505 -0.1669 -0.7126
   17MOL   H162 6274   3.272   1.897   0.605 -0.9547  1.5281 -0.0354
   17MOL   H163 6275   3.103   1.854   0.361  1.0589 -1.2980 -1.3990
   17MOL   H164 6276   3.039   2.079   0.291  0.2542 -0.6926 -2.6878
   17MOL   H165 6277   3.191   2.055   0.188 -0.8088  1.7740 -0.5919
   17MOL   H166 6278   3.133   2.288   0.225  2.9633  1.3238 -0.8838
   17MOL   H167 6279   3.153   2.395   0.441  1.9599  0.9738 -4.7523
   17MOL   H168 6280   3.204   2.252   0.507  0.2292  0.9019 -0.3105
   17MOL   H169 6281   3.030   2.270   0.445  0.0435 -0.1488  1.1731
   17MOL   H170 6282   3.389   2.194   0.355 -2.9114 -5.2633 -1.0053
   17MOL   H171 6283   3.360   2.209   0.181  0.2613  0.7129 -0.1717
   17MOL   H172 6284   3.362   2.355   0.288 -1.4316  0.1001 -0.6678
   17MOL   C173 6285   3.328   1.833   0.328  0.0705  0.1559  0.0917
   17MOL   C174 6286   3.344   1.681   0.299 -0.2739  0.2684  0.7508
   17MOL   O175 6287   3.378   1.624   0.420  0.2152 -0.2526  0.2951
   17MOL   C176 6288   3.507   1.575   0.443  0.6727 -0.5451  0.2014
   17MOL   C177 6289   3.511   1.516   0.588 -0.3957 -0.5093 -0.0458
   17MOL   C178 6290   3.489   1.634   0.692  0.2367 -0.5270  0.5030
   17MOL   C179 6291   3.430   1.392   0.604 -0.1372  0.2758 -0.4179
   17MOL   H180 6292   3.330   1.888   0.234 -0.6556  0.0691  0.0231
   17MOL   H181 6293   3.421   1.869   0.371  0.0031 -0.9791  1.2020
   17MOL   H182 6294   3.418   1.666   0.220 -1.2776  1.0947 -0.3868
   17MOL   H183 6295   3.576   1.659   0.450 -0.7316  0.5338  1.2963
   17MOL   H184 6296   3.546   1.510   0.364  0.7108  1.1621 -1.2071
   17MOL   H185 6297   3.618   1.495   0.600 -0.5221 -0.1859  1.8517
   17MOL   H186 6298   3.502   1.605   0.797 -0.2504  0.2089  0.7712
   17MOL   H187 6299   3.571   1.700   0.664  1.2080 -1.9661 -0.1216
   17MOL   H188 6300   3.389   1.674   0.674  0.3308 -1.0916 -1.4016
   17MOL   H189 6301   3.419   1.358   0.708  2.5356  1.6517  0.3489
   17MOL   H190 6302   3.481   1.313   0.549 -0.8032  0.0834 -0.7707
   17MOL   H191 6303   3.332   1.410   0.561 -1.6145 -1.2400  2.1110
   17MOL   C192 6304   3.219   1.610   0.244 -0.5375  0.0452 -0.0510
   17MOL   C193 6305   3.177   1.655   0.102 -0.3917  0.2585  0.0175
   17MOL   O194 6306   3.041   1.627   0.067  0.0564  0.7836 -0.4889
   17MOL   C195 6307   2.933   1.699   0.118 -0.0894 -0.4376 -0.4149
   17MOL   C196 6308   2.801   1.643   0.070  0.3214  0.8410 -0.0245
   17MOL   C197 6309   2.691   1.675   0.165  0.5228 -0.1647 -0.1695
   17MOL   C198 6310   2.811   1.488   0.052  0.0021  0.1555 -0.4985
   17MOL   H199 6311   3.142   1.629   0.319 -1.6431  2.1379 -1.6849
   17MOL   H200 6312   3.247   1.504   0.235  2.3550  0.6629  0.9999
   17MOL   H201 6313   3.194   1.763   0.106  1.0620 -0.0226  1.6995
   17MOL   H202 6314   2.929   1.803   0.087 -2.5893 -0.3499  0.1198
   17MOL   H203 6315   2.944   1.694   0.227 -1.1474  0.4788 -0.2623
   17MOL   H204 6316   2.780   1.690   7.798 -0.0557 -1.9412 -1.3706
   17MOL   H205 6317   2.718   1.640   0.265  0.0222  1.4807  0.5446
   17MOL   H206 6318   2.671   1.782   0.163 -1.1960 -0.4897 -1.1076
   17MOL   H207 6319   2.597   1.635   0.127  0.5743 -1.0410  0.5948
   17MOL   H208 6320   2.890   1.466   7.805  0.4337 -0.8527  0.2901
   17MOL   H209 6321   2.852   1.441   0.141  0.2168 -1.6166 -1.5106
   17MOL   H210 6322   2.715   1.451   0.015 -0.8189  0.8268  0.9045
   17MOL   C211 6323   3.250   1.575   7.815 -0.1182 -0.0429 -0.4446
   17MOL   C212 6324   3.265   1.666   7.696  0.5326 -0.3841 -0.2642
   17MOL   O213 6325   3.369   1.751   7.746 -0.1059 -0.3148  0.3148
   17MOL   C214 6326   3.347   1.888   7.727  0.1538  0.0795 -0.6869
   17MOL   C215 6327   3.478   1.968   7.726  0.3186 -0.7151  0.1741
   17MOL   C216 6328   3.459   2.109   7.674  0.0558 -0.4422 -0.6829
   17MOL   C217 6329   3.533   1.963   0.041  0.0563 -0.0629 -0.6427
   17MOL   H218 6330   3.194   1.485   7.793 -0.9753  0.3351  0.1473
   17MOL   H219 6331   3.349   1.546   0.026 -0.8392  0.3697  2.0008
   17MOL   H220 6332   3.176   1.724   7.670 -0.2245 -1.4305 -0.0235
   17MOL   H221 6333   3.274   1.919   7.802  2.1214  0.3315  1.1447
   17MOL   H222 6334   3.296   1.909   7.633 -1.3857  1.1581  0.3602
   17MOL   H223 6335   3.544   1.920   7.654  0.4723 -2.3103  1.3544
   17MOL   H224 6336   3.557   2.155   7.666 -1.1008  2.5424  1.3449
   17MOL   H225 6337   3.420   2.115   7.572 -1.5276  0.7039 -0.0408
   17MOL   H226 6338   3.393   2.169   7.737  0.6578 -0.1616 -0.3251
   17MOL   H227 6339   3.466   2.007   0.115  1.6535  2.2471 -0.5297
   17MOL   H228 6340   3.624   2.022   0.043  0.2324 -0.3274 -0.7591
   17MOL   H229 6341   3.561   1.864   0.077 -0.5368 -0.3196 -0.8825
   17MOL   C230 6342   3.327   1.588   7.575 -0.2923  0.4810  0.2818
   17MOL   C231 6343   3.309   1.665   7.438 -0.2735  0.1284 -0.2484
   17MOL   O232 6344   3.397   1.608   7.340 -0.4156  0.2188  0.6936
   17MOL   C233 6345   3.413   1.681   7.217  0.1968 -0.2770 -0.0918
   17MOL   C234 6346   3.547   1.634   7.153 -0.1199 -1.0851 -0.1011
   17MOL   C235 6347   3.670   1.668   7.241 -0.1564  0.1442 -0.2697
   17MOL   C236 6348   3.556   1.483   7.130  0.0258 -0.7440  0.8842
   17MOL   H237 6349   3.284   1.490   7.552 -0.1268  1.0891 -2.8472
   17MOL   H238 6350   3.433   1.578   7.597 -0.7080 -2.4279  1.2939
   17MOL   H239 6351   3.350   1.764   7.457  1.5760 -0.7598  0.5687
   17MOL   H240 6352   3.332   1.670   7.144  1.0675  0.7585 -1.2485
   17MOL   H241 6353   3.421   1.787   7.239  1.5547 -0.4313  0.1720
   17MOL   H242 6354   3.551   1.684   7.056  3.0658 -1.9133 -0.4452
   17MOL   H243 6355   3.762   1.639   7.191 -0.2392 -1.3033  0.3803
   17MOL   H244 6356   3.667   1.611   7.334 -0.3647 -1.2443 -1.1141
   17MOL   H245 6357   3.673   1.772   7.271 -0.0662  0.6188 -1.8564
   17MOL   H246 6358   3.556   1.435   7.228  0.7728  0.0231  1.2666
   17MOL   H247 6359   3.473   1.429   7.084 -0.4626 -0.4684  1.4247
   17MOL   H248 6360   3.645   1.453   7.076  1.2124  1.6976  1.4393
   17MOL   C249 6361   3.163   1.672   7.383  0.3376  0.2733  0.9854
   17MOL   C250 6362   3.098   1.808   7.387  0.5131 -0.8031  0.3797
   17MOL   O251 6363   3.129   1.882   7.263  0.7891  0.5872  0.6363
   17MOL   C252 6364   3.221   1.980   7.283 -0.7775  0.0843 -0.5230
   17MOL   C253 6365   3.218   2.059   7.148  0.0382 -0.0407 -0.1517
   17MOL   C254 6366   3.314   2.182   7.159  0.1356  0.3709 -0.4012
   17MOL   C255 6367   3.072   2.102   7.105 -0.7279  1.2231  0.4355
   17MOL   H256 6368   3.111   1.598   7.445 -0.9292  0.0630 -0.2975
   17MOL   H257 6369   3.161   1.640   7.279  1.8768 -1.2142  1.3821
   17MOL   H258 6370   3.140   1.855   7.476  1.1269  0.4273 -0.5465
   17MOL   H259 6371   3.197   2.037   7.373 -0.4840 -0.1746 -0.2740
   17MOL   H260 6372   3.320   1.942   7.311 -2.0486 -1.2246  2.4263
   17MOL   H261 6373   3.252   1.988   7.072 -1.4926 -1.5107  0.4988
   17MOL   H262 6374   3.416   2.169   7.196 -0.6186  1.2455  2.1315
   17MOL   H263 6375   3.267   2.254   7.226  0.4663 -1.0273  1.3952
   17MOL   H264 6376   3.329   2.236   7.066  3.3676 -1.1969 -0.8587
   17MOL   H265 6377   3.071   2.152   7.008 -1.6901 -0.1539 -0.2697
   17MOL   H266 6378   3.011   2.013   7.090  0.9886  0.0614  0.1665
   17MOL   H267 6379   3.024   2.159   7.185  0.3987  2.3244  0.3561
   17MOL   C268 6380   2.952   1.774   7.396  0.1733  0.3586 -0.6398
   17MOL   C269 6381   2.867   1.906   7.395  0.1870  0.0906 -0.3593
   17MOL   O270 6382   2.891   1.971   7.516 -1.1260  0.8858  0.8470
   17MOL   C271 6383   2.902   2.114   7.501 -0.0044 -0.0583  0.2200
   17MOL   C272 6384   2.935   2.170   7.642  0.2479  0.2733  0.6880
   17MOL   C273 6385   2.831   2.134   7.751 -0.5879  0.0896  0.0208
   17MOL   C274 6386   3.076   2.129   7.689  0.0085  0.3752  0.2817
   17MOL   H275 6387   2.930   1.723   7.490  1.4052 -0.1884 -0.6413
   17MOL   H276 6388   2.911   1.715   7.315 -0.8901 -1.7571  1.3768
   17MOL   H277 6389   2.898   1.961   7.306 -0.9449 -0.4166 -1.0882
   17MOL   H278 6390   2.980   2.142   7.429  0.4885 -0.6295  0.5239
   17MOL   H279 6391   2.810   2.149   7.453  0.4557  0.7358 -0.1062
   17MOL   H280 6392   2.946   2.277   7.624 -1.4615  1.0010  3.7369
   17MOL   H281 6393   2.726   2.162   7.749 -0.1263  1.8493 -3.1671
   17MOL   H282 6394   2.857   2.172   0.025  0.6882 -0.0194 -0.2621
   17MOL   H283 6395   2.830   2.028   7.776  1.4968  0.2366  0.8214
   17MOL   H284 6396   3.075   2.023   7.713  1.4183  0.1341 -0.6774
   17MOL   H285 6397   3.095   2.167   7.790 -2.0510 -0.4319  1.0087
   17MOL   H286 6398   3.158   2.156   7.623  1.3146 -1.6483  1.0394
   17MOL   C287 6399   2.711   1.891   7.393 -0.0255  0.5074  0.4748
   17MOL   C288 6400   2.647   1.834   7.258  0.2157 -0.7459 -0.7007
   17MOL   O289 6401   2.662   1.692   7.240  0.3857  0.3819  0.0590
   17MOL   C290 6402   2.562   1.610   7.299  0.2146  0.7413 -0.9290
   17MOL   C291 6403   2.574   1.462   7.266 -0.0562 -0.8152 -0.4162
   17MOL   C292 6404   2.718   1.407   7.300  0.1219 -0.2992 -0.2436
   17MOL   C293 6405   2.532   1.433   7.120  0.1947 -0.2721  0.3570
   17MOL   H294 6406   2.668   1.990   7.409  0.3770  0.5104  1.5809
   17MOL   H295 6407   2.674   1.834   7.478 -2.0861  2.1786  0.7439
   17MOL   H296 6408   2.542   1.864   7.260  0.2062  0.0673 -5.7267
   17MOL   H297 6409   2.572   1.620   7.407  4.1774  1.0986 -1.2606
   17MOL   H298 6410   2.458   1.633   7.274 -0.2027 -0.8950 -0.7991
   17MOL   H299 6411   2.500   1.410   7.327 -1.7657  0.5763 -1.2328
   17MOL   H300 6412   2.744   1.452   7.397 -1.2706  0.4613 -0.1998
   17MOL   H301 6413   2.797   1.417   7.226  1.1333 -1.2459  0.6884
   17MOL   H302 6414   2.706   1.300   7.317 -0.9902 -0.3122 -1.0772
   17MOL   H303 6415   2.598   1.489   7.053  1.1800 -1.3790  0.4034
   17MOL   H304 6416   2.524   1.326   7.103  0.2899  0.0327 -1.7240
   17MOL   H305 6417   2.437   1.480   7.094  0.3667 -0.8116 -1.2934
   17MOL   C306 6418   2.702   1.906   7.134 -0.4285 -0.5221 -0.0531
   17MOL   C307 6419   2.599   1.919   7.022  0.1606  0.7099  0.2480
   17MOL   O308 6420   2.502   2.007   7.067  0.3241  0.2980 -0.0525
   17MOL   C309 6421   2.375   2.005   6.999 -0.2552 -0.6251 -0.0375
   17MOL   C310 6422   2.268   1.961   7.100  0.4617 -0.0729  0.0619
   17MOL   C311 6423   2.121   1.959   7.032  0.1546  0.7197  0.0353
   17MOL   C312 6424   2.277   2.024   7.237  0.4331 -0.3949  0.2072
   17MOL   H313 6425   2.787   1.849   7.097 -1.1195 -0.6216 -1.5533
   17MOL   H314 6426   2.738   2.007   7.153 -0.3702 -0.3808 -0.8985
   17MOL   H315 6427   2.557   1.819   7.005 -3.0248  1.9987  0.2283
   17MOL   H316 6428   2.362   1.946   6.908 -1.5349 -0.5283  0.0708
   17MOL   H317 6429   2.356   2.107   6.967  0.3332 -0.3947  0.3474
   17MOL   H318 6430   2.285   1.855   7.119  0.0307 -0.4777 -1.6637
   17MOL   H319 6431   2.048   1.912   7.097 -0.2997  1.3497 -0.0133
   17MOL   H320 6432   2.113   1.900   6.940  1.3243  1.3984 -0.5260
   17MOL   H321 6433   2.091   2.063   7.023 -2.1464  0.2220  1.6502
   17MOL   H322 6434   2.243   2.127   7.227 -2.3522 -1.3090 -0.0260
   17MOL   H323 6435   2.379   2.014   7.273  0.4487  2.4350  1.1489
   17MOL   H324 6436   2.216   1.974   7.312  0.0128 -1.7799 -1.0604
   17MOL   C325 6437   2.666   1.959   6.887  0.9676  0.5628  0.3327
   17MOL   C326 6438   2.766   2.071   6.884 -0.1329 -0.0991  0.5733
   17MOL   O327 6439   2.834   2.060   6.761 -0.4403 -0.3839 -0.2377
   17MOL   C328 6440   2.961   1.994   6.756  0.0648 -0.3662 -0.6684
   17MOL   C329 6441   3.054   2.055   6.653  0.5285  0.1433 -0.0955
   17MOL   C330 6442   3.202   2.000   6.646 -0.5196  0.5495  0.6613
   17MOL   C331 6443   2.995   2.037   6.518 -0.8223  0.0582 -0.3685
   17MOL   H332 6444   2.585   1.973   6.816  0.8498 -1.5908  0.0291
   17MOL   H333 6445   2.721   1.873   6.849 -1.7900 -1.5452  0.9110
   17MOL   H334 6446   2.838   2.069   6.965  0.9260 -0.4282 -0.3638
   17MOL   H335 6447   3.007   2.002   6.855 -4.1100 -1.6898  1.5221
   17MOL   H336 6448   2.941   1.888   6.740  0.9137 -0.5285 -0.6592
   17MOL   H337 6449   3.053   2.161   6.677 -2.4100 -0.2548  1.9045
   17MOL   H338 6450   3.268   2.033   6.726 -0.7623  1.6852  0.3919
   17MOL   H339 6451   3.194   1.891   6.649 -2.3739  0.6740  0.9858
   17MOL   H340 6452   3.256   2.015   6.553 -1.3735 -0.3732  0.0081
   17MOL   H341 6453   3.040   2.105   6.445 -2.4184  1.4543 -0.0866
   17MOL   H342 6454   3.024   1.940   6.477  2.0733  1.2808 -1.3632
   17MOL   H343 6455   2.887   2.054   6.509 -0.7582 -0.0162 -1.3419
   17MOL   C344 6456   2.690   2.198   6.894  0.1308  0.0108 -0.4235
   17MOL   C345 6457   2.778   2.332   6.906  0.3171  1.0309 -0.3633
   17MOL   O346 6458   2.709   2.452   6.894 -0.0047  0.3696  0.1289
   17MOL   C347 6459   2.680   2.496   6.765  0.4589  0.4766 -0.5759
   17MOL   C348 6460   2.616   2.640   6.761  0.3961 -0.2673  0.4109
   17MOL   C349 6461   2.725   2.741   6.737  0.0526 -0.7956  0.2998
   17MOL   C350 6462   2.521   2.680   6.874  0.1484  0.0482  0.2014
   17MOL   H351 6463   2.619   2.197   6.978 -1.4395  0.4857 -1.7143
   17MOL   H352 6464   2.635   2.209   6.801 -3.4117  1.4968  1.7271
   17MOL   H353 6465   2.860   2.340   6.836  2.3048  0.2037  1.7855
   17MOL   H354 6466   2.623   2.418   6.714  0.9600  0.3210 -0.8967
   17MOL   H355 6467   2.770   2.511   6.706  0.2107  0.2070 -1.0278
   17MOL   H356 6468   2.560   2.651   6.668  0.5500 -1.1343  0.2044
   17MOL   H357 6469   2.773   2.724   6.641 -1.6744  0.6426 -0.8538
   17MOL   H358 6470   2.800   2.735   6.815  3.4229  1.9953 -2.5854
   17MOL   H359 6471   2.691   2.844   6.740  0.2005 -0.7436  0.1541
   17MOL   H360 6472   2.576   2.657   6.965 -0.5076 -0.9601  0.3489
   17MOL   H361 6473   2.499   2.787   6.871  2.8129  0.6033 -2.0910
   17MOL   H362 6474   2.428   2.622   6.873  1.9671 -3.0008 -1.2202
   17MOL   C363 6475   2.826   2.352   7.051  0.0269  0.0558 -0.5719
   17MOL   C364 6476   2.927   2.464   7.071  0.2441  0.1566 -0.1341
   17MOL   O365 6477   2.973   2.467   7.209  0.1103  0.1745  0.3727
   17MOL   C366 6478   3.044   2.584   7.252  0.6262 -0.5416  0.2353
   17MOL   C367 6479   3.067   2.582   7.405  0.1239  0.3133 -0.3890
   17MOL   C368 6480   3.180   2.487   7.450  0.1854 -0.5577 -0.8883
   17MOL   C369 6481   2.949   2.529   7.493  0.6681  0.2515 -0.2171
   17MOL   H370 6482   2.734   2.363   7.109  0.2495  0.2962 -0.2664
   17MOL   H371 6483   2.870   2.258   7.084 -1.1662  0.1929  1.4634
   17MOL   H372 6484   2.899   2.564   7.037 -0.2141  0.2732  0.6020
   17MOL   H373 6485   3.133   2.609   7.195  0.6594 -0.3885  0.3572
   17MOL   H374 6486   2.976   2.666   7.230 -0.8734 -1.7762  0.1039
   17MOL   H375 6487   3.083   2.684   7.441 -0.4683 -0.1282  1.1626
   17MOL   H376 6488   3.187   2.496   7.558 -1.8630 -0.5272 -0.7459
   17MOL   H377 6489   3.274   2.521   7.405 -0.7739  0.9549 -1.7741
   17MOL   H378 6490   3.161   2.382   7.424  0.6583 -0.3660 -2.0696
   17MOL   H379 6491   2.925   2.424   7.476  0.2574  0.4473 -0.8574
   17MOL   H380 6492   2.860   2.586   7.467 -0.6410 -1.2990  0.7477
   17MOL   H381 6493   2.961   2.546   7.600 -1.1084 -1.6425  0.3139
   17MOL   H382 6494   3.020   2.430   7.024 -1.0952 -3.8021 -0.0811
   18MOL     C1 6495   3.933   5.753   0.934  0.4165  0.2154 -0.8212
   18MOL     C2 6496   3.873   5.716   1.079  0.9004  0.1340  0.5476
   18MOL     O3 6497   3.809   5.826   1.139 -0.6864 -0.0756  0.3938
   18MOL     C4 6498   3.892   5.925   1.199  0.0372 -0.2834 -0.6477
   18MOL     C5 6499   3.818   6.009   1.297  0.0999  0.3867 -0.7726
   18MOL     C6 6500   3.917   6.105   1.365  0.0169  0.1663  0.1827
   18MOL     C7 6501   3.746   5.920   1.403  0.2659 -1.0025  0.1354
   18MOL     H8 6502   4.020   5.814   0.955 -0.5758  1.0863  0.8223
   18MOL     H9 6503   3.981   5.675   0.874  0.8657  0.2914 -0.5619
   18MOL    H10 6504   3.952   5.682   1.146  1.7578 -0.6602 -0.8450
   18MOL    H11 6505   3.937   5.984   1.119 -0.7307  0.5115 -0.4980
   18MOL    H12 6506   3.974   5.873   1.249  0.8011  0.2092 -1.3814
   18MOL    H13 6507   3.743   6.068   1.245 -0.3760  2.6309  2.3270
   18MOL    H14 6508   4.006   6.060   1.407  0.2095  0.8993  0.5582
   18MOL    H15 6509   3.948   6.188   1.301 -0.1586  1.4132  1.6862
   18MOL    H16 6510   3.866   6.156   1.447  1.9272  1.3946  0.6189
   18MOL    H17 6511   3.715   5.984   1.486  1.4530  0.3898 -0.4606
   18MOL    H18 6512   3.670   5.867   1.347 -0.6386  1.2475 -0.8486
   18MOL    H19 6513   3.808   5.840   1.444  0.1811  0.0413  2.4169
   18MOL    H20 6514   3.855   5.806   0.879  1.3849  1.9923 -0.5266
   18MOL    C21 6515   3.778   5.595   1.081  0.1551 -1.0651 -0.1141
   18MOL    C22 6516   3.682   5.584   0.957 -0.3790 -0.4357  0.0501
   18MOL    O23 6517   3.623   5.456   0.966 -0.5542  0.3527 -0.2198
   18MOL    C24 6518   3.676   5.358   0.875  0.5841 -0.2604  0.4503
   18MOL    C25 6519   3.604   5.224   0.903  0.1689  0.1443 -0.6188
   18MOL    C26 6520   3.629   5.180   1.046  0.6213  0.2221  0.0517
   18MOL    C27 6521   3.457   5.231   0.878  0.0285  0.1916 -0.3268
   18MOL    H28 6522   3.845   5.510   1.075  1.6171  0.2204 -3.1506
   18MOL    H29 6523   3.710   5.586   1.166  0.4121 -0.1179  0.2034
   18MOL    H30 6524   3.735   5.584   0.862 -0.7015 -1.8126 -0.1367
   18MOL    H31 6525   3.783   5.347   0.890  0.7492 -1.2502 -1.2195
   18MOL    H32 6526   3.668   5.399   0.774 -0.3031 -0.8245  0.2759
   18MOL    H33 6527   3.654   5.145   0.847 -0.5082 -2.3192  2.1176
   18MOL    H34 6528   3.611   5.258   1.120  0.8914 -0.0721  0.4258
   18MOL    H35 6529   3.735   5.159   1.058  0.8286  0.9650 -0.4218
   18MOL    H36 6530   3.569   5.094   1.076  0.8653  0.2411  0.6031
   18MOL    H37 6531   3.411   5.132   0.889 -0.4372  0.6660  2.3656
   18MOL    H38 6532   3.395   5.294   0.941 -1.4187 -2.0018  0.5279
   18MOL    H39 6533   3.436   5.262   0.776 -1.2217 -1.1635 -0.4937
   18MOL    C40 6534   3.564   5.683   0.957 -0.0175 -0.8216  0.1436
   18MOL    C41 6535   3.483   5.689   0.822 -0.6002  0.8664 -0.0721
   18MOL    O42 6536   3.559   5.749   0.720 -0.0913  0.2717  0.6664
   18MOL    C43 6537   3.590   5.668   0.610  0.4219  0.0851 -0.7476
   18MOL    C44 6538   3.667   5.747   0.502  0.2097  0.0001 -0.0836
   18MOL    C45 6539   3.600   5.887   0.484 -0.2506  0.6323  0.1732
   18MOL    C46 6540   3.815   5.766   0.535  0.0378  0.5027 -0.6405
   18MOL    H47 6541   3.599   5.785   0.970 -1.9749  0.1407 -1.8902
   18MOL    H48 6542   3.497   5.668   1.042 -0.8300  0.0406 -0.3397
   18MOL    H49 6543   3.461   5.583   0.808 -1.3018  0.8037  1.4582
   18MOL    H50 6544   3.494   5.630   0.576 -0.3758  1.4421 -0.0569
   18MOL    H51 6545   3.636   5.582   0.658 -0.3035 -0.6295 -1.3246
   18MOL    H52 6546   3.674   5.688   0.410 -1.1074 -2.2741  1.2420
   18MOL    H53 6547   3.626   5.972   0.546  0.6235  0.0489  0.6185
   18MOL    H54 6548   3.626   5.922   0.384 -0.6310 -0.2551 -0.2501
   18MOL    H55 6549   3.492   5.884   0.497 -0.1206  2.4723  1.7782
   18MOL    H56 6550   3.867   5.671   0.546  1.2899  1.0302 -1.9409
   18MOL    H57 6551   3.838   5.819   0.627  0.8212 -0.0018 -0.5482
   18MOL    H58 6552   3.856   5.818   0.448 -0.9834 -1.3432 -2.2674
   18MOL    C59 6553   3.354   5.764   0.842  0.3520 -0.4898 -0.1978
   18MOL    C60 6554   3.255   5.750   0.722 -0.2071 -0.3049  0.7081
   18MOL    O61 6555   3.136   5.832   0.752 -0.0518 -0.3777  0.1372
   18MOL    C62 6556   3.146   5.966   0.708 -0.7519 -0.1783  0.1496
   18MOL    C63 6557   3.021   6.042   0.759 -0.6752  0.6135 -0.6377
   18MOL    C64 6558   2.890   5.983   0.698 -0.5513 -1.0842 -0.5713
   18MOL    C65 6559   3.018   6.034   0.919 -0.2461  0.3744 -0.7378
   18MOL    H66 6560   3.382   5.867   0.860 -1.3111  0.3685 -2.2893
   18MOL    H67 6561   3.311   5.729   0.936 -0.8170  0.6788 -0.2923
   18MOL    H68 6562   3.309   5.776   0.631 -2.1261 -0.1598 -0.4244
   18MOL    H69 6563   3.237   6.014   0.744  0.2705 -0.5748 -1.8635
   18MOL    H70 6564   3.157   5.978   0.601  1.7326 -0.4805  0.3449
   18MOL    H71 6565   3.022   6.148   0.732 -2.7520  0.4728 -1.2632
   18MOL    H72 6566   2.885   5.982   0.589 -2.2480 -1.0695 -0.5139
   18MOL    H73 6567   2.799   6.027   0.740 -0.6895 -2.8618  1.1129
   18MOL    H74 6568   2.878   5.881   0.736 -0.6005 -0.7098  0.4274
   18MOL    H75 6569   3.118   6.041   0.962 -0.3228  1.4485 -0.7222
   18MOL    H76 6570   2.973   6.124   0.960  0.1952  0.5664 -0.6640
   18MOL    H77 6571   2.978   5.939   0.955  0.4959  1.3668  2.9990
   18MOL    C78 6572   3.201   5.612   0.691  0.0155 -0.3293 -0.2212
   18MOL    C79 6573   3.102   5.612   0.572  0.2794  0.9727  0.2126
   18MOL    O80 6574   3.184   5.639   0.463 -0.0480  0.3507  0.6921
   18MOL    C81 6575   3.125   5.676   0.342  0.3401 -0.0067  0.2982
   18MOL    C82 6576   3.176   5.813   0.293  0.3368  0.6297  0.0554
   18MOL    C83 6577   3.070   5.919   0.295  0.5704  0.2401 -0.3044
   18MOL    C84 6578   3.216   5.805   0.147  0.3101 -0.3220  0.1123
   18MOL    H85 6579   3.147   5.588   0.783 -0.0445  1.2867  0.1844
   18MOL    H86 6580   3.275   5.533   0.683  0.9507  0.4371  0.7053
   18MOL    H87 6581   3.034   5.694   0.593  0.2247  1.3620 -1.3852
   18MOL    H88 6582   3.164   5.597   0.277 -0.3389  1.6199 -2.1353
   18MOL    H89 6583   3.017   5.671   0.343  0.3365 -0.4254 -1.4574
   18MOL    H90 6584   3.251   5.848   0.364 -0.1381  0.3030  0.7234
   18MOL    H91 6585   3.114   6.018   0.285 -2.3656  1.6548  0.0725
   18MOL    H92 6586   3.009   5.926   0.385 -0.2187  0.1600 -0.8263
   18MOL    H93 6587   3.007   5.916   0.206  2.5698  1.0500 -1.7897
   18MOL    H94 6588   3.158   5.740   0.082 -0.0793 -0.0779  0.2158
   18MOL    H95 6589   3.315   5.759   0.145  1.1397  1.4166 -0.7173
   18MOL    H96 6590   3.211   5.906   0.104 -0.2463 -0.1768  0.5201
   18MOL    C97 6591   3.023   5.475   0.561 -0.6217 -0.8304 -0.2187
   18MOL    C98 6592   2.926   5.426   0.676  0.2369 -0.5203 -0.1851
   18MOL    O99 6593   2.849   5.316   0.638  0.1784 -0.0562 -0.1093
   18MOL   C100 6594   2.904   5.188   0.630  0.3112 -0.3972 -0.1446
   18MOL   C101 6595   2.793   5.083   0.594 -0.8974 -0.2820  0.5642
   18MOL   C102 6596   2.693   5.063   0.709 -0.1670  0.2306  0.6577
   18MOL   C103 6597   2.722   5.135   0.469  0.2167 -0.6120  0.2986
   18MOL   H104 6598   3.091   5.395   0.533 -1.8304 -1.9444 -0.0406
   18MOL   H105 6599   2.956   5.490   0.476  2.5615  0.1144 -2.6360
   18MOL   H106 6600   2.977   5.396   0.767  1.8030  3.0916  0.1865
   18MOL   H107 6601   2.953   5.176   0.726 -0.5410  3.2353  0.8392
   18MOL   H108 6602   2.985   5.192   0.557  1.7882 -1.2681  1.4198
   18MOL   H109 6603   2.840   4.986   0.577  0.4916  0.3024  1.0004
   18MOL   H110 6604   2.654   5.163   0.729 -1.8279  0.0940 -1.8114
   18MOL   H111 6605   2.607   5.008   0.673 -0.4372  1.1534 -0.1137
   18MOL   H112 6606   2.737   5.026   0.802 -0.4435  2.4218  1.6927
   18MOL   H113 6607   2.648   5.059   0.442 -0.1331  0.6443 -2.5221
   18MOL   H114 6608   2.668   5.228   0.488  1.1867  0.7384 -3.0889
   18MOL   H115 6609   2.786   5.153   0.383  0.7415 -1.1872  0.5668
   18MOL   C116 6610   2.829   5.539   0.712  0.5646 -0.2126 -0.3397
   18MOL   C117 6611   2.733   5.508   0.834  0.1547 -0.6902  0.1354
   18MOL   O118 6612   2.814   5.467   0.948 -0.1119 -0.3296  0.3877
   18MOL   C119 6613   2.895   5.578   0.993 -0.4893  0.2820 -0.0325
   18MOL   C120 6614   2.916   5.551   1.148 -0.3265 -0.5653  0.6687
   18MOL   C121 6615   3.001   5.435   1.184  0.4151  0.7651 -0.0129
   18MOL   C122 6616   2.958   5.682   1.216  0.5465  0.4676 -0.0163
   18MOL   H123 6617   2.878   5.631   0.741  0.0768 -0.2679  0.6673
   18MOL   H124 6618   2.764   5.571   0.631 -1.9529 -1.1610  1.2453
   18MOL   H125 6619   2.688   5.416   0.798 -1.4224  0.0372  0.2026
   18MOL   H126 6620   2.856   5.678   0.979 -0.4097  0.1155 -1.4699
   18MOL   H127 6621   2.992   5.575   0.943 -0.5354  0.0477 -0.1099
   18MOL   H128 6622   2.817   5.540   1.192 -0.9700 -0.6232 -0.7440
   18MOL   H129 6623   3.088   5.441   1.119  0.1301 -1.4110 -0.6393
   18MOL   H130 6624   2.943   5.348   1.153  0.3775  0.7941 -0.0252
   18MOL   H131 6625   3.016   5.436   1.292 -2.0597  0.1120  0.3621
   18MOL   H132 6626   2.948   5.672   1.324 -0.9884 -0.9610 -0.2690
   18MOL   H133 6627   3.055   5.719   1.180  1.2460 -1.1784  0.1506
   18MOL   H134 6628   2.882   5.754   1.183 -1.1288 -1.1025  0.3692
   18MOL   C135 6629   2.634   5.620   0.863  0.7824  0.3462  0.2331
   18MOL   C136 6630   2.506   5.622   0.772 -0.3955  0.2616 -0.3509
   18MOL   O137 6631   2.436   5.501   0.800 -0.9820 -0.0512  0.4617
   18MOL   C138 6632   2.369   5.446   0.688 -0.7224 -0.5913 -0.3395
   18MOL   C139 6633   2.290   5.318   0.729 -0.6209  0.1315  0.1982
   18MOL   C140 6634   2.378   5.192   0.737  0.1340 -0.2397 -0.3200
   18MOL   C141 6635   2.214   5.350   0.850  1.0403 -0.4352  0.1773
   18MOL   H142 6636   2.603   5.616   0.968  1.2799  3.3421  0.5457
   18MOL   H143 6637   2.677   5.720   0.854  1.1797  0.3346  1.7329
   18MOL   H144 6638   2.531   5.630   0.666  0.4009 -0.2437 -0.2002
   18MOL   H145 6639   2.440   5.416   0.610 -0.8845  1.4124 -1.2872
   18MOL   H146 6640   2.305   5.514   0.632 -0.4665 -0.6665 -0.7307
   18MOL   H147 6641   2.218   5.298   0.650 -0.8782 -4.4055  1.4348
   18MOL   H148 6642   2.449   5.184   0.655  1.8349 -0.2282  1.1271
   18MOL   H149 6643   2.314   5.105   0.748  0.7394 -0.7617 -0.9403
   18MOL   H150 6644   2.430   5.194   0.833 -2.2259  0.8793  0.9889
   18MOL   H151 6645   2.142   5.269   0.857  0.7672 -0.4220 -2.1524
   18MOL   H152 6646   2.266   5.350   0.945  0.8406 -0.3997  0.2876
   18MOL   H153 6647   2.138   5.428   0.837  1.1121 -0.4496 -0.3438
   18MOL   C154 6648   2.400   5.728   0.809 -0.0760 -0.5236 -0.0874
   18MOL   C155 6649   2.424   5.860   0.743 -0.2895 -0.2498 -0.0480
   18MOL   O156 6650   2.429   5.847   0.600 -0.1919  0.3723  0.4203
   18MOL   C157 6651   2.510   5.942   0.536  0.5330 -0.9299 -0.1302
   18MOL   C158 6652   2.550   5.905   0.395 -0.1126  0.4231  0.1295
   18MOL   C159 6653   2.430   5.884   0.300 -1.1899 -0.0067 -0.5256
   18MOL   C160 6654   2.652   6.008   0.335 -0.1936  0.1145  0.2343
   18MOL   H161 6655   2.395   5.743   0.917 -2.2362 -1.9919  0.0451
   18MOL   H162 6656   2.299   5.694   0.785 -0.8930  0.0733  2.4262
   18MOL   H163 6657   2.517   5.904   0.778 -1.1821  1.4838  0.1670
   18MOL   H164 6658   2.597   5.936   0.601  0.0514 -1.5163  0.4594
   18MOL   H165 6659   2.471   6.043   0.547 -0.0984 -1.5092  3.2850
   18MOL   H166 6660   2.610   5.815   0.407  0.4302  0.7360 -0.2289
   18MOL   H167 6661   2.357   5.819   0.348 -1.3222  2.7657  3.3072
   18MOL   H168 6662   2.476   5.812   0.232  1.7928 -0.0392  1.4506
   18MOL   H169 6663   2.377   5.965   0.250  0.8345 -0.3006 -3.2683
   18MOL   H170 6664   2.722   6.035   0.414  0.1327  2.8020 -0.9220
   18MOL   H171 6665   2.703   5.960   0.252 -1.5189  0.3608 -0.7365
   18MOL   H172 6666   2.596   6.096   0.304 -1.9920 -0.3081  2.1566
   18MOL   C173 6667   2.306   5.950   0.766  0.0467 -0.0772 -0.2133
   18MOL   C174 6668   2.266   5.969   0.920  0.4994  0.0702  0.5509
   18MOL   O175 6669   2.390   6.012   0.980  0.2809  0.0534  0.0488
   18MOL   C176 6670   2.393   6.011   1.120 -0.1651  0.3479 -0.5406
   18MOL   C177 6671   2.523   6.080   1.166 -0.6401 -0.6409 -0.1179
   18MOL   C178 6672   2.538   6.075   1.317 -0.1100  0.0222  0.4692
   18MOL   C179 6673   2.643   6.004   1.100  0.5069  0.3062  0.0758
   18MOL   H180 6674   2.327   6.048   0.723  1.7919  0.4336  1.7315
   18MOL   H181 6675   2.227   5.907   0.705 -0.1286 -0.6641  0.4307
   18MOL   H182 6676   2.235   5.877   0.971 -2.5809 -0.0935 -1.4442
   18MOL   H183 6677   2.404   5.906   1.144 -1.6287  0.2064 -0.4662
   18MOL   H184 6678   2.312   6.067   1.168  1.1755  0.7371  1.3332
   18MOL   H185 6679   2.526   6.182   1.129  0.1862 -0.4310  0.5306
   18MOL   H186 6680   2.529   5.974   1.355 -0.0957  0.0319  0.4979
   18MOL   H187 6681   2.632   6.113   1.355 -0.1641  0.9772 -0.3217
   18MOL   H188 6682   2.464   6.141   1.363  0.3033  0.7648  0.0757
   18MOL   H189 6683   2.740   6.039   1.134  0.0536 -1.8746  3.8200
   18MOL   H190 6684   2.636   6.021   0.992 -0.9694  1.1345  0.2878
   18MOL   H191 6685   2.640   5.896   1.119 -0.6815 -0.1223 -2.3357
   18MOL   C192 6686   2.145   6.068   0.928 -0.0308 -0.4469  0.8358
   18MOL   C193 6687   2.014   6.036   0.846 -1.3296  0.1316  0.2170
   18MOL   O194 6688   1.924   6.146   0.884 -0.1701  0.4107 -0.1965
   18MOL   C195 6689   1.930   6.261   0.805 -0.1085  0.5719  0.0588
   18MOL   C196 6690   1.825   6.351   0.857  0.4799  0.3866  0.0163
   18MOL   C197 6691   1.808   6.467   0.757 -0.5076  0.5480 -0.3461
   18MOL   C198 6692   1.851   6.389   1.009 -0.0117 -0.4274 -0.3395
   18MOL   H199 6693   2.190   6.157   0.885 -1.8465  1.1375  2.0926
   18MOL   H200 6694   2.124   6.085   1.034  1.4544 -2.1994  1.4227
   18MOL   H201 6695   2.031   6.030   0.738  1.2363 -0.7781  0.6202
   18MOL   H202 6696   1.927   6.237   0.698 -1.9414  0.9668  0.0104
   18MOL   H203 6697   2.031   6.293   0.829 -0.4037  1.3214  0.3194
   18MOL   H204 6698   1.730   6.298   0.859  0.4424  0.4618  0.3136
   18MOL   H205 6699   1.780   6.561   0.804 -1.4580  0.5273 -0.8486
   18MOL   H206 6700   1.905   6.490   0.715 -0.0956 -2.5509 -1.2056
   18MOL   H207 6701   1.734   6.444   0.681 -0.6617  2.3284 -0.7492
   18MOL   H208 6702   1.955   6.421   1.022 -1.0542  2.2216  1.9185
   18MOL   H209 6703   1.789   6.473   1.040 -0.3826 -0.2412 -1.5658
   18MOL   H210 6704   1.833   6.306   1.077  0.2415  0.2347  0.5385
   18MOL   C211 6705   1.955   5.908   0.899  0.2001  0.1087  0.4847
   18MOL   C212 6706   1.835   5.852   0.828  1.3380  0.5292  0.0466
   18MOL   O213 6707   1.896   5.791   0.716 -0.4226  0.0457 -0.7252
   18MOL   C214 6708   1.813   5.779   0.601 -0.5371 -0.0498  0.1874
   18MOL   C215 6709   1.913   5.732   0.485  0.4859  0.2029 -0.1377
   18MOL   C216 6710   2.024   5.836   0.458 -0.2450  0.5079  0.1937
   18MOL   C217 6711   1.974   5.597   0.502  0.5791 -0.2079  0.3535
   18MOL   H218 6712   1.942   5.919   1.006  1.2068 -0.7934  0.7150
   18MOL   H219 6713   2.035   5.834   0.889  0.2514  0.4584 -1.8542
   18MOL   H220 6714   1.764   5.932   0.807  0.9743  0.0768 -0.4878
   18MOL   H221 6715   1.759   5.871   0.583  2.7637  2.0264  0.4874
   18MOL   H222 6716   1.736   5.702   0.616  1.1537 -1.5259  1.5513
   18MOL   H223 6717   1.853   5.729   0.395 -2.0683  0.3511  1.5194
   18MOL   H224 6718   2.079   5.824   0.364  0.0401  0.5530  0.3548
   18MOL   H225 6719   1.970   5.931   0.457  0.1786  0.7495 -0.9765
   18MOL   H226 6720   2.090   5.836   0.544 -1.0015  0.5079  0.7775
   18MOL   H227 6721   2.021   5.578   0.599  0.2115 -2.6323  0.0771
   18MOL   H228 6722   2.052   5.566   0.432  2.4570  0.0636  2.2726
   18MOL   H229 6723   1.904   5.514   0.502  0.4222 -0.0794  0.9612
   18MOL   C230 6724   1.749   5.745   0.910 -0.0741 -0.3553  0.3430
   18MOL   C231 6725   1.621   5.811   0.969 -0.0452  0.0933  0.9175
   18MOL   O232 6726   1.546   5.722   1.052 -0.2558 -0.5023  0.1242
   18MOL   C233 6727   1.459   5.641   0.973 -0.1686  0.0883 -0.0379
   18MOL   C234 6728   1.381   5.561   1.072  0.0010 -0.3250  0.1102
   18MOL   C235 6729   1.283   5.643   1.158 -0.7479  0.2860 -0.3615
   18MOL   C236 6730   1.312   5.451   1.003  0.2377  1.1751  0.8186
   18MOL   H237 6731   1.804   5.685   0.981  2.6846  1.2601 -0.3420
   18MOL   H238 6732   1.710   5.671   0.841  0.3410 -0.9387  0.7308
   18MOL   H239 6733   1.566   5.854   0.885 -1.4052 -1.2786  1.0875
   18MOL   H240 6734   1.397   5.707   0.912  0.4069  0.9238  0.2722
   18MOL   H241 6735   1.514   5.578   0.902  1.5365  2.0962 -0.5456
   18MOL   H242 6736   1.455   5.511   1.134  1.3004 -0.5493 -1.5771
   18MOL   H243 6737   1.208   5.586   1.212  1.0409 -1.6353  0.1517
   18MOL   H244 6738   1.217   5.705   1.097 -0.3352  0.4043 -0.6955
   18MOL   H245 6739   1.325   5.724   1.217 -1.5891  0.2754  0.2475
   18MOL   H246 6740   1.376   5.377   0.955 -2.5318 -0.0999 -1.0635
   18MOL   H247 6741   1.245   5.390   1.063  0.8958 -0.4394 -0.0720
   18MOL   H248 6742   1.247   5.496   0.927  0.6550  1.2692  0.5170
   18MOL   C249 6743   1.660   5.934   1.062 -0.5814 -0.0250  0.4912
   18MOL   C250 6744   1.541   6.019   1.100 -0.5649 -0.7937  0.5108
   18MOL   O251 6745   1.555   6.050   1.239 -0.3121  0.0244  0.7181
   18MOL   C252 6746   1.534   5.945   1.338 -0.8921  0.6006  0.2747
   18MOL   C253 6747   1.607   5.981   1.470  0.5724  0.7577 -0.0428
   18MOL   C254 6748   1.749   6.024   1.443  0.2182 -0.1661 -0.3447
   18MOL   C255 6749   1.592   5.860   1.567  0.4519 -0.9681  0.2227
   18MOL   H256 6750   1.733   6.002   1.019  0.0298 -1.0926 -0.1764
   18MOL   H257 6751   1.711   5.897   1.152 -1.5319  0.7650  1.3600
   18MOL   H258 6752   1.448   5.963   1.092 -1.2986  0.5227 -0.3071
   18MOL   H259 6753   1.428   5.927   1.358 -0.3482 -1.1127  1.6961
   18MOL   H260 6754   1.569   5.845   1.315  0.0601  1.4075 -1.8618
   18MOL   H261 6755   1.555   6.060   1.526 -1.8406 -2.2845  2.2494
   18MOL   H262 6756   1.817   5.948   1.403  0.0536 -0.8878  0.7258
   18MOL   H263 6757   1.797   6.061   1.533 -1.1894  2.0869 -0.4792
   18MOL   H264 6758   1.751   6.106   1.371  1.0104  0.3105  0.2204
   18MOL   H265 6759   1.650   5.780   1.520  0.2969  0.6837 -2.8617
   18MOL   H266 6760   1.630   5.884   1.666  1.5679  2.8616 -1.0412
   18MOL   H267 6761   1.493   5.814   1.562 -0.7301  1.5075  0.0150
   18MOL   C268 6762   1.523   6.154   1.025  0.0324  0.8571 -0.4260
   18MOL   C269 6763   1.374   6.194   1.012  0.0525 -0.0056  0.5491
   18MOL   O270 6764   1.326   6.116   0.903 -0.2572  1.0395 -0.0141
   18MOL   C271 6765   1.190   6.068   0.928 -0.3624 -0.7801  0.3524
   18MOL   C272 6766   1.124   6.016   0.803 -0.0838  0.2069  0.1760
   18MOL   C273 6767   1.137   6.112   0.689  0.7183  0.2506  0.5402
   18MOL   C274 6768   1.159   5.873   0.767 -0.0247  0.4225 -0.5437
   18MOL   H275 6769   1.577   6.146   0.930  0.5216  0.4638 -0.1212
   18MOL   H276 6770   1.577   6.228   1.085  1.9360 -0.5900 -0.2841
   18MOL   H277 6771   1.323   6.172   1.106  0.4513  0.3089  0.8445
   18MOL   H278 6772   1.189   5.994   1.008  1.0203  0.6574  1.7372
   18MOL   H279 6773   1.132   6.141   0.984  2.1787  0.7649  1.0534
   18MOL   H280 6774   1.019   6.014   0.832 -0.1036  0.0462  0.0948
   18MOL   H281 6775   1.057   6.185   0.701  1.0884  0.5147  1.4306
   18MOL   H282 6776   1.123   6.047   0.603 -0.5192 -0.2354  1.0891
   18MOL   H283 6777   1.239   6.148   0.674  0.5162 -0.3406 -2.5063
   18MOL   H284 6778   1.265   5.860   0.787  0.1769  0.2434 -1.6985
   18MOL   H285 6779   1.141   5.836   0.665  2.2153  1.6735 -1.4141
   18MOL   H286 6780   1.107   5.817   0.845  2.0887 -1.8634 -0.7151
   18MOL   C287 6781   1.335   6.335   0.963 -0.0082  0.1941  0.3186
   18MOL   C288 6782   1.405   6.448   1.047  0.9402  0.3841  0.1094
   18MOL   O289 6783   1.358   6.418   1.175  0.5271 -0.5767  0.0515
   18MOL   C290 6784   1.459   6.446   1.273  0.0983  0.8161  0.1731
   18MOL   C291 6785   1.402   6.399   1.407 -0.9595  0.5887 -0.3633
   18MOL   C292 6786   1.504   6.416   1.522 -0.1612 -0.6370 -0.2152
   18MOL   C293 6787   1.351   6.256   1.404  0.0139  0.2845 -0.4729
   18MOL   H294 6788   1.226   6.335   0.958 -0.1074 -1.9114  1.7885
   18MOL   H295 6789   1.374   6.329   0.861 -0.3461  0.7234  0.1557
   18MOL   H296 6790   1.513   6.435   1.037  0.8513  0.7870 -1.4788
   18MOL   H297 6791   1.552   6.389   1.261 -1.0242 -0.8366 -0.7975
   18MOL   H298 6792   1.478   6.553   1.280 -1.9846  1.1855  0.5245
   18MOL   H299 6793   1.324   6.467   1.440 -0.7336 -0.4867  2.4980
   18MOL   H300 6794   1.603   6.373   1.507  1.0782  2.4921 -1.3520
   18MOL   H301 6795   1.462   6.373   1.613 -1.0968  2.6236  0.9689
   18MOL   H302 6796   1.523   6.520   1.548 -0.2599 -0.6012 -0.2885
   18MOL   H303 6797   1.271   6.257   1.330  0.0899 -1.0059 -0.5994
   18MOL   H304 6798   1.425   6.183   1.369 -0.0874 -1.2711  2.4516
   18MOL   H305 6799   1.301   6.234   1.498  0.8818 -2.5225 -0.6064
   18MOL   C306 6800   1.343   6.590   1.015  0.1134 -0.1087  0.6125
   18MOL   C307 6801   1.325   6.613   0.863 -0.0343  0.5425 -0.6752
   18MOL   O308 6802   1.250   6.734   0.849  0.2190 -0.3267  0.2879
   18MOL   C309 6803   1.114   6.733   0.884  0.1721  0.5848 -0.1069
   18MOL   C310 6804   1.054   6.861   0.824  0.2533  0.5824  0.0072
   18MOL   C311 6805   1.065   6.854   0.675 -0.3574 -0.0301 -0.3291
   18MOL   C312 6806   1.113   6.985   0.879  0.5222  0.8936 -0.4907
   18MOL   H313 6807   1.414   6.664   1.052  0.9126 -1.8347  2.6383
   18MOL   H314 6808   1.247   6.589   1.067 -0.4640 -2.6046 -0.4237
   18MOL   H315 6809   1.267   6.529   0.825 -0.5631  0.5899  0.0100
   18MOL   H316 6810   1.102   6.734   0.992 -1.8901 -1.4711 -0.2916
   18MOL   H317 6811   1.063   6.642   0.856  2.1824 -0.5657 -0.1386
   18MOL   H318 6812   0.947   6.853   0.840  0.2188 -0.9809 -0.8869
   18MOL   H319 6813   1.032   6.946   0.628 -0.0839  0.9808  1.4242
   18MOL   H320 6814   1.008   6.771   0.633 -1.2181  0.1745  0.4181
   18MOL   H321 6815   1.170   6.840   0.651 -0.1456 -0.6554  0.8972
   18MOL   H322 6816   1.080   6.973   0.982 -2.2758  0.6180 -1.3801
   18MOL   H323 6817   1.053   7.065   0.835 -3.6175 -0.9048  1.5969
   18MOL   H324 6818   1.218   7.007   0.860  0.8016 -0.2934 -0.3950
   18MOL   C325 6819   1.460   6.612   0.781  1.0071 -0.3031 -0.1345
   18MOL   C326 6820   1.436   6.596   0.630  0.0253  0.5696 -0.8478
   18MOL   O327 6821   1.544   6.622   0.543 -0.1710 -0.8664  0.3654
   18MOL   C328 6822   1.609   6.750   0.551  0.3474 -0.0634  0.2585
   18MOL   C329 6823   1.698   6.764   0.428 -0.1002 -0.1907  0.4708
   18MOL   C330 6824   1.762   6.899   0.423  1.1420 -0.1506  0.2314
   18MOL   C331 6825   1.789   6.643   0.413 -0.5960  0.1684 -0.0387
   18MOL   H332 6826   1.535   6.541   0.814  1.6363 -0.2051 -1.3349
   18MOL   H333 6827   1.503   6.711   0.797 -1.6729  0.8836  0.0034
   18MOL   H334 6828   1.347   6.655   0.610  1.0984  2.2792 -0.6287
   18MOL   H335 6829   1.531   6.826   0.561 -0.9173 -0.9105 -2.6051
   18MOL   H336 6830   1.663   6.756   0.645  0.4023  2.0766  0.1264
   18MOL   H337 6831   1.633   6.764   0.340  1.4158 -2.2208 -0.6756
   18MOL   H338 6832   1.695   6.983   0.442 -0.4689 -0.8241 -2.3141
   18MOL   H339 6833   1.845   6.900   0.494  1.5151 -1.2484 -0.1791
   18MOL   H340 6834   1.803   6.909   0.323 -0.2095 -1.3010 -0.4507
   18MOL   H341 6835   1.745   6.546   0.389 -0.1706 -0.3275  1.1436
   18MOL   H342 6836   1.867   6.663   0.340  2.1958  1.1599  3.0946
   18MOL   H343 6837   1.849   6.632   0.504  1.2386  0.3882 -1.1906
   18MOL   C344 6838   1.391   6.460   0.583  0.0894 -0.3461 -0.6508
   18MOL   C345 6839   1.331   6.466   0.441  0.5428 -0.5383 -0.6059
   18MOL   O346 6840   1.313   6.332   0.397  0.3005  0.5229  0.1908
   18MOL   C347 6841   1.347   6.297   0.262  0.4066 -0.4482 -0.2613
   18MOL   C348 6842   1.289   6.158   0.235  0.3562  0.0071 -0.1042
   18MOL   C349 6843   1.327   6.091   0.097 -0.0835  0.0505  0.1846
   18MOL   C350 6844   1.135   6.159   0.263  0.8735  0.1141 -0.1586
   18MOL   H351 6845   1.313   6.413   0.642 -0.8797 -2.2462 -3.3344
   18MOL   H352 6846   1.468   6.383   0.589 -1.0770 -1.3377  2.6867
   18MOL   H353 6847   1.396   6.524   0.374  0.1788  1.6197  0.8699
   18MOL   H354 6848   1.456   6.293   0.267  0.2752 -1.7622  2.7821
   18MOL   H355 6849   1.315   6.369   0.187 -0.5426 -0.8683 -0.2734
   18MOL   H356 6850   1.339   6.100   0.313  0.1870  1.4728  1.1253
   18MOL   H357 6851   1.268   6.130   0.014  2.3495  0.9140 -1.2122
   18MOL   H358 6852   1.324   5.983   0.093  1.7891  0.0173 -0.8189
   18MOL   H359 6853   1.427   6.122   0.067 -0.4508  1.0158 -0.0606
   18MOL   H360 6854   1.101   6.055   0.267 -3.2590  1.3775 -0.1006
   18MOL   H361 6855   1.115   6.207   0.359 -0.6962  1.2387 -1.0158
   18MOL   H362 6856   1.071   6.213   0.194  0.3066  0.4424  0.6099
   18MOL   C363 6857   1.192   6.535   0.433  0.4442 -0.3078 -0.6030
   18MOL   C364 6858   1.097   6.491   0.547 -0.0287 -0.0672 -0.5031
   18MOL   O365 6859   0.973   6.533   0.497 -0.0303  0.2396  0.3569
   18MOL   C366 6860   0.863   6.496   0.582 -0.1621 -0.5199 -0.2390
   18MOL   C367 6861   0.721   6.531   0.531 -0.6484  0.7775  0.3918
   18MOL   C368 6862   0.691   6.459   0.400  0.7426  0.0680  0.3190
   18MOL   C369 6863   0.694   6.684   0.523 -0.5130 -0.0014  0.0293
   18MOL   H370 6864   1.209   6.642   0.446 -1.6535  0.2551 -2.2066
   18MOL   H371 6865   1.151   6.523   0.333 -0.0806  1.0806 -0.5722
   18MOL   H372 6866   1.117   6.549   0.637  1.3964  0.1025 -0.9171
   18MOL   H373 6867   0.876   6.392   0.612  1.5219 -0.7191 -1.6285
   18MOL   H374 6868   0.881   6.550   0.675  0.2131 -1.8800  0.4919
   18MOL   H375 6869   0.651   6.476   0.594 -2.0843  1.0500 -0.9241
   18MOL   H376 6870   0.701   6.522   0.312  0.3181  1.2442  1.0916
   18MOL   H377 6871   0.586   6.432   0.412  1.1798 -1.5096  0.6926
   18MOL   H378 6872   0.744   6.364   0.398  0.6973  0.0451  0.1742
   18MOL   H379 6873   0.596   6.717   0.487  0.2519  1.2167 -0.9741
   18MOL   H380 6874   0.763   6.713   0.444  0.3880 -0.2391  0.7158
   18MOL   H381 6875   0.718   6.736   0.616  1.9907 -0.2864 -0.4249
   18MOL   H382 6876   1.093   6.383   0.562 -1.1013 -0.2720 -2.1122
   19MOL     C1 6877   0.551   0.983   7.774  0.0884 -0.5855 -0.0554
   19MOL     C2 6878   0.420   1.041   0.006 -0.1725  0.0872 -0.1601
   19MOL     O3 6879   0.327   1.037   7.726  0.4446 -0.1396  0.2985
   19MOL     C4 6880   0.321   1.165   7.661 -0.5708 -0.3209 -0.1887
   19MOL     C5 6881   0.219   1.155   7.544 -0.0714 -0.4119 -0.0878
   19MOL     C6 6882   0.076   1.095   7.589  0.4674 -1.1073 -0.4024
   19MOL     C7 6883   0.282   1.078   7.425 -0.2038 -0.6229  0.0367
   19MOL     H8 6884   0.630   0.997   0.023  0.0340 -0.8898  0.0608
   19MOL     H9 6885   0.543   0.876   7.757 -2.4038 -0.5540  0.6992
   19MOL    H10 6886   0.436   1.131   0.065 -0.3858  0.9810 -1.4567
   19MOL    H11 6887   0.413   1.210   7.624 -0.5128 -0.5478 -0.3244
   19MOL    H12 6888   0.282   1.232   7.738  1.7399 -0.1472  0.8778
   19MOL    H13 6889   0.197   1.255   7.508 -0.5611 -0.2636  0.6111
   19MOL    H14 6890   0.079   0.991   7.621 -1.3156 -0.5349  1.7565
   19MOL    H15 6891   0.036   1.156   7.670  0.8870 -0.9133 -0.3424
   19MOL    H16 6892   0.004   1.113   7.510  0.2340  1.7213  0.3693
   19MOL    H17 6893   0.199   1.047   7.360 -2.0591  0.1942  1.9559
   19MOL    H18 6894   0.357   1.142   7.380  0.2195 -0.9944  0.2076
   19MOL    H19 6895   0.324   0.983   7.458  1.8062  0.7202  1.3954
   19MOL    H20 6896   0.570   1.022   7.674 -1.2013 -0.7125 -0.3620
   19MOL    C21 6897   0.363   0.939   0.110  0.0858 -0.6409  0.8591
   19MOL    C22 6898   0.238   0.979   0.190 -0.0419 -0.5950  0.2946
   19MOL    O23 6899   0.171   0.863   0.225  0.4113 -0.2025 -0.1696
   19MOL    C24 6900   0.075   0.827   0.132 -0.5628 -0.5959 -0.4533
   19MOL    C25 6901   0.021   0.683   0.162  1.1867  0.4695  0.7875
   19MOL    C26 6902   0.114   0.568   0.099 -0.6284  0.5293 -0.4830
   19MOL    C27 6903   0.004   0.665   0.308 -0.2528  0.1393 -0.8937
   19MOL    H28 6904   0.343   0.855   0.042  3.5419 -0.8350  0.0197
   19MOL    H29 6905   0.448   0.913   0.173  0.5532  3.5580  2.0615
   19MOL    H30 6906   0.183   1.055   0.134  1.7597  1.0600  0.7199
   19MOL    H31 6907   0.121   0.833   0.033  0.5971 -0.6507  0.0787
   19MOL    H32 6908   7.820   0.901   0.136  0.4720  0.4544  0.9020
   19MOL    H33 6909   7.751   0.687   0.108  1.0456  1.1345  1.0763
   19MOL    H34 6910   0.215   0.594   0.133 -1.0985  1.1705  0.4506
   19MOL    H35 6911   0.122   0.570   7.815 -0.2355  1.3424 -0.4399
   19MOL    H36 6912   0.087   0.465   0.122  1.3376 -0.0219 -0.5880
   19MOL    H37 6913   7.786   0.746   0.367  1.7424  0.8054 -0.3246
   19MOL    H38 6914   7.759   0.583   0.326 -0.2726  0.4095  0.3043
   19MOL    H39 6915   0.093   0.642   0.367 -1.3133  2.4692  1.7370
   19MOL    C40 6916   0.276   1.043   0.322 -0.2015 -0.4117 -0.2766
   19MOL    C41 6917   0.165   1.093   0.412  0.0063  0.0451  0.6666
   19MOL    O42 6918   0.089   1.183   0.328  0.1837 -0.1616  0.1567
   19MOL    C43 6919   7.778   1.189   0.352  0.5201 -0.5607  0.6439
   19MOL    C44 6920   7.715   1.274   0.238 -0.2945 -0.0379 -0.4497
   19MOL    C45 6921   7.733   1.202   0.111  0.3450  0.1704  0.2316
   19MOL    C46 6922   7.562   1.297   0.265 -0.4313 -0.1825  0.1073
   19MOL    H47 6923   0.357   1.113   0.302 -0.5637  0.2348  0.5349
   19MOL    H48 6924   0.323   0.961   0.376  0.9287  0.1382 -0.4179
   19MOL    H49 6925   0.103   1.010   0.444 -0.2299 -0.9658 -2.1933
   19MOL    H50 6926   7.763   1.245   0.445  0.2273  0.3649  0.0560
   19MOL    H51 6927   7.751   1.084   0.346 -0.0115 -0.3042 -2.0922
   19MOL    H52 6928   7.770   1.368   0.237 -0.1201 -0.1184  0.4117
   19MOL    H53 6929   7.687   1.104   0.120 -1.3862  0.9794  0.4789
   19MOL    H54 6930   7.693   1.254   0.024 -0.6013 -1.3936 -0.2845
   19MOL    H55 6931   0.013   1.176   0.093  1.5354  2.8813  2.7247
   19MOL    H56 6932   7.537   1.379   0.199 -0.0411 -0.3632 -0.2694
   19MOL    H57 6933   7.539   1.307   0.371  0.2260 -2.2804  0.4726
   19MOL    H58 6934   7.509   1.204   0.240 -0.8854  0.3441 -0.9128
   19MOL    C59 6935   0.223   1.160   0.539 -0.6341  0.5914  0.0277
   19MOL    C60 6936   0.262   1.061   0.649 -0.6427 -0.2777  0.5608
   19MOL    O61 6937   0.144   0.986   0.682  0.6184  0.2199  0.3553
   19MOL    C62 6938   0.032   1.045   0.751 -0.4852  0.0687  0.5560
   19MOL    C63 6939   7.734   0.950   0.757 -0.8250  0.1543 -0.0623
   19MOL    C64 6940   7.619   0.984   0.843  0.0336  0.2547 -0.2913
   19MOL    C65 6941   7.694   0.922   0.610 -0.8048 -0.1042 -0.0179
   19MOL    H66 6942   0.155   1.236   0.576 -0.2849  2.0470 -2.2321
   19MOL    H67 6943   0.303   1.232   0.518  1.3397 -1.1881  1.1593
   19MOL    H68 6944   0.339   0.988   0.624 -0.8930 -0.0810 -0.8024
   19MOL    H69 6945   0.064   1.074   0.851  0.8603  1.6702 -0.3210
   19MOL    H70 6946   0.014   1.142   0.705 -1.4937 -0.0979  0.5789
   19MOL    H71 6947   7.771   0.858   0.802 -1.9119  0.3863  1.3357
   19MOL    H72 6948   7.530   0.921   0.837  1.0429 -1.0583 -2.1560
   19MOL    H73 6949   7.581   1.082   0.812 -1.3609 -0.5186 -1.0613
   19MOL    H74 6950   7.650   0.994   0.947 -2.7910 -1.1564  0.7372
   19MOL    H75 6951   7.770   0.872   0.551 -0.6480  1.6823 -1.3847
   19MOL    H76 6952   7.604   0.861   0.603 -2.3887  1.6133  3.8019
   19MOL    H77 6953   7.677   1.019   0.563 -2.2602 -1.5735 -2.6684
   19MOL    C78 6954   0.309   1.142   0.772 -0.4802 -0.2981  0.1259
   19MOL    C79 6955   0.454   1.195   0.746  0.6216 -0.4218 -0.0693
   19MOL    O80 6956   0.488   1.308   0.821 -0.0979 -0.2633 -0.4423
   19MOL    C81 6957   0.431   1.427   0.777  0.0855 -0.7563  0.5273
   19MOL    C82 6958   0.492   1.545   0.859 -0.4260  0.1257  0.5587
   19MOL    C83 6959   0.422   1.670   0.803 -0.5348 -0.6664 -0.4228
   19MOL    C84 6960   0.649   1.548   0.839 -0.1195 -0.0847  0.6463
   19MOL    H85 6961   0.320   1.081   0.862 -1.1657 -0.6049  0.0049
   19MOL    H86 6962   0.242   1.223   0.799  1.0585  1.1590 -0.3771
   19MOL    H87 6963   0.468   1.219   0.640  0.1516 -0.6661 -0.1892
   19MOL    H88 6964   0.451   1.443   0.671 -1.8157  1.2208  0.4285
   19MOL    H89 6965   0.325   1.410   0.797  0.5784 -3.5752  0.8925
   19MOL    H90 6966   0.475   1.532   0.966 -2.6615  0.0975  0.2199
   19MOL    H91 6967   0.487   1.755   0.826 -2.2568  0.1352  1.5941
   19MOL    H92 6968   0.320   1.681   0.838 -1.4326 -2.0377 -2.4751
   19MOL    H93 6969   0.419   1.662   0.694 -0.6766 -1.2764 -0.3738
   19MOL    H94 6970   0.686   1.634   0.896  0.2029 -1.4043  2.4597
   19MOL    H95 6971   0.672   1.575   0.735  1.2603  0.3301  1.0475
   19MOL    H96 6972   0.707   1.459   0.862  0.8960 -0.1307 -1.8913
   19MOL    C97 6973   0.561   1.086   0.767 -0.7324 -0.3393  0.3000
   19MOL    C98 6974   0.691   1.100   0.694  0.3813 -0.3021 -0.6492
   19MOL    O99 6975   0.690   1.074   0.556 -0.4536  0.3508 -0.3779
   19MOL   C100 6976   0.693   1.189   0.467  0.4661  0.1228  0.5969
   19MOL   C101 6977   0.721   1.136   0.327 -0.0541  0.1579 -0.5686
   19MOL   C102 6978   0.743   1.246   0.228 -0.0803 -0.0441  0.2863
   19MOL   C103 6979   0.842   1.039   0.317 -0.4456 -1.2487 -0.2242
   19MOL   H104 6980   0.515   0.989   0.750  0.7539 -1.1852  1.0217
   19MOL   H105 6981   0.577   1.084   0.874  0.1709  1.4344  0.2191
   19MOL   H106 6982   0.728   1.202   0.710 -0.8314  0.6114 -3.3608
   19MOL   H107 6983   0.765   1.265   0.498  1.1750 -0.4215  0.2941
   19MOL   H108 6984   0.599   1.243   0.455  0.9237  0.0801 -4.4262
   19MOL   H109 6985   0.632   1.083   0.293  0.6319 -2.2078  1.1773
   19MOL   H110 6986   0.663   1.320   0.226 -1.4867 -1.5378 -2.6510
   19MOL   H111 6987   0.837   1.293   0.254 -0.0662  0.3913 -0.5180
   19MOL   H112 6988   0.760   1.213   0.125 -0.9340 -0.1359  0.1668
   19MOL   H113 6989   0.808   0.944   0.359 -1.0313 -0.0740  2.0168
   19MOL   H114 6990   0.872   1.023   0.214 -1.4881  0.6568 -0.8487
   19MOL   H115 6991   0.935   1.069   0.366 -0.2414  0.8829 -1.8697
   19MOL   C116 6992   0.796   1.000   0.741 -0.3295 -0.0643  0.2365
   19MOL   C117 6993   0.941   1.037   0.702  0.0576 -0.2151 -0.4883
   19MOL   O118 6994   0.960   1.168   0.750  0.0917  0.0761 -0.3489
   19MOL   C119 6995   1.094   1.226   0.741  0.3521  0.1980  0.1427
   19MOL   C120 6996   1.085   1.379   0.776  0.4279  0.1840  0.5966
   19MOL   C121 6997   0.989   1.444   0.670 -0.3615 -0.5693 -0.0127
   19MOL   C122 6998   1.037   1.404   0.920  0.0858  0.6620  0.5167
   19MOL   H123 6999   0.800   0.996   0.850 -1.2753  0.8332  0.3080
   19MOL   H124 7000   0.776   0.900   0.703 -1.6364  0.7942 -1.3930
   19MOL   H125 7001   0.966   1.047   0.597  1.2869  1.3162 -0.0628
   19MOL   H126 7002   1.152   1.209   0.650  0.5616 -0.4070  0.3882
   19MOL   H127 7003   1.154   1.175   0.816 -0.1347  0.3601  0.6407
   19MOL   H128 7004   1.185   1.422   0.766  0.6548 -0.8206 -1.6403
   19MOL   H129 7005   0.991   1.552   0.656  1.3634 -0.7829 -1.5738
   19MOL   H130 7006   0.892   1.412   0.709  0.7865 -2.8553  1.0755
   19MOL   H131 7007   0.998   1.406   0.568 -0.6361  0.2437 -0.3400
   19MOL   H132 7008   1.052   1.508   0.951  2.2014  0.0431  1.7021
   19MOL   H133 7009   0.933   1.378   0.936  0.7327 -2.7645 -0.6135
   19MOL   H134 7010   1.093   1.343   0.991 -1.3730  0.1613  1.2582
   19MOL   C135 7011   1.032   0.931   0.754 -0.1997 -0.5237  0.3588
   19MOL   C136 7012   1.014   0.789   0.721  0.4307 -0.4364 -0.3324
   19MOL   O137 7013   1.050   0.776   0.577  0.5019  0.0866 -0.9563
   19MOL   C138 7014   0.953   0.702   0.500  0.5815 -0.0278 -0.6025
   19MOL   C139 7015   0.988   0.698   0.355 -0.9169  0.0679  0.2460
   19MOL   C140 7016   1.118   0.621   0.338 -0.6428  0.2529 -0.2158
   19MOL   C141 7017   0.878   0.640   0.267  0.6077 -0.2041 -0.9064
   19MOL   H142 7018   1.136   0.954   0.731 -0.1118 -0.3765  0.9133
   19MOL   H143 7019   1.034   0.952   0.861 -2.8500 -3.2533  1.0143
   19MOL   H144 7020   0.913   0.750   0.737  1.3421 -2.4629  0.6263
   19MOL   H145 7021   0.851   0.739   0.511  0.9984  0.8851  0.2367
   19MOL   H146 7022   0.959   0.598   0.533  2.5006  0.1487 -0.3752
   19MOL   H147 7023   1.006   0.797   0.313  0.7042 -0.7875 -1.1112
   19MOL   H148 7024   1.091   0.522   0.374 -0.7485  0.8046  1.2389
   19MOL   H149 7025   1.191   0.663   0.406 -1.8018  0.6675  0.7961
   19MOL   H150 7026   1.163   0.617   0.239 -0.6737 -0.7647 -0.1964
   19MOL   H151 7027   0.839   0.548   0.311 -2.3510  0.8626 -1.1772
   19MOL   H152 7028   0.789   0.701   0.253  0.4816  0.2856  1.7596
   19MOL   H153 7029   0.912   0.615   0.167  0.6634 -1.6734 -0.5354
   19MOL   C154 7030   1.100   0.689   0.799  0.7070 -0.1459 -0.6805
   19MOL   C155 7031   1.078   0.682   0.949  0.1377 -0.8169  0.3260
   19MOL   O156 7032   0.942   0.628   0.961 -0.3539  0.2286 -0.2415
   19MOL   C157 7033   0.846   0.707   1.029  0.2737  0.6207  0.4631
   19MOL   C158 7034   0.711   0.632   1.023 -0.0224  0.1467  0.3853
   19MOL   C159 7035   0.680   0.613   0.866 -0.0294 -0.1123 -0.2149
   19MOL   C160 7036   0.727   0.508   1.109 -0.0769  0.5242  0.1065
   19MOL   H161 7037   1.205   0.712   0.783  0.7198 -0.9373 -1.7498
   19MOL   H162 7038   1.083   0.588   0.763  1.4322  0.3292 -2.3716
   19MOL   H163 7039   1.084   0.780   0.997 -4.4092 -0.4036  0.3258
   19MOL   H164 7040   0.828   0.801   0.977 -0.8955  0.2598  0.1957
   19MOL   H165 7041   0.881   0.724   1.131  1.2939 -4.1989  1.0145
   19MOL   H166 7042   0.638   0.702   1.063 -0.1990  0.8301 -1.1234
   19MOL   H167 7043   0.592   0.550   0.859 -0.8737  1.1413 -0.9477
   19MOL   H168 7044   0.762   0.565   0.812 -2.3324 -4.4954 -0.0739
   19MOL   H169 7045   0.666   0.711   0.822 -0.8669 -0.0392  0.2138
   19MOL   H170 7046   0.735   0.534   1.215 -1.3617 -1.0021  0.5975
   19MOL   H171 7047   0.632   0.453   1.106 -0.8350  1.7186  1.4510
   19MOL   H172 7048   0.801   0.436   1.074 -0.5426 -0.4581  1.0967
   19MOL   C173 7049   1.174   0.587   1.020 -0.0889  0.3449  0.1955
   19MOL   C174 7050   1.163   0.597   1.170  0.1127  0.2119 -0.0633
   19MOL   O175 7051   1.244   0.498   1.231  0.1163 -0.0510 -0.0012
   19MOL   C176 7052   1.172   0.378   1.259 -0.1568  0.0558  0.0372
   19MOL   C177 7053   1.275   0.276   1.308  0.1887 -0.0751  1.0625
   19MOL   C178 7054   1.328   0.310   1.450  0.6820  0.0292  0.5265
   19MOL   C179 7055   1.232   0.126   1.306 -1.1007 -0.2126  0.3972
   19MOL   H180 7056   1.163   0.484   0.987  0.2517 -0.6880  3.1114
   19MOL   H181 7057   1.271   0.622   0.985  0.4114 -1.3670 -0.1427
   19MOL   H182 7058   1.059   0.578   1.198  0.4191  1.5574  2.0714
   19MOL   H183 7059   1.113   0.336   1.177  1.0862  0.4510 -1.0703
   19MOL   H184 7060   1.101   0.401   1.339  0.1727  1.2412 -0.0139
   19MOL   H185 7061   1.356   0.285   1.236  0.4437  0.2145  1.3852
   19MOL   H186 7062   1.427   0.263   1.451  0.7944  0.0287 -2.9253
   19MOL   H187 7063   1.341   0.416   1.471  0.2689  0.4105 -1.0618
   19MOL   H188 7064   1.266   0.260   1.524 -0.0417  1.9733  1.2351
   19MOL   H189 7065   1.129   0.115   1.338 -1.4892  2.8753  0.3939
   19MOL   H190 7066   1.295   0.067   1.373  1.7514  1.3182 -0.8528
   19MOL   H191 7067   1.241   0.076   1.210 -0.9544 -2.4511  1.5532
   19MOL   C192 7068   1.203   0.723   1.245  0.2365 -0.0361  0.3141
   19MOL   C193 7069   1.142   0.730   1.383 -0.3356 -0.8927  0.5015
   19MOL   O194 7070   1.006   0.756   1.359  0.0226 -0.5733  0.2931
   19MOL   C195 7071   0.927   0.736   1.469  0.3794 -0.1021 -0.5335
   19MOL   C196 7072   0.775   0.754   1.442  0.2976  0.2768 -0.2494
   19MOL   C197 7073   0.747   0.882   1.366 -0.1421 -0.4080 -1.0348
   19MOL   C198 7074   0.687   0.760   1.570  0.1677  0.8312 -0.3507
   19MOL   H199 7075   1.179   0.816   1.194 -1.9234 -0.5710  0.3289
   19MOL   H200 7076   1.312   0.727   1.255  0.2052  1.6128  0.2495
   19MOL   H201 7077   1.155   0.644   1.449  0.9866 -2.2916 -1.5437
   19MOL   H202 7078   0.955   0.815   1.539  2.1234  1.1208 -2.5282
   19MOL   H203 7079   0.942   0.639   1.517  1.3265 -0.1298 -0.8644
   19MOL   H204 7080   0.738   0.674   1.378  0.6416  0.3103 -0.4897
   19MOL   H205 7081   0.685   0.956   1.418  3.2016  1.3071  0.7105
   19MOL   H206 7082   0.841   0.931   1.340 -0.5384  1.8406  1.3979
   19MOL   H207 7083   0.694   0.852   1.276 -1.9414  0.8449 -0.4257
   19MOL   H208 7084   0.706   0.672   1.631 -2.3941  2.0384  2.3196
   19MOL   H209 7085   0.700   0.849   1.632  1.0518  1.1982 -1.0552
   19MOL   H210 7086   0.579   0.754   1.552  0.0856  1.8359 -0.2046
   19MOL   C211 7087   1.194   0.853   1.459 -0.4621  0.5802 -0.1616
   19MOL   C212 7088   1.330   0.846   1.527  0.2935  0.0561 -0.6698
   19MOL   O213 7089   1.347   0.975   1.579  0.1609  0.7924 -0.4786
   19MOL   C214 7090   1.478   1.032   1.580  0.3902  0.0877 -0.0100
   19MOL   C215 7091   1.515   1.101   1.437 -0.1717 -0.0601 -0.6418
   19MOL   C216 7092   1.403   1.201   1.398  0.4588  0.3114  0.0602
   19MOL   C217 7093   1.658   1.161   1.459  0.3090 -0.5319  0.1976
   19MOL   H218 7094   1.132   0.889   1.541  1.9595  1.8957  1.1388
   19MOL   H219 7095   1.190   0.941   1.395  1.4578  1.0261  0.3120
   19MOL   H220 7096   1.410   0.826   1.455 -0.7364  1.7352 -2.3311
   19MOL   H221 7097   1.556   0.961   1.604  1.0741  0.3407 -1.4682
   19MOL   H222 7098   1.476   1.102   1.664  1.0844 -0.5348  0.5228
   19MOL   H223 7099   1.529   1.031   1.355 -1.9575 -0.7356 -0.3908
   19MOL   H224 7100   1.388   1.273   1.479 -0.7436  0.5718 -0.3869
   19MOL   H225 7101   1.418   1.237   1.296 -0.8725  0.2624 -0.1563
   19MOL   H226 7102   1.304   1.157   1.393  0.9315 -0.7356 -0.3097
   19MOL   H227 7103   1.658   1.234   1.540  0.4420  0.4405 -0.6643
   19MOL   H228 7104   1.699   1.220   1.377  3.7086 -0.8854  1.5430
   19MOL   H229 7105   1.734   1.086   1.479  0.6624  0.0276  0.9999
   19MOL   C230 7106   1.349   0.725   1.635 -0.2595 -0.0624 -0.4267
   19MOL   C231 7107   1.248   0.731   1.755 -0.4415 -0.3913  0.2850
   19MOL   O232 7108   1.222   0.594   1.794 -0.1550  0.4097 -0.4900
   19MOL   C233 7109   1.140   0.513   1.708 -0.4838 -0.2024 -0.1136
   19MOL   C234 7110   1.105   0.380   1.780 -0.0263  0.7574 -0.5051
   19MOL   C235 7111   1.046   0.392   1.922 -0.5808  0.2862  0.2003
   19MOL   C236 7112   1.021   0.289   1.690  0.2696  0.2919 -1.4671
   19MOL   H237 7113   1.450   0.747   1.670 -0.2502 -1.7624  0.6722
   19MOL   H238 7114   1.349   0.624   1.591 -0.0051  0.1687 -0.9661
   19MOL   H239 7115   1.154   0.783   1.735 -1.1269 -1.0836  1.6049
   19MOL   H240 7116   1.047   0.562   1.681 -0.3651  0.3779  0.5064
   19MOL   H241 7117   1.186   0.509   1.610 -2.9292  0.9406 -1.3447
   19MOL   H242 7118   1.202   0.331   1.790  0.4715  1.8174 -0.1362
   19MOL   H243 7119   1.033   0.288   1.950  0.6390  0.1168  0.1482
   19MOL   H244 7120   0.943   0.426   1.934 -0.0558  3.0745 -2.4271
   19MOL   H245 7121   1.116   0.443   1.988 -0.1243 -0.8541  0.5963
   19MOL   H246 7122   0.920   0.328   1.685  0.2989  0.4436 -0.8007
   19MOL   H247 7123   1.059   0.282   1.588 -0.9753 -0.6095 -1.8841
   19MOL   H248 7124   1.009   0.191   1.736  0.7243  0.4823 -0.9375
   19MOL   C249 7125   1.297   0.806   1.874  0.7274 -0.0246  0.0213
   19MOL   C250 7126   1.193   0.843   1.988  0.1720 -0.2559  0.8132
   19MOL   O251 7127   1.264   0.811   2.106  0.8512  0.0072 -0.0455
   19MOL   C252 7128   1.266   0.682   2.161  0.2857 -0.9062  0.8555
   19MOL   C253 7129   1.341   0.673   2.293  0.3082  0.4198  0.0684
   19MOL   C254 7130   1.489   0.712   2.275 -0.2554 -0.7228 -0.0653
   19MOL   C255 7131   1.327   0.533   2.355 -0.3330  0.2398 -0.4526
   19MOL   H256 7132   1.339   0.898   1.834 -1.2564  1.2885  0.8599
   19MOL   H257 7133   1.377   0.747   1.919 -0.3970 -1.0546  0.7124
   19MOL   H258 7134   1.097   0.792   1.977  0.2773 -0.1943 -0.4467
   19MOL   H259 7135   1.164   0.644   2.170 -0.3945  0.4810 -0.7247
   19MOL   H260 7136   1.315   0.622   2.084  1.6640 -1.9846  2.5240
   19MOL   H261 7137   1.303   0.744   2.366 -0.9621  1.2670 -1.3958
   19MOL   H262 7138   1.540   0.662   2.192 -0.1191 -2.0064  0.7839
   19MOL   H263 7139   1.533   0.682   2.370 -0.2600  0.1092  0.2002
   19MOL   H264 7140   1.499   0.818   2.254  0.4535 -0.8312 -0.2701
   19MOL   H265 7141   1.355   0.456   2.283  0.7779  0.6419 -0.4499
   19MOL   H266 7142   1.388   0.501   2.439 -0.4213  1.1816 -0.0259
   19MOL   H267 7143   1.222   0.513   2.379 -0.3773  1.5936  0.5072
   19MOL   C268 7144   1.146   0.992   1.988  0.7042 -0.4691 -0.1514
   19MOL   C269 7145   1.039   1.029   1.879  0.5017 -0.3565  0.4346
   19MOL   O270 7146   1.045   1.170   1.855 -0.0599 -0.1113 -0.1140
   19MOL   C271 7147   0.992   1.218   1.735 -0.2467 -0.7289  0.5014
   19MOL   C272 7148   0.991   1.375   1.720 -0.6726  0.5515  0.8798
   19MOL   C273 7149   0.902   1.448   1.825  0.1593  0.1096 -0.3102
   19MOL   C274 7150   1.133   1.431   1.715 -0.8025 -0.2636 -0.5403
   19MOL   H275 7151   1.227   1.062   1.968  0.8771 -0.7501 -0.4466
   19MOL   H276 7152   1.115   1.007   2.091  0.3965 -1.2074 -0.1312
   19MOL   H277 7153   1.074   0.988   1.785 -1.1139  2.2641 -1.4030
   19MOL   H278 7154   1.061   1.183   1.658 -0.1156 -0.9051  0.6981
   19MOL   H279 7155   0.895   1.187   1.697 -0.7877  0.8262  0.5687
   19MOL   H280 7156   0.938   1.400   1.628 -1.1797  1.7174  1.4844
   19MOL   H281 7157   0.837   1.529   1.796  0.3096 -0.1328 -1.3441
   19MOL   H282 7158   0.958   1.479   1.913 -0.2650 -3.0376  1.1491
   19MOL   H283 7159   0.830   1.378   1.868  0.3444  0.1731  0.1072
   19MOL   H284 7160   1.132   1.537   1.741 -0.0608 -0.4734  0.3853
   19MOL   H285 7161   1.173   1.418   1.615 -0.5087  0.4104 -0.5140
   19MOL   H286 7162   1.212   1.389   1.778 -0.0806  0.3851 -1.0027
   19MOL   C287 7163   0.894   0.968   1.893 -0.5750 -0.1151  0.0365
   19MOL   C288 7164   0.812   0.984   2.020 -0.2197  0.1370  0.1175
   19MOL   O289 7165   0.876   0.906   2.116  0.0807  0.1794 -0.4300
   19MOL   C290 7166   0.834   0.926   2.251 -0.3828  0.1636  0.1061
   19MOL   C291 7167   0.907   0.832   2.348  0.1614 -0.7949  0.0786
   19MOL   C292 7168   0.834   0.800   2.476 -0.6609 -0.3853  0.1060
   19MOL   C293 7169   1.047   0.880   2.375  0.1114  0.7616  0.1463
   19MOL   H294 7170   0.895   0.862   1.867 -1.3858  0.1716 -1.1823
   19MOL   H295 7171   0.847   1.004   1.801  1.7696 -2.7084 -2.3157
   19MOL   H296 7172   0.798   1.088   2.049 -2.9748  0.3542 -1.8470
   19MOL   H297 7173   0.839   1.027   2.292  0.7114  0.2471 -0.2045
   19MOL   H298 7174   0.735   0.884   2.271  0.5041 -1.8548  0.4076
   19MOL   H299 7175   0.916   0.734   2.300  1.2710 -0.3390 -0.6758
   19MOL   H300 7176   0.747   0.740   2.448 -1.1556 -0.9732  2.7529
   19MOL   H301 7177   0.806   0.885   2.538  0.9667 -1.7185  2.7454
   19MOL   H302 7178   0.892   0.737   2.543 -0.3207 -0.1646  0.0176
   19MOL   H303 7179   1.058   0.962   2.447 -0.3998  1.7737 -0.9197
   19MOL   H304 7180   1.090   0.790   2.421  0.6101 -0.7121 -3.1052
   19MOL   H305 7181   1.109   0.898   2.288 -0.6999  0.8829 -0.4065
   19MOL   C306 7182   0.665   0.936   2.001  0.5372  0.5918  0.0409
   19MOL   C307 7183   0.575   1.004   1.892  0.3473  0.0008  0.0241
   19MOL   O308 7184   0.435   0.978   1.917  0.0867 -0.6078 -0.3191
   19MOL   C309 7185   0.389   0.857   1.841  0.0245  0.1200  0.0535
   19MOL   C310 7186   0.244   0.837   1.883 -0.1791 -0.0838  0.0766
   19MOL   C311 7187   0.191   0.705   1.826 -0.8351  0.2882 -0.6335
   19MOL   C312 7188   0.158   0.961   1.838  0.0626  0.6831  0.0215
   19MOL   H313 7189   0.612   0.968   2.091 -2.2454  1.3307 -1.8051
   19MOL   H314 7190   0.661   0.827   1.997 -2.9815  0.6200  1.1664
   19MOL   H315 7191   0.604   0.982   1.789 -0.2432  0.0020 -0.1430
   19MOL   H316 7192   0.456   0.774   1.865  0.4289 -0.2299 -2.1908
   19MOL   H317 7193   0.395   0.877   1.734 -2.9825  0.0071 -0.1829
   19MOL   H318 7194   0.240   0.827   1.992  0.1798 -1.1817 -0.0083
   19MOL   H319 7195   0.197   0.682   1.720  0.3562 -1.7759 -0.1542
   19MOL   H320 7196   0.090   0.672   1.849 -0.4314  0.3751  1.3467
   19MOL   H321 7197   0.258   0.628   1.866  0.7230  0.9556 -1.8885
   19MOL   H322 7198   0.215   1.054   1.837 -0.7068  1.1682  0.5348
   19MOL   H323 7199   0.074   0.972   1.906 -1.7752  2.1831 -2.4385
   19MOL   H324 7200   0.116   0.942   1.740 -0.2282 -4.4300  1.0132
   19MOL   C325 7201   0.574   1.154   1.906 -0.3285 -0.4800 -0.2529
   19MOL   C326 7202   0.493   1.235   1.799  0.8082 -0.7039 -0.2768
   19MOL   O327 7203   0.486   1.376   1.833 -0.0748 -0.2807 -0.2434
   19MOL   C328 7204   0.413   1.397   1.948 -0.3239 -0.4946 -0.2592
   19MOL   C329 7205   0.385   1.544   1.943 -0.0256  0.2376  0.3298
   19MOL   C330 7206   0.506   1.627   1.903  0.2482  0.3538 -0.7466
   19MOL   C331 7207   0.255   1.579   1.865  0.1138  0.4924  0.1546
   19MOL   H332 7208   0.678   1.187   1.907 -0.6046  0.5208 -2.0169
   19MOL   H333 7209   0.544   1.184   2.007  0.3053  1.7862 -0.7149
   19MOL   H334 7210   0.390   1.202   1.788  0.5913 -0.0067 -0.3698
   19MOL   H335 7211   0.317   1.344   1.955 -1.2960  1.2456 -0.1775
   19MOL   H336 7212   0.465   1.369   2.040  0.8825 -0.8602 -1.0522
   19MOL   H337 7213   0.373   1.570   2.049  2.3537 -0.1252  0.7253
   19MOL   H338 7214   0.515   1.627   1.794 -1.4819  2.9354 -0.9487
   19MOL   H339 7215   0.480   1.731   1.918  0.2608  0.3896 -0.9640
   19MOL   H340 7216   0.599   1.608   1.955 -0.2028 -1.2485 -0.4891
   19MOL   H341 7217   0.175   1.506   1.877  0.6442  0.3727  3.2214
   19MOL   H342 7218   0.217   1.678   1.890 -1.4836  0.7376 -3.0135
   19MOL   H343 7219   0.281   1.577   1.759 -1.1435 -0.2621 -0.1449
   19MOL   C344 7220   0.575   1.248   1.666  0.1795 -0.1712  0.0543
   19MOL   C345 7221   0.514   1.341   1.554 -0.5625 -0.2860  0.4916
   19MOL   O346 7222   0.584   1.311   1.440 -0.2440 -0.2757  0.1431
   19MOL   C347 7223   0.578   1.407   1.338  0.4964 -0.2954  0.2472
   19MOL   C348 7224   0.655   1.362   1.214 -0.7834 -0.0700  0.3338
   19MOL   C349 7225   0.594   1.243   1.126 -0.2599 -0.5131  0.9237
   19MOL   C350 7226   0.803   1.332   1.258  0.6799  0.1341  0.7018
   19MOL   H351 7227   0.593   1.146   1.630  0.6730 -0.1738  0.3075
   19MOL   H352 7228   0.669   1.293   1.698  0.7188 -1.3885  0.2227
   19MOL   H353 7229   0.537   1.447   1.568 -1.4074 -0.0089 -0.1208
   19MOL   H354 7230   0.624   1.500   1.371 -0.2242 -0.5997  2.1436
   19MOL   H355 7231   0.473   1.427   1.314  0.6643 -1.3530 -1.4382
   19MOL   H356 7232   0.670   1.453   1.157 -1.3841 -0.3178 -0.2277
   19MOL   H357 7233   0.580   1.160   1.195 -0.6876 -1.3679 -0.1928
   19MOL   H358 7234   0.660   1.220   1.043  0.4329  1.7309  0.8053
   19MOL   H359 7235   0.499   1.279   1.086 -0.2230  0.2270  1.4672
   19MOL   H360 7236   0.838   1.397   1.338  0.9638  0.0633  0.6375
   19MOL   H361 7237   0.818   1.235   1.305 -1.7440 -1.6367 -2.0221
   19MOL   H362 7238   0.878   1.328   1.178  1.6682 -0.1338  1.6218
   19MOL   C363 7239   0.363   1.327   1.539  0.3994  0.0908 -0.1734
   19MOL   C364 7240   0.326   1.182   1.496 -0.1628 -0.0453  0.2479
   19MOL   O365 7241   0.180   1.176   1.480 -0.1751  0.4111 -0.2787
   19MOL   C366 7242   0.120   1.060   1.438  0.1631 -0.8059  0.0493
   19MOL   C367 7243   0.090   1.074   1.284 -0.3059  0.2905  0.8136
   19MOL   C368 7244   7.810   0.970   1.230 -1.0036 -0.0274 -0.9946
   19MOL   C369 7245   0.221   1.068   1.197  0.0255 -0.5287 -0.9102
   19MOL   H370 7246   0.312   1.347   1.633  2.9378 -0.6783  1.4077
   19MOL   H371 7247   0.319   1.401   1.471 -0.6566 -1.3992 -1.1409
   19MOL   H372 7248   0.350   1.097   1.559  0.2166 -0.6617 -0.7140
   19MOL   H373 7249   0.185   0.973   1.449 -0.9392 -1.5399  0.8049
   19MOL   H374 7250   0.031   1.054   1.501 -0.6157  3.2793 -0.5679
   19MOL   H375 7251   0.044   1.171   1.264 -0.1999  0.3424  0.8213
   19MOL   H376 7252   7.822   0.871   1.275 -1.8513  0.9460  1.4732
   19MOL   H377 7253   7.802   0.950   1.123 -0.8370  1.3198 -1.2683
   19MOL   H378 7254   7.712   0.997   1.271  0.0089 -0.5640  1.9083
   19MOL   H379 7255   0.194   1.059   1.091 -0.8119 -1.0341 -0.6548
   19MOL   H380 7256   0.300   1.000   1.227  0.4050  1.4015  2.7519
   19MOL   H381 7257   0.272   1.165   1.192 -2.8684  1.1043 -0.0066
   19MOL   H382 7258   0.366   1.159   1.397  2.2051 -1.3916  1.4624
   20MOL     C1 7259   1.427   3.696   0.930  0.4212 -0.0806  0.3363
   20MOL     C2 7260   1.436   3.811   0.831 -0.3932  0.1593 -1.1951
   20MOL     O3 7261   1.540   3.896   0.865  0.2983 -0.3278 -0.0013
   20MOL     C4 7262   1.528   3.962   0.987  0.1264 -0.1566 -0.0471
   20MOL     C5 7263   1.676   3.981   1.039 -0.3119  0.5552 -0.6567
   20MOL     C6 7264   1.782   4.048   0.941 -0.4085  0.4700 -0.4605
   20MOL     C7 7265   1.753   3.862   1.093 -0.4820 -0.4075  0.0503
   20MOL     H8 7266   1.523   3.645   0.936  1.2149  1.4533  1.2129
   20MOL     H9 7267   1.385   3.723   1.027  0.2931  0.9189  0.0105
   20MOL    H10 7268   1.348   3.876   0.835  0.5830  1.4934 -1.4287
   20MOL    H11 7269   1.464   3.912   1.061 -1.3470 -0.2108 -1.3386
   20MOL    H12 7270   1.490   4.064   0.987  0.0589 -0.1682  1.3199
   20MOL    H13 7271   1.668   4.034   1.134  0.0579 -0.3920 -0.0908
   20MOL    H14 7272   1.791   3.989   0.850  0.3489 -0.9608  0.5187
   20MOL    H15 7273   1.751   4.151   0.925 -0.3422  0.8311  1.5975
   20MOL    H16 7274   1.884   4.050   0.979 -0.2774  0.7939 -0.8290
   20MOL    H17 7275   1.852   3.895   1.124 -0.8127  0.3547  0.3118
   20MOL    H18 7276   1.704   3.816   1.179 -0.2076  0.8061  0.8626
   20MOL    H19 7277   1.765   3.781   1.020  2.4025  0.3306 -0.3655
   20MOL    H20 7278   1.364   3.617   0.890  1.3921 -0.1514 -1.0534
   20MOL    C21 7279   1.470   3.767   0.688 -0.7213 -0.5175 -0.5705
   20MOL    C22 7280   1.614   3.711   0.657 -0.1472 -0.4282  0.0130
   20MOL    O23 7281   1.595   3.583   0.590 -0.7314  0.5636 -0.7637
   20MOL    C24 7282   1.579   3.469   0.670 -0.4582 -0.2972 -0.3691
   20MOL    C25 7283   1.571   3.350   0.570  0.1805 -0.4398  0.8059
   20MOL    C26 7284   1.448   3.338   0.480 -0.5117  0.7529  0.1714
   20MOL    C27 7285   1.697   3.327   0.496  0.0087 -0.0903  0.4549
   20MOL    H28 7286   1.394   3.697   0.653  0.0349 -1.0891 -1.0776
   20MOL    H29 7287   1.460   3.850   0.618 -0.0903  0.2205  0.2140
   20MOL    H30 7288   1.671   3.698   0.749 -1.0588  2.5167  1.0389
   20MOL    H31 7289   1.484   3.491   0.720  0.8795 -1.2919  2.6966
   20MOL    H32 7290   1.651   3.455   0.750 -1.0929  0.8801  0.4324
   20MOL    H33 7291   1.554   3.261   0.631 -0.5657 -1.8691 -1.4019
   20MOL    H34 7292   1.436   3.239   0.436  2.2265 -0.6809  2.5241
   20MOL    H35 7293   1.443   3.414   0.402  0.9763  0.4057 -0.2859
   20MOL    H36 7294   1.357   3.363   0.534 -0.5320 -1.0298  0.9996
   20MOL    H37 7295   1.756   3.258   0.556 -1.6977 -0.6872  1.4796
   20MOL    H38 7296   1.669   3.294   0.396  0.4503  0.5637  0.1091
   20MOL    H39 7297   1.760   3.413   0.472 -0.2985 -0.4292 -1.7327
   20MOL    C40 7298   1.679   3.790   0.544 -0.0772 -0.5270  0.2900
   20MOL    C41 7299   1.805   3.736   0.472 -0.3578  0.8587  0.4953
   20MOL    O42 7300   1.909   3.763   0.569  0.0173  0.1056  0.1002
   20MOL    C43 7301   1.982   3.653   0.624  0.1420  0.9182 -0.2520
   20MOL    C44 7302   2.100   3.718   0.691 -0.2327 -0.1656  0.1602
   20MOL    C45 7303   2.202   3.776   0.593 -0.4005 -0.4599  0.0193
   20MOL    C46 7304   2.055   3.827   0.787  0.7625  0.0475  0.4530
   20MOL    H47 7305   1.686   3.894   0.575  1.6709 -0.8323  0.9770
   20MOL    H48 7306   1.600   3.794   0.469 -0.0639  2.2733  0.3917
   20MOL    H49 7307   1.805   3.629   0.451 -0.4574  1.4059 -2.5337
   20MOL    H50 7308   2.019   3.571   0.561  0.3025  0.9280 -0.1706
   20MOL    H51 7309   1.917   3.606   0.698  0.2288  2.1394  0.6083
   20MOL    H52 7310   2.151   3.637   0.744  1.9024  0.8045 -0.3321
   20MOL    H53 7311   2.196   3.727   0.496  0.4748 -0.1266 -0.2141
   20MOL    H54 7312   2.166   3.872   0.556 -1.1922 -1.0546 -0.7631
   20MOL    H55 7313   2.306   3.778   0.626 -0.0582  1.0252 -1.0591
   20MOL    H56 7314   1.988   3.793   0.865  0.0620 -1.9459 -0.9554
   20MOL    H57 7315   2.010   3.910   0.734 -1.3705  0.9604  3.5771
   20MOL    H58 7316   2.144   3.871   0.832 -0.4993  3.9952 -0.7139
   20MOL    C59 7317   1.846   3.812   0.348  0.0220 -0.0771 -0.2831
   20MOL    C60 7318   1.912   3.718   0.250 -0.3791 -0.6561 -0.9483
   20MOL    O61 7319   1.980   3.783   0.142 -0.6536  0.2694  0.2775
   20MOL    C62 7320   2.106   3.822   0.160 -0.1412  0.1076 -0.2911
   20MOL    C63 7321   2.180   3.842   0.024  0.2323  0.3407 -0.6612
   20MOL    C64 7322   2.192   3.703   7.769 -0.1440  0.0197 -0.5215
   20MOL    C65 7323   2.111   3.952   7.767 -0.1701  0.2413  0.0702
   20MOL    H66 7324   1.907   3.898   0.373  1.2740 -0.9969 -0.1404
   20MOL    H67 7325   1.755   3.858   0.309 -1.1025 -1.7264  0.3407
   20MOL    H68 7326   1.988   3.671   0.312  2.5241  1.3812 -2.8311
   20MOL    H69 7327   2.102   3.919   0.209 -1.0840  0.2701 -0.6806
   20MOL    H70 7328   2.173   3.748   0.206 -0.8290  0.7532  1.7784
   20MOL    H71 7329   2.281   3.882   0.034  0.9956 -2.0494  1.7273
   20MOL    H72 7330   2.100   3.646   7.766  0.3866 -0.7816 -1.5821
   20MOL    H73 7331   2.253   3.643   0.012  1.9079  1.3188 -1.1733
   20MOL    H74 7332   2.247   3.714   7.676 -1.0507 -0.8091 -1.1566
   20MOL    H75 7333   2.014   3.909   7.742 -0.2062  0.1627  0.3445
   20MOL    H76 7334   2.087   4.041   0.000  1.6100  0.2542  0.8240
   20MOL    H77 7335   2.167   3.969   7.675  1.0067  0.7860  0.8781
   20MOL    C78 7336   1.822   3.603   0.187 -0.1486  0.5921  0.7212
   20MOL    C79 7337   1.897   3.482   0.116  0.0535  0.2914 -0.4920
   20MOL    O80 7338   1.932   3.395   0.226  0.2761 -0.4710 -0.2446
   20MOL    C81 7339   2.067   3.346   0.227 -0.0983  0.2359 -0.1587
   20MOL    C82 7340   2.098   3.280   0.358 -0.2354 -0.1982 -0.6815
   20MOL    C83 7341   2.248   3.303   0.408 -0.0384  0.2503  0.0099
   20MOL    C84 7342   2.063   3.128   0.361 -0.3119 -0.1896 -0.4134
   20MOL    H85 7343   1.773   3.654   0.104  0.3721 -0.4072 -0.2197
   20MOL    H86 7344   1.747   3.570   0.258 -1.0661  3.8901  1.3325
   20MOL    H87 7345   1.982   3.532   0.069 -0.1188  0.9658 -0.0900
   20MOL    H88 7346   2.079   3.279   0.143  0.6071 -1.9997  1.6743
   20MOL    H89 7347   2.139   3.426   0.209  0.6225 -0.1893  0.7764
   20MOL    H90 7348   2.022   3.316   0.428  0.8181  0.4406  0.1331
   20MOL    H91 7349   2.281   3.406   0.418 -1.4008  0.4554  3.0060
   20MOL    H92 7350   2.313   3.259   0.333  0.2555  2.3956 -1.0058
   20MOL    H93 7351   2.276   3.259   0.504  1.0328 -0.8183 -0.7699
   20MOL    H94 7352   2.074   3.091   0.463  1.0822  0.2894 -0.3732
   20MOL    H95 7353   2.126   3.073   0.291  1.0018 -1.0295  1.3803
   20MOL    H96 7354   1.964   3.110   0.319 -0.5749 -1.4360  0.7131
   20MOL    C97 7355   1.814   3.402   0.012  0.8423 -0.5824  0.3326
   20MOL    C98 7356   1.853   3.401   7.686  0.5426  0.0541  0.0424
   20MOL    O99 7357   1.754   3.344   7.605  0.5896  0.4127  0.2154
   20MOL   C100 7358   1.635   3.427   7.582 -0.1740  0.1687 -0.4669
   20MOL   C101 7359   1.534   3.353   7.491 -0.0202 -0.2905 -0.4431
   20MOL   C102 7360   1.498   3.221   7.558  0.2332  0.4175  0.1383
   20MOL   C103 7361   1.408   3.433   7.450  0.0792  0.5611 -0.0549
   20MOL   H104 7362   1.716   3.450   0.017  0.5654 -0.8769 -2.0140
   20MOL   H105 7363   1.804   3.297   0.040 -2.0704  0.1529  2.4144
   20MOL   H106 7364   1.862   3.507   7.662  0.0106  0.5983  2.0872
   20MOL   H107 7365   1.659   3.527   7.546 -1.5177  0.8701  0.5133
   20MOL   H108 7366   1.589   3.431   7.681  0.7393  0.8308 -0.0705
   20MOL   H109 7367   1.586   3.336   7.396  1.0249 -0.3499  0.1407
   20MOL   H110 7368   1.464   3.153   7.479  0.7077  1.7252 -1.2140
   20MOL   H111 7369   1.585   3.163   7.591 -1.1637 -2.1305 -0.4974
   20MOL   H112 7370   1.425   3.216   7.639 -1.4736 -0.8263 -1.4314
   20MOL   H113 7371   1.431   3.536   7.425 -2.1088  0.9711 -0.5294
   20MOL   H114 7372   1.364   3.395   7.358 -1.7838  2.0537  0.1725
   20MOL   H115 7373   1.333   3.427   7.529 -0.8086  0.2162 -0.9078
   20MOL   C116 7374   1.982   3.324   7.645 -0.1040  0.4079 -0.0696
   20MOL   C117 7375   2.022   3.348   7.500  0.4187 -0.5608 -0.2479
   20MOL   O118 7376   2.049   3.489   7.493  0.3275  0.1708  0.1217
   20MOL   C119 7377   1.991   3.550   7.380 -0.2439 -0.4486 -0.4266
   20MOL   C120 7378   2.004   3.702   7.407 -0.1842 -0.0379 -0.0906
   20MOL   C121 7379   1.974   3.788   7.287 -0.8896 -0.3393 -0.6715
   20MOL   C122 7380   1.912   3.747   7.526  0.3854 -0.3691 -0.0912
   20MOL   H123 7381   2.063   3.345   7.716  0.3280  1.6324 -0.8915
   20MOL   H124 7382   1.965   3.217   7.650 -0.5725  0.4807 -0.0509
   20MOL   H125 7383   1.936   3.333   7.435 -1.4478  1.5185  1.6732
   20MOL   H126 7384   1.886   3.521   7.369 -0.6411  0.9568 -0.3859
   20MOL   H127 7385   2.053   3.525   7.294 -1.6189  1.3156 -1.9509
   20MOL   H128 7386   2.110   3.721   7.422  0.1591  0.2294 -2.6462
   20MOL   H129 7387   2.027   3.741   7.204 -2.9988 -2.2346 -1.0105
   20MOL   H130 7388   2.005   3.892   7.292 -1.1782 -0.2573 -0.5888
   20MOL   H131 7389   1.868   3.793   7.262 -1.4075 -0.0303  1.4868
   20MOL   H132 7390   1.938   3.691   7.615  1.2700 -0.2225 -0.2524
   20MOL   H133 7391   1.928   3.854   7.539  0.0446 -0.1928 -1.0846
   20MOL   H134 7392   1.805   3.734   7.510 -0.0120  3.4506 -1.0350
   20MOL   C135 7393   2.133   3.255   7.446 -0.7560 -0.2543  0.4080
   20MOL   C136 7394   2.276   3.297   7.484 -0.0143  0.0397  0.2830
   20MOL   O137 7395   2.295   3.289   7.625  0.7761  0.1085  0.3108
   20MOL   C138 7396   2.405   3.370   7.665 -0.3442  0.2888  0.7574
   20MOL   C139 7397   2.417   3.347   7.814  0.1110 -0.0252  0.3647
   20MOL   C140 7398   2.444   3.195   0.022 -0.3455 -0.1454 -0.0239
   20MOL   C141 7399   2.520   3.444   0.049  0.4253  0.3759  0.4848
   20MOL   H142 7400   2.118   3.149   7.465 -3.3904 -0.1014 -0.6086
   20MOL   H143 7401   2.133   3.267   7.338  0.3632 -4.2873 -0.1179
   20MOL   H144 7402   2.276   3.403   7.462 -0.3493  0.5247  2.5860
   20MOL   H145 7403   2.385   3.473   7.637 -0.5939  0.3365  1.1032
   20MOL   H146 7404   2.505   3.340   7.634 -0.3123  2.6430 -1.5495
   20MOL   H147 7405   2.323   3.366   0.040  0.8762  0.1586  1.7395
   20MOL   H148 7406   2.397   3.132   7.772  0.7894  2.0668 -2.6846
   20MOL   H149 7407   2.415   3.150   0.118  0.7327 -0.5848  0.1083
   20MOL   H150 7408   2.547   3.172   7.819  0.5580 -0.0338  3.0192
   20MOL   H151 7409   2.477   3.540   0.022  2.5365  0.7132 -1.8834
   20MOL   H152 7410   2.546   3.425   0.154  2.8517 -2.0731 -0.4863
   20MOL   H153 7411   2.616   3.444   7.821  2.4539  0.4167  4.0137
   20MOL   C154 7412   2.392   3.224   7.413  0.4291  0.0434  1.4143
   20MOL   C155 7413   2.395   3.067   7.402  0.2813 -0.9974 -0.2533
   20MOL   O156 7414   2.498   3.021   7.323 -0.3941  0.4028  0.2448
   20MOL   C157 7415   2.634   3.031   7.370  1.0521  0.1582 -0.0286
   20MOL   C158 7416   2.710   2.961   7.258  0.0229  0.3989 -0.3319
   20MOL   C159 7417   2.690   3.031   7.125 -0.0334 -0.3999  0.4601
   20MOL   C160 7418   2.845   2.948   7.313  0.7053 -0.4412 -0.5046
   20MOL   H161 7419   2.491   3.256   7.445  1.0737 -0.9254  0.4074
   20MOL   H162 7420   2.366   3.267   7.316 -0.0305 -3.2832  0.0112
   20MOL   H163 7421   2.303   3.043   7.348 -0.7359 -1.1282  1.5207
   20MOL   H164 7422   2.657   2.981   7.464  2.5556  0.1431 -0.3942
   20MOL   H165 7423   2.664   3.135   7.378 -0.1084  0.5456 -0.6758
   20MOL   H166 7424   2.678   2.858   7.249 -0.7468  0.7745 -1.9638
   20MOL   H167 7425   2.736   3.130   7.127  1.5343 -1.0517 -1.1720
   20MOL   H168 7426   2.587   3.043   7.092 -0.3361 -0.0984  1.4975
   20MOL   H169 7427   2.741   2.975   7.046  1.2809  0.8053  0.4264
   20MOL   H170 7428   2.880   3.049   7.334  2.8118 -1.3002  0.2126
   20MOL   H171 7429   2.847   2.868   7.388 -1.1152  1.4138  1.5845
   20MOL   H172 7430   2.910   2.919   7.231 -1.1812 -1.9138 -1.5488
   20MOL   C173 7431   2.400   2.995   7.542 -0.1437  0.1766 -0.0868
   20MOL   C174 7432   2.406   2.841   7.539  0.1975 -0.0726 -0.0314
   20MOL   O175 7433   2.428   2.798   7.673 -0.3497 -0.0792  0.4741
   20MOL   C176 7434   2.549   2.742   7.697 -0.3878 -0.3906 -0.3728
   20MOL   C177 7435   2.544   2.687   0.018  0.3814 -0.4584  0.6700
   20MOL   C178 7436   2.658   2.591   0.045 -0.3322  0.2285  0.6276
   20MOL   C179 7437   2.539   2.782   0.129 -0.7804 -0.0260  0.0155
   20MOL   H180 7438   2.479   3.036   7.605 -0.6036 -1.0573  1.2989
   20MOL   H181 7439   2.305   3.026   7.585  0.6400  3.4151 -0.4925
   20MOL   H182 7440   2.488   2.811   7.474 -0.5821 -0.8855 -0.6688
   20MOL   H183 7441   2.639   2.802   7.684 -0.2724 -0.8253 -1.5734
   20MOL   H184 7442   2.569   2.653   7.638  1.1564  0.0397 -0.5128
   20MOL   H185 7443   2.452   2.630   0.036 -1.0162  1.2193 -0.9821
   20MOL   H186 7444   2.663   2.564   0.150  2.1490 -0.3753  0.3926
   20MOL   H187 7445   2.639   2.499   7.814  0.1355  1.0229 -0.9123
   20MOL   H188 7446   2.749   2.647   0.025 -0.0751 -0.0787  0.9374
   20MOL   H189 7447   2.630   2.841   0.134 -1.1351  0.6852 -1.7181
   20MOL   H190 7448   2.506   2.730   0.219 -2.2070 -1.3590 -1.2535
   20MOL   H191 7449   2.462   2.858   0.114  0.5880  1.7532  1.6703
   20MOL   C192 7450   2.282   2.775   7.483  0.1020 -0.3461  0.6516
   20MOL   C193 7451   2.273   2.622   7.496 -0.5114  0.1707  0.1752
   20MOL   O194 7452   2.378   2.559   7.432 -0.3861  0.0415 -0.4573
   20MOL   C195 7453   2.383   2.569   7.290  0.1402  0.4082 -0.2721
   20MOL   C196 7454   2.502   2.484   7.253  0.6467  0.5184 -1.3740
   20MOL   C197 7455   2.489   2.334   7.293 -0.3761 -0.1348  0.2655
   20MOL   C198 7456   2.626   2.540   7.317  0.0859 -0.0515 -0.4483
   20MOL   H199 7457   2.269   2.807   7.380  1.2938  2.7370  1.4072
   20MOL   H200 7458   2.203   2.826   7.539 -0.5104 -0.7344  0.1598
   20MOL   H201 7459   2.285   2.585   7.598 -1.5639 -0.0568  0.2294
   20MOL   H202 7460   2.411   2.673   7.274 -0.8796  1.0272  1.7065
   20MOL   H203 7461   2.291   2.546   7.236 -0.7895  1.1632  0.9365
   20MOL   H204 7462   2.523   2.489   7.146  2.8822 -0.5486 -1.0227
   20MOL   H205 7463   2.477   2.323   7.400 -1.2208  0.7839  0.2697
   20MOL   H206 7464   2.411   2.283   7.236 -0.2193 -1.0152  0.8303
   20MOL   H207 7465   2.580   2.282   7.262  0.5814  1.6155  0.0708
   20MOL   H208 7466   2.608   2.584   7.415 -3.2780  1.8898 -1.8614
   20MOL   H209 7467   2.707   2.470   7.338 -0.0141 -0.2426 -0.6917
   20MOL   H210 7468   2.662   2.624   7.257 -1.4559  1.5109  0.7965
   20MOL   C211 7469   2.137   2.558   7.456  0.2719  0.3850 -0.7607
   20MOL   C212 7470   2.120   2.414   7.495  1.1260  0.4484  0.5725
   20MOL   O213 7471   1.999   2.397   7.561  0.1053 -0.0752 -0.1423
   20MOL   C214 7472   2.012   2.316   7.670  0.0235  0.1344 -0.6785
   20MOL   C215 7473   1.875   2.304   7.738 -0.3536  0.0097 -0.1316
   20MOL   C216 7474   1.863   2.213   0.036 -0.2106  0.6758 -0.0750
   20MOL   C217 7475   1.828   2.439   7.786 -0.0009  0.0127  0.5216
   20MOL   H218 7476   2.106   2.570   7.352 -1.0906 -0.9473 -0.5214
   20MOL   H219 7477   2.060   2.600   7.521  0.3706 -1.5265  0.6452
   20MOL   H220 7478   2.205   2.381   7.554 -0.3278 -0.4169  2.2533
   20MOL   H221 7479   2.078   2.363   7.742 -1.0200  3.6217 -1.9019
   20MOL   H222 7480   2.038   2.217   7.632 -0.4495 -0.0678 -0.4738
   20MOL   H223 7481   1.797   2.265   7.673 -3.3138  0.6070  2.9669
   20MOL   H224 7482   1.858   2.109   0.005  1.4711 -0.1032  2.0849
   20MOL   H225 7483   1.951   2.222   0.100 -0.7892 -1.1793  1.0483
   20MOL   H226 7484   1.771   2.224   0.095  0.3150  1.3948  0.6173
   20MOL   H227 7485   1.819   2.503   7.698  2.8689 -0.9900 -0.5773
   20MOL   H228 7486   1.907   2.482   0.023  1.2519  1.5544 -2.0796
   20MOL   H229 7487   1.732   2.430   0.012 -0.5243 -0.8496 -0.6117
   20MOL   C230 7488   2.118   2.322   7.366  0.3653  0.6039 -0.0236
   20MOL   C231 7489   1.989   2.320   7.275  0.1713 -0.2490 -0.4197
   20MOL   O232 7490   2.041   2.287   7.142  0.4113  0.2989  0.2490
   20MOL   C233 7491   1.979   2.362   7.036 -1.4033  0.4401  0.1529
   20MOL   C234 7492   2.069   2.365   6.916  0.2347  0.4528  0.1223
   20MOL   C235 7493   2.007   2.446   6.803 -0.2708  0.1671 -0.2046
   20MOL   C236 7494   2.210   2.425   6.958  0.3931  0.5973  0.1614
   20MOL   H237 7495   2.144   2.226   7.411  1.6789  0.1544 -1.7054
   20MOL   H238 7496   2.204   2.349   7.304  0.8471  0.4519  0.5678
   20MOL   H239 7497   1.936   2.415   7.284  1.8248  0.6446  0.0314
   20MOL   H240 7498   1.891   2.303   7.011  1.0440 -2.6664 -1.4743
   20MOL   H241 7499   1.950   2.462   7.068  0.9155  0.7801  1.2666
   20MOL   H242 7500   2.085   2.258   6.897 -0.2353  0.5327 -0.7531
   20MOL   H243 7501   1.902   2.429   6.781  0.0010 -0.8821 -0.7380
   20MOL   H244 7502   2.056   2.427   6.707 -0.7928 -0.2372 -0.3946
   20MOL   H245 7503   2.032   2.551   6.812 -0.6670  0.0133  3.3316
   20MOL   H246 7504   2.194   2.527   6.990  0.9125  0.1321  1.9403
   20MOL   H247 7505   2.242   2.376   7.050 -0.0351  0.4873  0.2577
   20MOL   H248 7506   2.287   2.425   6.881  1.6590  1.9992  1.4060
   20MOL   C249 7507   1.889   2.221   7.330 -0.2384  0.8031 -0.4567
   20MOL   C250 7508   1.756   2.199   7.257  0.3156 -0.3039 -0.8441
   20MOL   O251 7509   1.686   2.108   7.341  0.8112 -0.3223  0.3422
   20MOL   C252 7510   1.688   1.973   7.311 -0.5764  0.3503 -0.0744
   20MOL   C253 7511   1.580   1.896   7.377  0.2606  0.2362 -0.6377
   20MOL   C254 7512   1.445   1.947   7.342 -0.4039  0.2366  0.0083
   20MOL   C255 7513   1.593   1.868   7.529 -0.3413 -0.2167 -0.3282
   20MOL   H256 7514   1.860   2.239   7.434  0.3782 -0.7995  0.0182
   20MOL   H257 7515   1.936   2.123   7.341  0.1778  0.9974 -0.5020
   20MOL   H258 7516   1.785   2.162   7.159 -0.1849 -2.0680 -0.3506
   20MOL   H259 7517   1.698   1.959   7.204  2.0855 -1.0559  0.3213
   20MOL   H260 7518   1.783   1.929   7.342 -0.2135  0.6730 -0.7371
   20MOL   H261 7519   1.573   1.793   7.343 -2.3026 -0.3139  1.4318
   20MOL   H262 7520   1.433   2.046   7.386  1.7677  0.5445 -0.0006
   20MOL   H263 7521   1.364   1.880   7.369  0.9233 -1.5135 -0.2144
   20MOL   H264 7522   1.442   1.962   7.234  1.5795 -0.8666 -0.2285
   20MOL   H265 7523   1.688   1.827   7.562  0.5104  1.6319 -0.4614
   20MOL   H266 7524   1.582   1.961   7.584  0.5078 -0.9725  1.1418
   20MOL   H267 7525   1.514   1.797   7.553 -1.7203  2.4217  3.2594
   20MOL   C268 7526   1.659   2.322   7.230  0.4057  1.2105  0.3352
   20MOL   C269 7527   1.552   2.296   7.127 -0.3655 -0.3223  0.9866
   20MOL   O270 7528   1.626   2.258   7.012  0.2943  0.4725  0.5785
   20MOL   C271 7529   1.580   2.134   6.955  0.0569  0.2437  0.2205
   20MOL   C272 7530   1.642   2.097   6.823 -0.6497  0.7115 -0.2397
   20MOL   C273 7531   1.585   2.204   6.719  0.1461 -1.0234 -0.3560
   20MOL   C274 7532   1.793   2.100   6.823 -0.3406  0.2622  0.4292
   20MOL   H275 7533   1.720   2.402   7.189 -0.4840  0.4824 -2.5168
   20MOL   H276 7534   1.627   2.354   7.329 -0.9782  0.6800  0.0705
   20MOL   H277 7535   1.489   2.218   7.169  0.6084 -2.5463 -1.5515
   20MOL   H278 7536   1.593   2.049   7.023 -2.2964  1.3940  2.1967
   20MOL   H279 7537   1.476   2.154   6.931  0.1887  4.7779  2.8728
   20MOL   H280 7538   1.611   1.998   6.788 -0.2780  0.7133 -0.5793
   20MOL   H281 7539   1.618   2.304   6.746 -1.0851 -0.2339 -1.6467
   20MOL   H282 7540   1.476   2.209   6.719 -0.0055 -3.4000 -2.6137
   20MOL   H283 7541   1.622   2.199   6.616  2.0078  1.9714  0.1014
   20MOL   H284 7542   1.840   2.035   6.748 -1.4778 -0.0866  0.0141
   20MOL   H285 7543   1.828   2.076   6.923 -1.6629  2.2124  1.3785
   20MOL   H286 7544   1.827   2.203   6.820 -3.6573  1.3610 -1.0359
   20MOL   C287 7545   1.490   2.436   7.078  0.3100  0.0597 -0.1158
   20MOL   C288 7546   1.361   2.484   7.154 -0.5468  0.2436 -0.4680
   20MOL   O289 7547   1.281   2.564   7.064 -0.8984 -0.1667 -0.1036
   20MOL   C290 7548   1.188   2.476   6.999 -0.2510  0.1318 -0.1585
   20MOL   C291 7549   1.111   2.561   6.903 -0.3918  0.0934 -0.0175
   20MOL   C292 7550   1.195   2.632   6.804  0.8001 -0.0913 -0.2175
   20MOL   C293 7551   1.005   2.648   6.976 -0.3604  0.8660 -0.2736
   20MOL   H294 7552   1.469   2.420   6.972  1.6769  3.3140 -0.9099
   20MOL   H295 7553   1.563   2.515   7.092  1.2285 -1.1257  1.8985
   20MOL   H296 7554   1.310   2.394   7.188  0.2189  0.1631  0.4852
   20MOL   H297 7555   1.239   2.392   6.950  0.1158  0.5748 -0.5398
   20MOL   H298 7556   1.121   2.428   7.070 -0.3391  0.2728 -0.1481
   20MOL   H299 7557   1.041   2.493   6.854  0.8238 -2.1913  1.2859
   20MOL   H300 7558   1.131   2.678   6.729  0.4373 -0.7079 -0.2851
   20MOL   H301 7559   1.269   2.577   6.745  0.9679 -0.1086  0.0061
   20MOL   H302 7560   1.247   2.713   6.854 -0.8165  1.4362 -0.9849
   20MOL   H303 7561   0.933   2.701   6.912 -0.9478  0.2975 -0.0858
   20MOL   H304 7562   0.936   2.581   7.028  0.6636 -1.2428 -1.5697
   20MOL   H305 7563   1.042   2.713   7.055 -0.7323  1.5695 -0.6715
   20MOL   C306 7564   1.398   2.565   7.283  0.5265  0.0809  0.3426
   20MOL   C307 7565   1.283   2.588   7.382  0.0219 -0.8633 -0.0784
   20MOL   O308 7566   1.239   2.464   7.429  0.1784 -0.1151 -0.0117
   20MOL   C309 7567   1.095   2.442   7.432  0.6750  0.4196 -0.1766
   20MOL   C310 7568   1.056   2.292   7.462  0.0852 -0.4518  0.8798
   20MOL   C311 7569   1.140   2.197   7.379 -0.4289 -0.2684  0.2502
   20MOL   C312 7570   0.909   2.266   7.457  0.0321 -0.3518 -0.8011
   20MOL   H313 7571   1.434   2.665   7.259 -0.2502  0.4562  0.7258
   20MOL   H314 7572   1.474   2.507   7.336  0.7989  0.8700  0.8168
   20MOL   H315 7573   1.197   2.628   7.327  0.8551  2.5358  0.9478
   20MOL   H316 7574   1.046   2.473   7.339  1.1079  2.9583  0.4201
   20MOL   H317 7575   1.070   2.513   7.511 -0.0331  0.0177 -0.0360
   20MOL   H318 7576   1.100   2.263   7.557  1.0359 -1.2849  0.1912
   20MOL   H319 7577   1.126   2.235   7.278 -0.9536  1.9786  1.1476
   20MOL   H320 7578   1.112   2.092   7.384 -1.0681 -0.1750 -1.1076
   20MOL   H321 7579   1.248   2.197   7.390 -0.3633 -1.6631 -0.2941
   20MOL   H322 7580   0.889   2.169   7.502  1.1549  1.5492  4.0853
   20MOL   H323 7581   0.880   2.265   7.352 -1.7959 -0.8605 -0.3209
   20MOL   H324 7582   0.859   2.340   7.519  0.3534  0.8672 -1.9754
   20MOL   C325 7583   1.313   2.679   7.506  0.2506  0.0037  0.7745
   20MOL   C326 7584   1.448   2.661   7.573 -0.3357 -0.3926  0.1003
   20MOL   O327 7585   1.542   2.739   7.500 -0.1253 -0.0082  0.2055
   20MOL   C328 7586   1.678   2.716   7.515  0.5220  0.2044 -0.6015
   20MOL   C329 7587   1.765   2.802   7.422  0.1174 -0.9150 -0.6903
   20MOL   C330 7588   1.734   2.776   7.276  0.1697  0.2854  0.4095
   20MOL   C331 7589   1.756   2.949   7.466 -0.8316 -0.1264  0.1993
   20MOL   H332 7590   1.241   2.659   7.585  0.1127  1.2935  0.9842
   20MOL   H333 7591   1.308   2.785   7.481 -0.2031 -0.2247 -0.1021
   20MOL   H334 7592   1.476   2.556   7.564 -2.1776 -0.9654  0.8221
   20MOL   H335 7593   1.706   2.739   7.617 -0.2614  1.4602 -0.6574
   20MOL   H336 7594   1.699   2.610   7.502  2.3509  0.3090  1.2733
   20MOL   H337 7595   1.870   2.777   7.441 -0.0403 -1.6993 -0.8468
   20MOL   H338 7596   1.791   2.853   7.224  0.4686 -0.1996  0.0066
   20MOL   H339 7597   1.754   2.678   7.232  0.5499  0.0933  1.0101
   20MOL   H340 7598   1.629   2.799   7.255 -0.1869 -0.2992  1.4998
   20MOL   H341 7599   1.834   3.006   7.416  0.8378 -1.9404  0.6939
   20MOL   H342 7600   1.663   2.999   7.436  0.5432  0.5330 -3.1289
   20MOL   H343 7601   1.773   2.961   7.573 -0.5933 -0.2113  0.1703
   20MOL   C344 7602   1.454   2.711   7.725  0.0899  0.5160 -0.2765
   20MOL   C345 7603   1.363   2.625   7.818 -0.4946 -0.7185  0.8134
   20MOL   O346 7604   1.406   2.492   7.801  0.1451  0.1498  0.0449
   20MOL   C347 7605   1.315   2.396   7.750  0.4099 -0.2496 -0.7690
   20MOL   C348 7606   1.385   2.266   7.701  0.5458  0.2516  0.4849
   20MOL   C349 7607   1.449   2.198   0.004  0.2293  0.0908 -0.1643
   20MOL   C350 7608   1.478   2.284   7.576 -0.2123  0.2559 -0.1058
   20MOL   H351 7609   1.416   2.813   7.732 -0.5795  0.0605  3.5929
   20MOL   H352 7610   1.557   2.709   7.758  0.7560  0.6485 -2.2618
   20MOL   H353 7611   1.259   2.637   7.789 -0.5764  0.5499  1.6235
   20MOL   H354 7612   1.252   2.440   7.672  0.0374  0.8255  0.1409
   20MOL   H355 7613   1.251   2.366   0.009  0.4237  4.1806  0.9300
   20MOL   H356 7614   1.305   2.201   7.666  0.7616 -0.0069  0.4747
   20MOL   H357 7615   1.517   2.265   0.057 -0.5092  1.8296 -1.3649
   20MOL   H358 7616   1.494   2.100   7.809 -0.6551 -0.1415 -1.0665
   20MOL   H359 7617   1.364   2.180   0.069 -0.1822  0.3423 -0.6327
   20MOL   H360 7618   1.514   2.189   7.535 -3.2111 -0.2211 -1.7971
   20MOL   H361 7619   1.416   2.324   7.495 -0.8733  2.5343  1.4941
   20MOL   H362 7620   1.562   2.351   7.593  0.3542 -0.6555  0.7318
   20MOL   C363 7621   1.376   2.662   0.142 -0.0667  0.0096  0.2823
   20MOL   C364 7622   1.315   2.791   0.183  0.0959 -0.3513  0.6248
   20MOL   O365 7623   1.405   2.894   0.154 -0.5311  0.2678 -0.5520
   20MOL   C366 7624   1.353   3.018   0.194  0.7777 -0.2803 -0.6751
   20MOL   C367 7625   1.394   3.131   0.092 -0.3041  0.1772  0.7324
   20MOL   C368 7626   1.551   3.157   0.087 -0.2725 -0.1475 -0.0125
   20MOL   C369 7627   1.310   3.259   0.125  0.1831 -0.1381 -0.5482
   20MOL   H370 7628   1.332   2.578   0.196  1.4987 -0.1849  1.2888
   20MOL   H371 7629   1.481   2.664   0.173 -0.0674  1.5762  0.2286
   20MOL   H372 7630   1.289   2.784   0.288 -1.5332 -1.6428  0.1643
   20MOL   H373 7631   1.245   3.019   0.186  0.6236  2.0886  1.0027
   20MOL   H374 7632   1.372   3.037   0.300 -2.7535  0.6724 -0.1737
   20MOL   H375 7633   1.370   3.089   7.819 -1.6985  1.9706  0.2811
   20MOL   H376 7634   1.612   3.068   0.103 -0.6001 -0.0180  2.0400
   20MOL   H377 7635   1.578   3.226   0.166  1.2857  0.3014 -0.9200
   20MOL   H378 7636   1.590   3.197   7.818 -1.1603  2.3418  0.6552
   20MOL   H379 7637   1.202   3.246   0.124  0.2569 -0.6909 -1.2605
   20MOL   H380 7638   1.331   3.327   0.042  1.4261 -1.7304 -1.5659
   20MOL   H381 7639   1.346   3.303   0.218 -0.3432 -0.0991 -0.3643
   20MOL   H382 7640   1.219   2.804   0.133  0.3899 -2.3843 -0.5389
   21MOL     C1 7641   5.836   3.273   1.283  0.9145  0.0330  0.0179
   21MOL     C2 7642   5.849   3.264   1.440 -0.4940 -0.4486 -0.1020
   21MOL     O3 7643   5.725   3.312   1.483  0.0634  0.1503  0.1771
   21MOL     C4 7644   5.727   3.362   1.613  0.0446  0.9081  0.2934
   21MOL     C5 7645   5.592   3.430   1.644  0.7873 -0.3879  0.0099
   21MOL     C6 7646   5.580   3.566   1.572 -0.4900  0.2043  0.1391
   21MOL     C7 7647   5.574   3.449   1.792  0.6229 -0.0294  0.4438
   21MOL     H8 7648   5.734   3.253   1.252  0.7727  2.8858 -1.5449
   21MOL     H9 7649   5.860   3.376   1.253 -0.9862  0.1970 -1.0130
   21MOL    H10 7650   5.934   3.313   1.488 -1.0651  1.5530 -1.0840
   21MOL    H11 7651   5.805   3.439   1.607  2.5189 -1.5948 -0.8395
   21MOL    H12 7652   5.758   3.287   1.686 -1.3182 -1.1936 -1.2492
   21MOL    H13 7653   5.512   3.374   1.595  0.0762  2.2924 -2.0823
   21MOL    H14 7654   5.477   3.600   1.583 -0.8495 -1.5783  2.9701
   21MOL    H15 7655   5.647   3.643   1.610  0.4156 -0.3789 -0.2550
   21MOL    H16 7656   5.608   3.548   1.469 -1.3056 -1.3117  0.1619
   21MOL    H17 7657   5.466   3.453   1.810  0.4735  0.1866 -0.4974
   21MOL    H18 7658   5.609   3.365   1.853  2.1018 -1.1950 -1.9338
   21MOL    H19 7659   5.628   3.536   1.829  2.3175 -1.5958  1.7192
   21MOL    H20 7660   5.902   3.206   1.228  1.0777  0.8867 -0.8547
   21MOL    C21 7661   5.870   3.120   1.498  0.0371  1.2107  0.3913
   21MOL    C22 7662   6.007   3.061   1.461  0.1935  0.4229  0.8393
   21MOL    O23 7663   6.098   3.125   1.539 -0.0381 -0.6080 -0.2050
   21MOL    C24 7664   6.196   3.201   1.475 -0.8714 -0.0488 -0.0915
   21MOL    C25 7665   6.290   3.260   1.578 -0.0924  0.1355 -0.0853
   21MOL    C26 7666   6.213   3.367   1.653 -0.3538 -0.1622  0.7618
   21MOL    C27 7667   6.362   3.149   1.657  0.3345  1.0323  0.3524
   21MOL    H28 7668   5.857   3.116   1.606  0.9434  0.6519  0.4774
   21MOL    H29 7669   5.790   3.059   1.456 -0.2327 -0.1115  2.8015
   21MOL    H30 7670   6.029   3.078   1.355 -0.0203 -0.3068  0.6749
   21MOL    H31 7671   6.143   3.272   1.412  0.4383 -0.5102 -1.7378
   21MOL    H32 7672   6.257   3.144   1.405 -1.6484 -1.6691  0.5100
   21MOL    H33 7673   6.377   3.310   1.536  1.3015  1.5988  4.2458
   21MOL    H34 7674   6.128   3.322   1.704 -0.1678  2.8817  3.9793
   21MOL    H35 7675   6.186   3.453   1.592 -0.3441 -0.6791  0.0223
   21MOL    H36 7676   6.267   3.410   1.738  1.4996  0.5443 -0.7502
   21MOL    H37 7677   6.445   3.103   1.604 -2.3738 -0.4927 -2.7389
   21MOL    H38 7678   6.392   3.179   1.757  1.3941 -1.5908  0.8781
   21MOL    H39 7679   6.294   3.065   1.673  0.0850  0.8081 -1.7600
   21MOL    C40 7680   6.006   2.912   1.497 -0.2312 -0.3680  0.2942
   21MOL    C41 7681   6.125   2.833   1.452  0.3077  0.1472  0.3729
   21MOL    O42 7682   6.128   2.845   1.310 -0.0617 -0.1475 -0.1601
   21MOL    C43 7683   6.258   2.825   1.263  0.5937  0.0312  0.4545
   21MOL    C44 7684   6.269   2.870   1.118  0.6473 -0.7294 -0.2913
   21MOL    C45 7685   6.414   2.854   1.072 -0.5469 -0.0735 -0.2367
   21MOL    C46 7686   6.168   2.801   1.022  0.1409  0.2250 -0.3889
   21MOL    H47 7687   5.916   2.864   1.460  0.5794 -1.1137 -0.7359
   21MOL    H48 7688   6.009   2.921   1.606  0.9386 -3.2969  0.5551
   21MOL    H49 7689   6.211   2.886   1.494 -0.4789  1.8051 -0.0749
   21MOL    H50 7690   6.276   2.718   1.252  0.7401  0.2296 -1.4733
   21MOL    H51 7691   6.339   2.866   1.324  1.4198  1.8419 -1.7405
   21MOL    H52 7692   6.247   2.977   1.117  0.2087 -0.7798  2.3577
   21MOL    H53 7693   6.471   2.934   1.119 -0.6305 -0.1594  0.0111
   21MOL    H54 7694   6.464   2.759   1.089  0.2086  0.1894 -0.9195
   21MOL    H55 7695   6.430   2.867   0.965 -0.2919 -1.9677 -0.4541
   21MOL    H56 7696   6.183   2.694   1.028 -2.9842 -0.2091  0.2517
   21MOL    H57 7697   6.176   2.838   0.919  2.3267 -0.5707 -0.5421
   21MOL    H58 7698   6.066   2.826   1.049  0.0184  0.2397 -0.8504
   21MOL    C59 7699   6.121   2.682   1.484 -0.1117 -0.1902  1.0482
   21MOL    C60 7700   6.105   2.629   1.633  0.5948 -0.0004  0.1410
   21MOL    O61 7701   6.233   2.625   1.686 -0.3591 -0.1242  0.4142
   21MOL    C62 7702   6.297   2.752   1.717  0.9301  0.2799 -0.4536
   21MOL    C63 7703   6.361   2.743   1.855  0.9225 -0.8772 -0.0916
   21MOL    C64 7704   6.476   2.634   1.869 -0.0588 -0.4184  0.3345
   21MOL    C65 7705   6.414   2.869   1.906  0.0467  0.1018 -0.8950
   21MOL    H66 7706   6.197   2.629   1.428 -0.7700 -1.7076  1.5845
   21MOL    H67 7707   6.033   2.644   1.432 -0.8022  2.0757  0.4814
   21MOL    H68 7708   6.039   2.692   1.692 -0.1623 -1.2078  0.6029
   21MOL    H69 7709   6.373   2.780   1.644  1.0436 -1.7020 -1.1108
   21MOL    H70 7710   6.218   2.827   1.725  1.1334  0.6042 -1.3912
   21MOL    H71 7711   6.287   2.707   1.926  0.0191 -0.5947 -0.8776
   21MOL    H72 7712   6.565   2.646   1.807  0.2184  0.9538  0.9907
   21MOL    H73 7713   6.432   2.534   1.866 -0.3625 -0.3080  1.1283
   21MOL    H74 7714   6.518   2.627   1.969  1.9317 -0.7634 -0.5025
   21MOL    H75 7715   6.473   2.906   1.822  1.1681  2.2631  0.7577
   21MOL    H76 7716   6.334   2.941   1.925  0.6162  0.8946 -1.4506
   21MOL    H77 7717   6.470   2.869   2.000  0.3180  0.5469 -1.0523
   21MOL    C78 7718   6.062   2.484   1.622 -0.0792 -0.6108 -0.7110
   21MOL    C79 7719   6.064   2.396   1.749 -0.2415  0.2204  0.3446
   21MOL    O80 7720   5.983   2.445   1.855 -0.0531  0.3973 -0.2025
   21MOL    C81 7721   6.060   2.502   1.959 -0.1107  1.1346 -0.9305
   21MOL    C82 7722   5.976   2.574   2.066  0.9203  0.6702  0.3011
   21MOL    C83 7723   5.889   2.475   2.149  0.4054 -0.0834 -0.6553
   21MOL    C84 7724   5.893   2.688   2.020 -0.1644  0.2158  0.0608
   21MOL    H85 7725   6.141   2.442   1.561 -0.0840 -0.8819 -0.5349
   21MOL    H86 7726   5.966   2.469   1.572  0.2563 -3.0709 -0.6758
   21MOL    H87 7727   6.167   2.374   1.778 -0.3625  1.6890  1.9319
   21MOL    H88 7728   6.133   2.440   2.010  0.0662  1.6959 -0.4892
   21MOL    H89 7729   6.121   2.577   1.909  0.8703 -0.0709 -1.5635
   21MOL    H90 7730   6.045   2.603   2.145 -0.8261  0.5330  1.9320
   21MOL    H91 7731   5.954   2.424   2.220 -0.4533  0.1879  0.3363
   21MOL    H92 7732   5.835   2.400   2.091  1.3214 -1.0373 -0.3014
   21MOL    H93 7733   5.813   2.517   2.215 -1.3236  1.1300 -3.3300
   21MOL    H94 7734   5.944   2.737   1.937  0.6964 -0.8618 -0.0560
   21MOL    H95 7735   5.875   2.751   2.107 -1.0613  3.0796 -2.1286
   21MOL    H96 7736   5.790   2.663   1.993 -0.2984 -0.1355  0.8692
   21MOL    C97 7737   6.014   2.246   1.718 -0.2015 -0.2429  0.1460
   21MOL    C98 7738   6.038   2.134   1.827  0.4701  0.4143  0.1723
   21MOL    O99 7739   6.184   2.112   1.836  0.4275  0.6281  0.5213
   21MOL   C100 7740   6.243   2.063   1.957  0.2131 -0.3302 -0.4348
   21MOL   C101 7741   6.394   2.069   1.951  0.8702  0.4949 -0.2265
   21MOL   C102 7742   6.436   2.021   1.808  0.2824 -0.5260 -0.6550
   21MOL   C103 7743   6.445   2.210   1.978  0.2000  0.5058  0.1417
   21MOL   H104 7744   6.073   2.210   1.634  1.0063 -0.3297  1.0241
   21MOL   H105 7745   5.910   2.269   1.695 -0.9388 -0.5474  2.9313
   21MOL   H106 7746   6.008   2.152   1.930 -1.2990  0.0136 -0.2469
   21MOL   H107 7747   6.210   1.959   1.960 -0.7338 -0.0177 -0.0927
   21MOL   H108 7748   6.214   2.107   2.052  1.7717  1.3509 -0.7254
   21MOL   H109 7749   6.436   2.003   2.027 -0.5409  0.2131  0.3155
   21MOL   H110 7750   6.543   2.016   1.789  0.0341  0.7408 -2.5794
   21MOL   H111 7751   6.404   1.920   1.782 -1.7989 -0.3341  1.0163
   21MOL   H112 7752   6.390   2.073   1.724  1.2927  0.8566 -0.3649
   21MOL   H113 7753   6.382   2.287   1.933  1.3374  1.6058  0.3986
   21MOL   H114 7754   6.436   2.224   2.085  0.2239  1.4173  0.0281
   21MOL   H115 7755   6.552   2.221   1.957  0.2944  0.6466  0.6875
   21MOL   C116 7756   5.963   2.009   1.782  0.5807 -0.0668  0.0603
   21MOL   C117 7757   5.925   1.911   1.892  0.9449 -0.0645 -0.7891
   21MOL   O118 7758   5.827   1.966   1.980 -0.1749 -0.1869  0.0490
   21MOL   C119 7759   5.840   1.919   2.118  0.1602 -0.3707 -0.5787
   21MOL   C120 7760   5.723   1.974   2.189  0.6267 -0.2687  0.2646
   21MOL   C121 7761   5.729   2.128   2.173  0.2375  0.5399 -0.2925
   21MOL   C122 7762   5.587   1.927   2.143  0.8546 -0.4775  0.4500
   21MOL   H123 7763   5.884   2.041   1.713  1.6373  0.2287 -1.0222
   21MOL   H124 7764   6.031   1.953   1.718  1.5920  0.0004  1.0629
   21MOL   H125 7765   6.013   1.881   1.949  0.6229  0.4219 -0.0229
   21MOL   H126 7766   5.933   1.961   2.157 -0.1062 -0.2250 -0.0914
   21MOL   H127 7767   5.848   1.812   2.135 -1.2059 -0.4838 -0.5891
   21MOL   H128 7768   5.734   1.953   2.296  1.1325 -1.2008  0.0284
   21MOL   H129 7769   5.674   2.185   2.248 -0.4453 -2.0111  1.2116
   21MOL   H130 7770   5.682   2.154   2.078 -0.4320 -1.6219 -0.5759
   21MOL   H131 7771   5.834   2.154   2.162  0.5109 -0.7029 -0.7217
   21MOL   H132 7772   5.575   1.820   2.160 -0.3331 -0.7346 -1.7989
   21MOL   H133 7773   5.501   1.977   2.188 -0.4387 -1.5587 -0.7763
   21MOL   H134 7774   5.570   1.946   2.037  0.6656 -1.2023  0.3508
   21MOL   C135 7775   5.848   1.784   1.844  0.2058  0.2084  0.0754
   21MOL   C136 7776   5.916   1.704   1.733  0.0994  0.0397 -0.5721
   21MOL   O137 7777   6.035   1.646   1.795 -0.2348 -0.6354  0.3241
   21MOL   C138 7778   6.143   1.612   1.710 -0.8220  0.5445  0.7690
   21MOL   C139 7779   6.232   1.507   1.779  0.0055  0.3954  0.0735
   21MOL   C140 7780   6.296   1.566   1.909  0.1382  0.1537  0.7216
   21MOL   C141 7781   6.166   1.370   1.793 -0.4230  1.3527  0.5297
   21MOL   H142 7782   5.844   1.717   1.930 -1.3026  0.4477  0.2030
   21MOL   H143 7783   5.745   1.811   1.820 -0.2782 -2.0469 -0.5254
   21MOL   H144 7784   5.937   1.771   1.651 -1.1815 -0.4877 -1.3490
   21MOL   H145 7785   6.203   1.701   1.693  1.5923 -1.2327 -0.3428
   21MOL   H146 7786   6.108   1.578   1.613  0.3790  0.6604  0.2895
   21MOL   H147 7787   6.319   1.494   1.715  0.5267  0.2653  0.8076
   21MOL   H148 7788   6.221   1.576   1.987 -0.6883 -0.5917  0.0283
   21MOL   H149 7789   6.342   1.664   1.894  2.4299 -0.7583  1.5487
   21MOL   H150 7790   6.372   1.496   1.945  0.4170 -0.0071 -0.1419
   21MOL   H151 7791   6.172   1.324   1.695 -0.7407  0.0572  1.0986
   21MOL   H152 7792   6.221   1.311   1.867  0.4520  2.1347  0.5062
   21MOL   H153 7793   6.059   1.373   1.818  0.0247  1.4930  2.5245
   21MOL   C154 7794   5.810   1.599   1.677 -0.0421  0.0423 -0.0657
   21MOL   C155 7795   5.775   1.638   1.534  0.2642 -0.2606  0.6341
   21MOL   O156 7796   5.877   1.576   1.457 -0.3132 -0.7945  0.1112
   21MOL   C157 7797   5.915   1.661   1.353 -1.0279  0.1742 -0.2817
   21MOL   C158 7798   5.987   1.574   1.242 -0.1068  0.5865 -0.6168
   21MOL   C159 7799   6.018   1.653   1.111  0.5576  0.0602 -0.5675
   21MOL   C160 7800   6.115   1.500   1.288 -0.0244 -0.1640  0.0929
   21MOL   H161 7801   5.731   1.580   1.750  1.2664 -1.6771  0.9116
   21MOL   H162 7802   5.864   1.505   1.683  0.1851  0.2189  0.7055
   21MOL   H163 7803   5.761   1.746   1.537  3.2886  0.1435  2.2080
   21MOL   H164 7804   5.986   1.727   1.403 -1.6416 -0.5319  1.5561
   21MOL   H165 7805   5.832   1.713   1.306 -1.1470 -0.9297 -1.3101
   21MOL   H166 7806   5.912   1.499   1.219 -0.2676  0.4233  0.3996
   21MOL   H167 7807   5.923   1.657   1.058  1.2452  0.4320 -1.7868
   21MOL   H168 7808   6.088   1.595   1.051  0.4521 -0.7620  0.0961
   21MOL   H169 7809   6.066   1.751   1.126 -3.0103  1.4994  2.1598
   21MOL   H170 7810   6.099   1.455   1.386 -0.3731 -0.8245 -0.2630
   21MOL   H171 7811   6.137   1.420   1.218 -0.2216  0.1555 -0.3383
   21MOL   H172 7812   6.203   1.563   1.274 -1.2174  1.0834 -2.0920
   21MOL   C173 7813   5.650   1.565   1.485  0.4964  0.5908  0.1910
   21MOL   C174 7814   5.516   1.619   1.525 -0.1935  0.2232  0.7481
   21MOL   O175 7815   5.515   1.756   1.484  0.2094  0.7375 -0.7185
   21MOL   C176 7816   5.459   1.852   1.575 -0.1685  0.2279 -0.3849
   21MOL   C177 7817   5.448   1.988   1.513 -0.0225 -0.2778  0.0446
   21MOL   C178 7818   5.581   2.043   1.465 -0.4287 -0.0552  0.5435
   21MOL   C179 7819   5.334   1.984   1.409 -0.8267 -0.4317 -0.2080
   21MOL   H180 7820   5.658   1.558   1.376 -0.7711  0.4912  0.0957
   21MOL   H181 7821   5.666   1.460   1.507 -0.3921  0.2642 -0.6617
   21MOL   H182 7822   5.513   1.615   1.634  0.1498 -0.5434  0.7341
   21MOL   H183 7823   5.516   1.853   1.668 -0.8303  1.4350  0.0278
   21MOL   H184 7824   5.361   1.819   1.611  0.0689  1.4612  1.5259
   21MOL   H185 7825   5.410   2.054   1.591  0.9711  1.3026 -0.7620
   21MOL   H186 7826   5.646   2.034   1.552 -0.4790 -3.6215  0.2554
   21MOL   H187 7827   5.636   1.982   1.393 -0.0578  3.6671 -2.5285
   21MOL   H188 7828   5.574   2.146   1.429 -0.7923 -0.9619 -2.0424
   21MOL   H189 7829   5.252   1.952   1.473 -0.0565  3.3944  2.8535
   21MOL   H190 7830   5.357   1.921   1.323  1.5031  0.8489 -0.5823
   21MOL   H191 7831   5.315   2.086   1.374  2.4222  0.1521 -0.4794
   21MOL   C192 7832   5.405   1.536   1.452 -0.2118 -0.1872 -0.3561
   21MOL   C193 7833   5.264   1.548   1.527  0.2482 -0.0797 -0.0961
   21MOL   O194 7834   5.279   1.508   1.661 -0.1998  0.2424  0.2266
   21MOL   C195 7835   5.177   1.549   1.753 -0.5190  0.2136  0.2512
   21MOL   C196 7836   5.220   1.526   1.896 -0.2674 -0.6324 -0.8162
   21MOL   C197 7837   5.101   1.553   2.003  0.3635  0.0126 -0.8098
   21MOL   C198 7838   5.344   1.617   1.924  0.2352 -0.1092 -0.1583
   21MOL   H199 7839   5.434   1.431   1.445 -1.0927 -0.2415 -4.3686
   21MOL   H200 7840   5.395   1.557   1.346  3.0824  0.0849 -0.6331
   21MOL   H201 7841   5.234   1.653   1.532 -3.8593 -1.0569 -1.8067
   21MOL   H202 7842   5.088   1.493   1.723 -0.6905  1.1510 -1.0483
   21MOL   H203 7843   5.175   1.657   1.735 -0.1715  0.0773 -0.6320
   21MOL   H204 7844   5.244   1.421   1.909  2.9497 -0.0039 -1.4212
   21MOL   H205 7845   5.148   1.558   2.101  0.1349  1.5765 -0.7562
   21MOL   H206 7846   5.050   1.646   1.976 -1.2084 -0.1421  1.4312
   21MOL   H207 7847   5.031   1.470   2.006 -0.3461  0.6413  0.7149
   21MOL   H208 7848   5.427   1.579   1.864  1.8395  0.7287  1.5190
   21MOL   H209 7849   5.346   1.721   1.894  1.4097 -0.0790 -0.0095
   21MOL   H210 7850   5.367   1.619   2.030  0.3185  0.2986 -0.1856
   21MOL   C211 7851   5.155   1.465   1.453 -0.2530 -0.9815  0.1015
   21MOL   C212 7852   5.158   1.486   1.300 -0.7429  0.1436  0.0122
   21MOL   O213 7853   5.044   1.444   1.227 -0.6222 -0.2297  0.6209
   21MOL   C214 7854   4.984   1.327   1.276  0.1758  0.1830  0.3679
   21MOL   C215 7855   4.873   1.298   1.170 -0.2894  0.0840  0.2917
   21MOL   C216 7856   4.916   1.260   1.022 -0.0065 -0.0898  0.2581
   21MOL   C217 7857   4.761   1.207   1.222 -0.1563 -0.3857 -0.3787
   21MOL   H218 7858   5.060   1.511   1.482 -0.3278 -0.3386 -1.1460
   21MOL   H219 7859   5.162   1.358   1.475  0.2983 -1.1266 -0.7617
   21MOL   H220 7860   5.239   1.424   1.262 -0.5355 -0.1137  0.8710
   21MOL   H221 7861   4.931   1.337   1.371  1.6478  0.4964  1.1601
   21MOL   H222 7862   5.058   1.248   1.281 -0.0152 -0.0368 -0.1957
   21MOL   H223 7863   4.825   1.395   1.154  0.6229  0.5508  0.3476
   21MOL   H224 7864   4.949   1.156   1.025 -1.4604 -0.6500 -1.8283
   21MOL   H225 7865   4.830   1.259   0.955  0.9229 -1.3591 -0.9317
   21MOL   H226 7866   4.990   1.328   0.981  0.1692 -1.1528 -1.1965
   21MOL   H227 7867   4.675   1.212   1.155  2.1560  1.1435 -3.3571
   21MOL   H228 7868   4.717   1.248   1.313  1.2012  1.6633 -0.6050
   21MOL   H229 7869   4.803   1.106   1.232 -0.0092 -0.7642 -4.0708
   21MOL   C230 7870   5.165   1.641   1.249 -0.5846  0.0315  0.8680
   21MOL   C231 7871   5.189   1.653   1.097  0.4208 -0.4845 -0.3036
   21MOL   O232 7872   5.118   1.775   1.071 -0.1288 -0.1319  0.2200
   21MOL   C233 7873   5.021   1.772   0.972  0.6290  0.5089 -0.0357
   21MOL   C234 7874   4.963   1.918   0.964 -0.1180 -0.6233  1.0971
   21MOL   C235 7875   4.854   1.923   0.850  0.7050 -0.4916  0.8590
   21MOL   C236 7876   4.903   1.962   1.097 -0.2222 -0.3397 -0.4831
   21MOL   H237 7877   5.228   1.713   1.301 -0.0285  0.2628 -0.1165
   21MOL   H238 7878   5.067   1.685   1.264 -0.1647  2.0624 -2.0984
   21MOL   H239 7879   5.147   1.569   1.043 -2.2030  2.0341 -2.3435
   21MOL   H240 7880   5.070   1.740   0.880  2.8900 -0.3122  1.4082
   21MOL   H241 7881   4.942   1.703   1.002 -0.0948  2.0393  1.6717
   21MOL   H242 7882   5.038   1.991   0.933 -1.0531 -0.1921 -0.2408
   21MOL   H243 7883   4.769   1.859   0.872  0.1921  0.2514  1.0697
   21MOL   H244 7884   4.897   1.878   0.761  0.9798  0.9359  0.2605
   21MOL   H245 7885   4.828   2.028   0.841  1.0405 -0.3535  1.4087
   21MOL   H246 7886   4.903   2.070   1.102 -1.6431 -0.3442 -0.1299
   21MOL   H247 7887   4.806   1.917   1.119  0.1015 -1.8013 -1.9129
   21MOL   H248 7888   4.982   1.933   1.166  0.2922  1.9336 -0.0913
   21MOL   C249 7889   5.338   1.666   1.058  0.5569 -0.3394 -0.2994
   21MOL   C250 7890   5.395   1.546   0.987  0.5394 -0.7398 -0.0120
   21MOL   O251 7891   5.388   1.423   1.058  0.1788  0.7964 -0.1081
   21MOL   C252 7892   5.514   1.386   1.104  0.1185  0.4672  0.1858
   21MOL   C253 7893   5.495   1.271   1.207 -0.3269  0.3556 -0.3697
   21MOL   C254 7894   5.635   1.227   1.257  0.3419 -0.1123  0.0758
   21MOL   C255 7895   5.411   1.153   1.155  0.4544  0.7853 -0.5040
   21MOL   H256 7896   5.397   1.701   1.143  0.6623 -0.0289 -0.4997
   21MOL   H257 7897   5.347   1.756   0.996  0.1318 -0.9456 -1.2574
   21MOL   H258 7898   5.493   1.578   0.952  0.7138  0.2439  1.3376
   21MOL   H259 7899   5.565   1.355   1.013 -0.0254  0.1351  0.2193
   21MOL   H260 7900   5.559   1.472   1.153 -0.4537  0.2037  1.1737
   21MOL   H261 7901   5.433   1.316   1.285  2.3089  0.5834  1.6883
   21MOL   H262 7902   5.693   1.319   1.255 -0.9299  0.6689 -2.2552
   21MOL   H263 7903   5.695   1.166   1.190  1.2539  2.5622 -1.6211
   21MOL   H264 7904   5.627   1.180   1.355  0.4124  0.2078  0.2354
   21MOL   H265 7905   5.473   1.096   1.084  2.3650 -0.0827  1.7928
   21MOL   H266 7906   5.387   1.093   1.242  0.9000 -0.5541 -1.2927
   21MOL   H267 7907   5.317   1.183   1.108  0.9271  1.8164 -0.8180
   21MOL   C268 7908   5.323   1.530   0.850 -0.1080 -0.5715  0.3729
   21MOL   C269 7909   5.411   1.459   0.751  0.4583  0.8817 -0.1128
   21MOL   O270 7910   5.525   1.548   0.721  0.0082 -0.1399  0.0455
   21MOL   C271 7911   5.646   1.470   0.681  0.7753 -0.0828  0.4139
   21MOL   C272 7912   5.764   1.575   0.655 -0.6692 -0.1220 -0.3103
   21MOL   C273 7913   5.822   1.625   0.791 -0.0698 -1.0559 -0.3339
   21MOL   C274 7914   5.861   1.520   0.546  0.2352 -0.4439  0.1323
   21MOL   H275 7915   5.291   1.627   0.812 -0.3307 -0.5016  0.7354
   21MOL   H276 7916   5.234   1.472   0.874  0.5067 -1.1888  1.1947
   21MOL   H277 7917   5.440   1.364   0.795  1.8072  1.5299  0.4281
   21MOL   H278 7918   5.678   1.401   0.758  1.7028  0.2439  0.3297
   21MOL   H279 7919   5.633   1.406   0.593 -3.0877  1.8171 -0.5101
   21MOL   H280 7920   5.718   1.662   0.607 -2.4899 -1.7294 -1.5527
   21MOL   H281 7921   5.864   1.540   0.845  4.1089  1.8349  1.1735
   21MOL   H282 7922   5.742   1.660   0.856 -0.9441  0.3974 -2.1189
   21MOL   H283 7923   5.908   1.691   0.786 -1.1541  0.3986 -0.2021
   21MOL   H284 7924   5.810   1.490   0.455 -0.0837  1.6605 -0.4068
   21MOL   H285 7925   5.914   1.433   0.585  0.0945 -0.0574  1.2206
   21MOL   H286 7926   5.940   1.591   0.524 -0.4550  0.3849  0.3190
   21MOL   C287 7927   5.335   1.439   0.622  0.3909  0.1090  0.0168
   21MOL   C288 7928   5.252   1.316   0.603  0.5448 -0.8439  0.0927
   21MOL   O289 7929   5.334   1.201   0.610  0.0030  0.3056 -0.0162
   21MOL   C290 7930   5.312   1.122   0.726 -0.5928 -0.0105 -0.0759
   21MOL   C291 7931   5.422   1.017   0.703  0.0397  0.1262 -0.4873
   21MOL   C292 7932   5.558   1.080   0.699  0.3782  0.2159  0.1006
   21MOL   C293 7933   5.399   0.932   0.574 -0.0233 -0.2042 -0.0956
   21MOL   H294 7934   5.407   1.448   0.540  0.9000 -0.3921  0.4046
   21MOL   H295 7935   5.281   1.532   0.605 -0.6316 -0.4205  0.3917
   21MOL   H296 7936   5.169   1.323   0.673  0.7873 -0.3928  0.3302
   21MOL   H297 7937   5.318   1.166   0.826  2.2720 -1.5619  0.4802
   21MOL   H298 7938   5.209   1.088   0.730 -0.9090  0.9358  0.0653
   21MOL   H299 7939   5.426   0.960   0.795 -0.0131 -2.4296 -2.0075
   21MOL   H300 7940   5.572   1.117   0.597 -0.2430 -1.2302 -0.5237
   21MOL   H301 7941   5.631   0.999   0.711 -2.5032 -2.6007 -0.5704
   21MOL   H302 7942   5.568   1.157   0.775 -0.4381  0.6389 -0.2170
   21MOL   H303 7943   5.463   0.843   0.572  0.4172  0.0150  2.4393
   21MOL   H304 7944   5.301   0.884   0.567 -0.3998  0.1937  1.9755
   21MOL   H305 7945   5.420   0.993   0.487  0.9463  1.1928  1.0905
   21MOL   C306 7946   5.196   1.296   0.457  0.0629 -0.3916  0.5101
   21MOL   C307 7947   5.114   1.164   0.440 -0.9137  0.4773 -0.5772
   21MOL   O308 7948   4.994   1.174   0.523 -0.7391 -0.1227  0.9328
   21MOL   C309 7949   4.918   1.052   0.536  0.7449  0.4029  0.2011
   21MOL   C310 7950   4.805   1.102   0.623 -0.3458  0.3767 -0.6504
   21MOL   C311 7951   4.727   0.993   0.689 -0.7615  0.2956 -0.1166
   21MOL   C312 7952   4.715   1.199   0.552 -0.0020 -0.3118  0.3636
   21MOL   H313 7953   5.281   1.288   0.389 -0.9985 -2.0668 -0.6523
   21MOL   H314 7954   5.150   1.391   0.428  1.2796  0.0305 -0.0825
   21MOL   H315 7955   5.171   1.079   0.477 -1.3265 -0.7001 -2.5791
   21MOL   H316 7956   4.973   0.973   0.587 -0.2397 -1.4122 -1.4883
   21MOL   H317 7957   4.877   1.001   0.449 -0.0339  2.0372 -0.4032
   21MOL   H318 7958   4.843   1.171   0.699 -0.5463  0.1623 -0.3562
   21MOL   H319 7959   4.676   0.945   0.605 -1.5997  0.9893 -0.0111
   21MOL   H320 7960   4.656   1.033   0.761 -0.1225 -0.9020  1.2243
   21MOL   H321 7961   4.791   0.914   0.730 -1.9758  0.0560  1.3416
   21MOL   H322 7962   4.667   1.158   0.463 -3.6512  1.5652  1.4060
   21MOL   H323 7963   4.770   1.286   0.517 -0.8625 -0.4598 -1.3748
   21MOL   H324 7964   4.634   1.236   0.615 -1.7722 -1.3134 -1.2644
   21MOL   C325 7965   5.069   1.142   0.291  0.3345 -0.1824 -0.3617
   21MOL   C326 7966   5.172   1.147   0.170  0.3135  0.6472  0.2047
   21MOL   O327 7967   5.263   1.034   0.184  0.2694  0.1265  0.9975
   21MOL   C328 7968   5.397   1.073   0.204 -0.3010  0.3429  0.3282
   21MOL   C329 7969   5.480   0.953   0.172  0.2614  0.3016 -0.1954
   21MOL   C330 7970   5.476   0.917   0.025  0.0315  0.1168  0.0138
   21MOL   C331 7971   5.620   0.977   0.219  0.2969  0.4581 -0.4066
   21MOL   H332 7972   4.997   1.218   0.261 -0.2728 -0.5969  0.0483
   21MOL   H333 7973   5.022   1.044   0.290 -0.9464  0.3997  0.7033
   21MOL   H334 7974   5.226   1.242   0.179  1.7428 -0.0959 -0.4606
   21MOL   H335 7975   5.426   1.153   0.136  1.1053 -0.4879 -0.0680
   21MOL   H336 7976   5.406   1.108   0.307 -0.4359  0.5031  0.2851
   21MOL   H337 7977   5.435   0.868   0.224  0.2824  0.2606 -0.2443
   21MOL   H338 7978   5.506   1.000   7.785  1.7642  0.0366  0.6961
   21MOL   H339 7979   5.550   0.839   0.007 -0.1298  0.1317 -0.7387
   21MOL   H340 7980   5.381   0.887   7.804 -0.1798 -0.8548  1.0657
   21MOL   H341 7981   5.661   1.076   0.195 -2.4354  1.9103  0.7139
   21MOL   H342 7982   5.628   0.984   0.327  0.9899 -0.8558 -0.3700
   21MOL   H343 7983   5.686   0.899   0.180  2.2815  1.4462  0.8405
   21MOL   C344 7984   5.096   1.122   0.040 -0.3859  0.5528  0.2122
   21MOL   C345 7985   5.181   1.128   7.736  0.0495 -0.0076  0.7677
   21MOL   O346 7986   5.098   1.087   7.628 -0.1353  0.0926 -0.2402
   21MOL   C347 7987   5.070   0.948   7.613  0.0075  0.1517 -0.0229
   21MOL   C348 7988   4.926   0.919   7.583  0.5332  0.0531 -0.1278
   21MOL   C349 7989   4.873   0.934   7.443  0.2135  0.2507 -0.6949
   21MOL   C350 7990   4.835   0.996   7.684  0.1250  0.2170 -0.5831
   21MOL   H351 7991   5.019   1.198   0.027 -1.1981 -0.2519  0.2449
   21MOL   H352 7992   5.045   1.026   0.049 -2.9575  1.6654 -1.7450
   21MOL   H353 7993   5.262   1.057   7.745 -0.4157 -0.7489 -0.7411
   21MOL   H354 7994   5.104   0.883   7.694  0.7515 -2.5580 -2.4115
   21MOL   H355 7995   5.142   0.930   7.533 -1.8875 -2.2259 -1.2240
   21MOL   H356 7996   4.901   0.814   7.598 -2.3499  0.6595 -0.4623
   21MOL   H357 7997   4.764   0.928   7.436  0.0361  1.9370  0.2866
   21MOL   H358 7998   4.918   0.867   7.371  1.2414 -0.8469  0.9202
   21MOL   H359 7999   4.893   1.039   7.420  1.2137 -0.2656 -2.2116
   21MOL   H360 8000   4.729   0.983   7.667  0.2740 -1.1747 -0.5212
   21MOL   H361 8001   4.870   0.981   7.786  1.2792  0.8537 -0.8695
   21MOL   H362 8002   4.853   1.104   7.680 -0.9023  0.3842 -0.7347
   21MOL   C363 8003   5.241   1.265   7.716  0.3514 -0.7768 -0.2910
   21MOL   C364 8004   5.327   1.270   7.592  0.0100 -0.3680  0.2071
   21MOL   O365 8005   5.380   1.395   7.554 -0.4877 -0.4143  0.0879
   21MOL   C366 8006   5.495   1.392   7.470  0.1663  0.0871 -0.0299
   21MOL   C367 8007   5.529   1.547   7.448 -0.6922 -0.3584 -0.9731
   21MOL   C368 8008   5.413   1.606   7.376  0.9257  0.3197  0.7215
   21MOL   C369 8009   5.656   1.586   7.369  0.2929  0.0662 -0.2115
   21MOL   H370 8010   5.153   1.330   7.711  0.1643 -0.9536  0.5197
   21MOL   H371 8011   5.301   1.291   7.804  1.4376 -1.0461 -0.9448
   21MOL   H372 8012   5.263   1.248   7.507  1.8147 -2.6959 -0.5762
   21MOL   H373 8013   5.584   1.352   7.519  0.3187  2.3666  1.6506
   21MOL   H374 8014   5.483   1.335   7.378  3.2314  0.2573 -0.6158
   21MOL   H375 8015   5.536   1.584   7.550  0.3715 -1.5755 -0.5952
   21MOL   H376 8016   5.407   1.576   7.272 -0.0225 -0.0023  0.8594
   21MOL   H377 8017   5.417   1.715   7.377 -2.3839  0.5028  1.8665
   21MOL   H378 8018   5.318   1.573   7.419  1.0597  1.1035  1.6462
   21MOL   H379 8019   5.676   1.692   7.379 -2.0092  0.3350  2.3498
   21MOL   H380 8020   5.649   1.555   7.265  0.9432  1.3218 -0.6341
   21MOL   H381 8021   5.749   1.535   7.396  0.5793 -0.3954 -1.9949
   21MOL   H382 8022   5.407   1.199   7.606 -1.2651 -1.9396 -0.3417
   22MOL     C1 8023   4.294   1.592   7.375 -0.0337 -0.0572 -0.1745
   22MOL     C2 8024   4.219   1.717   7.329 -0.0054  1.0097  0.5247
   22MOL     O3 8025   4.129   1.733   7.437 -0.5214  0.4037  0.4056
   22MOL     C4 8026   4.004   1.673   7.408 -0.1867  0.2394  0.2026
   22MOL     C5 8027   3.952   1.615   7.543 -0.3192  0.0636 -0.4873
   22MOL     C6 8028   3.908   1.725   7.635 -0.0170 -0.1996 -0.0664
   22MOL     C7 8029   4.058   1.519   7.604  0.2335 -0.0236  0.1048
   22MOL     H8 8030   4.355   1.616   7.462 -1.1461  2.8184 -0.1392
   22MOL     H9 8031   4.220   1.513   7.390 -0.1891  0.4705  2.1221
   22MOL    H10 8032   4.166   1.706   7.235 -1.4415  1.8294  1.2251
   22MOL    H11 8033   4.000   1.600   7.327 -0.7977  1.5627 -0.9787
   22MOL    H12 8034   3.933   1.751   7.380 -1.0963  0.2937  2.5430
   22MOL    H13 8035   3.864   1.555   7.519  0.4452 -0.8913 -0.9377
   22MOL    H14 8036   3.988   1.785   7.679 -0.7271 -0.8711  2.2343
   22MOL    H15 8037   3.839   1.783   7.574 -1.4937 -0.3055  1.4690
   22MOL    H16 8038   3.856   1.687   7.723  0.5579 -0.6300  0.0937
   22MOL    H17 8039   4.005   1.492   7.695 -1.2538 -2.1816 -1.3605
   22MOL    H18 8040   4.091   1.435   7.542 -0.4778 -1.1080  1.1834
   22MOL    H19 8041   4.155   1.561   7.633  1.2342 -1.3832 -1.1647
   22MOL    H20 8042   4.359   1.558   7.295 -0.0297  1.6946 -0.9247
   22MOL    C21 8043   4.319   1.837   7.326  0.2871  0.2351  0.1086
   22MOL    C22 8044   4.245   1.976   7.293  0.6917 -0.2242  0.7327
   22MOL    O23 8045   4.345   2.075   7.311 -0.2520  0.1122 -0.4315
   22MOL    C24 8046   4.323   2.166   7.418  0.0885  0.5376 -0.0028
   22MOL    C25 8047   4.406   2.301   7.398 -0.5440 -0.0859 -0.1060
   22MOL    C26 8048   4.371   2.392   7.287  0.2056 -0.0247 -0.1163
   22MOL    C27 8049   4.414   2.375   7.535 -0.1354 -0.0926  0.5190
   22MOL    H28 8050   4.361   1.840   7.427 -2.9111  2.0978  1.4374
   22MOL    H29 8051   4.408   1.811   7.269 -1.3376  0.5089 -2.6161
   22MOL    H30 8052   4.173   1.986   7.374 -0.3437  1.7928 -0.4114
   22MOL    H31 8053   4.341   2.115   7.512  0.1361  0.1141 -0.2436
   22MOL    H32 8054   4.217   2.193   7.416  0.0644  0.6277  1.8725
   22MOL    H33 8055   4.506   2.264   7.375 -1.5914 -2.0729 -1.5739
   22MOL    H34 8056   4.271   2.432   7.302  0.2654  0.5502 -1.1586
   22MOL    H35 8057   4.370   2.328   7.198  2.4121 -0.4015  0.0966
   22MOL    H36 8058   4.433   2.477   7.260  0.9861 -0.6413 -0.3093
   22MOL    H37 8059   4.434   2.300   7.613 -0.2503  1.1019  1.7183
   22MOL    H38 8060   4.490   2.453   7.540 -0.4262  0.4000 -2.3145
   22MOL    H39 8061   4.311   2.406   7.555 -0.0724  0.8034 -0.5459
   22MOL    C40 8062   4.182   1.999   7.152  0.7830  0.6910  0.2708
   22MOL    C41 8063   4.089   2.123   7.145  0.6767  0.2966  0.7030
   22MOL    O42 8064   3.977   2.095   7.219 -0.7986  0.7203  0.2440
   22MOL    C43 8065   3.910   2.212   7.275  0.0188  0.0414  0.2035
   22MOL    C44 8066   3.796   2.146   7.351  0.4855 -0.3292 -0.1614
   22MOL    C45 8067   3.704   2.065   7.258 -0.6236  0.6845  0.6587
   22MOL    C46 8068   3.852   2.058   7.460 -0.2344 -0.2994 -0.3771
   22MOL    H47 8069   4.124   1.912   7.120 -0.6941  0.7488  2.6509
   22MOL    H48 8070   4.259   2.013   7.077  1.0229  2.4519  0.8340
   22MOL    H49 8071   4.137   2.215   7.179 -2.4828  1.5715  1.9540
   22MOL    H50 8072   3.866   2.272   7.197 -3.3689  0.7194  2.5294
   22MOL    H51 8073   3.990   2.262   7.331 -0.7974  1.7886 -0.1821
   22MOL    H52 8074   3.734   2.229   7.386  1.0223  0.1565 -0.3536
   22MOL    H53 8075   3.758   1.987   7.205 -0.4222  1.6537 -0.5957
   22MOL    H54 8076   3.613   2.027   7.304 -0.7279 -0.0869 -0.1859
   22MOL    H55 8077   3.683   2.122   7.168  0.7107 -1.0043 -0.7521
   22MOL    H56 8078   3.920   1.982   7.422  0.4755  0.4772 -0.6932
   22MOL    H57 8079   3.774   2.016   7.523  0.1799  1.4454  1.3299
   22MOL    H58 8080   3.912   2.125   7.521 -0.7907  1.2765 -1.4915
   22MOL    C59 8081   4.045   2.140   6.996 -0.3516  0.1764 -0.8296
   22MOL    C60 8082   4.145   2.220   6.907 -0.4932  0.2938  0.1773
   22MOL    O61 8083   4.083   2.314   6.822  0.2888  0.7344 -0.1877
   22MOL    C62 8084   4.041   2.435   6.885  0.5933  0.0228  0.1253
   22MOL    C63 8085   3.960   2.516   6.779  0.6597  0.4990 -0.7688
   22MOL    C64 8086   4.024   2.540   6.643  0.4074 -0.2054  0.0854
   22MOL    C65 8087   3.826   2.440   6.755 -0.3720 -0.3360 -0.1997
   22MOL    H66 8088   3.947   2.184   6.978  0.5497  1.5274 -2.6549
   22MOL    H67 8089   4.031   2.043   6.949 -0.0283  0.2910 -1.1620
   22MOL    H68 8090   4.218   2.265   6.973  1.5683 -1.4177 -0.8722
   22MOL    H69 8091   3.980   2.418   6.974  0.8002  1.4692  0.5673
   22MOL    H70 8092   4.125   2.496   6.920  0.8806 -0.4308  0.2357
   22MOL    H71 8093   3.946   2.616   6.821 -0.0906  0.0614  0.0299
   22MOL    H72 8094   3.957   2.598   6.580 -1.1550 -2.0352  0.0283
   22MOL    H73 8095   4.052   2.445   6.598  2.5801  1.1525 -1.5333
   22MOL    H74 8096   4.120   2.592   6.640  0.9246 -1.1956 -3.2078
   22MOL    H75 8097   3.761   2.494   6.687  2.2923  2.3696 -0.7146
   22MOL    H76 8098   3.850   2.339   6.723  2.9593  0.2403  0.3039
   22MOL    H77 8099   3.772   2.434   6.850 -0.7384  0.0027 -0.3877
   22MOL    C78 8100   4.228   2.125   6.812 -0.1771 -0.3531  0.1833
   22MOL    C79 8101   4.333   2.212   6.729  0.1821 -0.5816  0.1202
   22MOL    O80 8102   4.402   2.307   6.812 -0.2447 -0.0373 -0.1278
   22MOL    C81 8103   4.451   2.424   6.735 -0.3753 -0.0444 -0.3153
   22MOL    C82 8104   4.567   2.491   6.806 -0.2668  0.2245 -0.6964
   22MOL    C83 8105   4.690   2.401   6.818  0.5102  0.0649 -0.5910
   22MOL    C84 8106   4.522   2.542   6.945 -0.2548 -0.2949 -0.7108
   22MOL    H85 8107   4.165   2.071   6.741 -1.3649 -0.6040  1.4089
   22MOL    H86 8108   4.291   2.054   6.867 -0.4146 -0.6125  0.1181
   22MOL    H87 8109   4.277   2.267   6.654 -0.5797 -1.1658  0.2552
   22MOL    H88 8110   4.477   2.394   6.633 -0.9042 -0.6684 -0.2678
   22MOL    H89 8111   4.365   2.489   6.723 -2.2260 -2.2821  0.3328
   22MOL    H90 8112   4.604   2.582   6.758  0.6288  0.6262  0.7372
   22MOL    H91 8113   4.685   2.353   6.720 -1.0347 -3.8547  1.2988
   22MOL    H92 8114   4.676   2.327   6.897  2.6522  1.1735  0.8931
   22MOL    H93 8115   4.787   2.449   6.830  0.2542  0.0892  1.5735
   22MOL    H94 8116   4.593   2.544   7.027  0.6479 -1.3809 -1.4519
   22MOL    H95 8117   4.440   2.476   6.974  1.3730 -1.5284  1.2064
   22MOL    H96 8118   4.481   2.643   6.944  1.6401  0.5003  0.7043
   22MOL    C97 8119   4.441   2.126   6.662 -1.4665  0.9658  0.2574
   22MOL    C98 8120   4.395   2.020   6.560 -0.2650  0.0119  0.0396
   22MOL    O99 8121   4.489   1.914   6.556  0.4851  0.5913  0.9460
   22MOL   C100 8122   4.494   1.822   6.667  0.0941 -0.4342  0.3610
   22MOL   C101 8123   4.611   1.720   6.667  0.1718 -0.4521 -0.7217
   22MOL   C102 8124   4.591   1.610   6.569  0.7026  0.4797  0.4133
   22MOL   C103 8125   4.749   1.782   6.658  0.5903 -0.4299 -0.3826
   22MOL   H104 8126   4.501   2.094   6.747 -0.9002  2.2936  0.3655
   22MOL   H105 8127   4.517   2.184   6.610 -1.5509 -0.6281 -1.7395
   22MOL   H106 8128   4.304   1.973   6.597 -0.5216  0.9588  0.6272
   22MOL   H107 8129   4.396   1.775   6.660 -0.7944  1.5720 -1.3970
   22MOL   H108 8130   4.496   1.878   6.761  1.2149  1.0650 -0.5274
   22MOL   H109 8131   4.605   1.673   6.766 -1.3767 -0.8524 -0.9861
   22MOL   H110 8132   4.662   1.530   6.551  0.2041  0.4607 -1.4812
   22MOL   H111 8133   4.493   1.571   6.596  0.6702  0.3071  0.0436
   22MOL   H112 8134   4.579   1.655   6.471 -1.4975  0.5677  0.7006
   22MOL   H113 8135   4.826   1.707   6.642  1.4016  0.6216 -1.4181
   22MOL   H114 8136   4.760   1.854   6.577  1.9993  0.9820  1.0146
   22MOL   H115 8137   4.772   1.827   6.754 -0.3951 -0.3570 -0.1772
   22MOL   C116 8138   4.368   2.075   6.420 -0.7798 -0.3538 -0.2430
   22MOL   C117 8139   4.290   1.990   6.316  0.0413 -0.0754 -0.2082
   22MOL   O118 8140   4.154   1.994   6.360  0.4526 -0.2390  0.5013
   22MOL   C119 8141   4.084   1.877   6.327 -0.0404  0.2072  0.2982
   22MOL   C120 8142   3.966   1.879   6.419 -0.1845 -0.7829  0.5371
   22MOL   C121 8143   3.865   1.772   6.395 -0.1696  0.4643 -0.7336
   22MOL   C122 8144   3.998   1.885   6.568  0.5108  0.0445 -0.1562
   22MOL   H123 8145   4.317   2.171   6.432  0.5075  0.2195  0.8749
   22MOL   H124 8146   4.469   2.098   6.385  0.0578 -1.3616  1.4549
   22MOL   H125 8147   4.324   1.887   6.321 -2.3224 -0.8214  1.2595
   22MOL   H126 8148   4.142   1.789   6.356  0.2454 -0.3240 -1.7806
   22MOL   H127 8149   4.056   1.882   6.222 -0.6877 -1.2167  0.3987
   22MOL   H128 8150   3.921   1.974   6.390  0.4374 -0.3724  0.9096
   22MOL   H129 8151   3.907   1.676   6.424  0.6919  0.8506 -0.6933
   22MOL   H130 8152   3.825   1.761   6.294 -2.0954 -0.5464  0.0968
   22MOL   H131 8153   3.778   1.783   6.459 -0.7007 -2.9072 -0.7464
   22MOL   H132 8154   4.052   1.975   6.599  1.3491 -0.5151 -0.0002
   22MOL   H133 8155   3.906   1.896   6.626  0.6246  1.3999 -0.2047
   22MOL   H134 8156   4.065   1.807   6.603  0.4038  0.5426  1.1850
   22MOL   C135 8157   4.313   2.036   6.171  0.2570  0.6775 -0.2032
   22MOL   C136 8158   4.457   2.018   6.120 -0.2820 -0.3008  0.4092
   22MOL   O137 8159   4.468   1.883   6.088 -0.1963  0.3458 -0.5438
   22MOL   C138 8160   4.571   1.815   6.159  0.5231 -0.0495 -0.2277
   22MOL   C139 8161   4.598   1.678   6.093 -0.2156 -0.0044  0.0125
   22MOL   C140 8162   4.718   1.618   6.164 -0.3515 -0.3183  0.3040
   22MOL   C141 8163   4.472   1.601   6.115  0.0974 -0.3564  0.3305
   22MOL   H142 8164   4.250   1.989   6.095 -2.1239  0.3247  1.9097
   22MOL   H143 8165   4.280   2.140   6.163  0.6020  0.6635 -2.1466
   22MOL   H144 8166   4.530   2.047   6.195 -0.9882 -0.4594  1.1738
   22MOL   H145 8167   4.565   1.810   6.268 -0.0856 -0.7231 -0.2883
   22MOL   H146 8168   4.660   1.872   6.135  0.3707  0.0289 -0.5965
   22MOL   H147 8169   4.628   1.692   5.989  1.2670  0.7079  0.5220
   22MOL   H148 8170   4.809   1.677   6.178  0.5941 -1.4378 -0.9653
   22MOL   H149 8171   4.755   1.532   6.108  0.7569  0.3602 -0.0174
   22MOL   H150 8172   4.691   1.573   6.260 -0.9165 -0.5076  0.0569
   22MOL   H151 8173   4.447   1.617   6.220 -0.8238  3.9228 -0.4653
   22MOL   H152 8174   4.399   1.639   6.044  0.2042  0.2197  0.5287
   22MOL   H153 8175   4.482   1.493   6.100 -0.5916 -0.3975  0.1703
   22MOL   C154 8176   4.467   2.101   5.988 -0.7841 -0.0721  0.2393
   22MOL   C155 8177   4.604   2.098   5.912  0.3650  0.5643 -0.1253
   22MOL   O156 8178   4.558   2.066   5.782  0.1374  1.0702  0.0569
   22MOL   C157 8179   4.544   1.927   5.745 -0.1627  0.2861 -0.0166
   22MOL   C158 8180   4.581   1.892   5.600  0.0477  0.1726 -0.3626
   22MOL   C159 8181   4.561   1.747   5.574  0.1612  0.1377 -0.0514
   22MOL   C160 8182   4.504   1.978   5.495  0.4802  0.0055 -0.2833
   22MOL   H161 8183   4.452   2.202   6.028  0.9322 -1.1761  3.8225
   22MOL   H162 8184   4.390   2.079   5.914 -1.1086  1.0857  0.2119
   22MOL   H163 8185   4.664   2.020   5.959  1.7745  0.7887 -1.5024
   22MOL   H164 8186   4.440   1.901   5.767  0.2626  0.9356  3.0813
   22MOL   H165 8187   4.601   1.864   5.813 -0.6139 -2.0281 -1.7604
   22MOL   H166 8188   4.683   1.923   5.577  0.7934 -0.1798  2.2613
   22MOL   H167 8189   4.571   1.720   5.469  4.0014  1.2964 -0.0618
   22MOL   H168 8190   4.464   1.719   5.615 -0.3689 -0.4105 -1.6633
   22MOL   H169 8191   4.635   1.692   5.632  1.3357  1.6707 -0.0597
   22MOL   H170 8192   4.405   1.934   5.491  1.0897 -1.4341  0.1988
   22MOL   H171 8193   4.504   2.084   5.520 -0.3284 -0.2757  0.9291
   22MOL   H172 8194   4.553   1.966   5.398  0.0586  0.5658 -0.5693
   22MOL   C173 8195   4.672   2.241   5.903 -0.4437 -0.0648 -0.2550
   22MOL   C174 8196   4.717   2.299   6.033  0.6158  0.3806  0.5458
   22MOL   O175 8197   4.787   2.200   6.112 -0.3970  0.0228 -0.2525
   22MOL   C176 8198   4.802   2.229   6.251  0.3979  0.2943 -0.0349
   22MOL   C177 8199   4.832   2.103   6.340 -0.0814 -0.7411  0.2541
   22MOL   C178 8200   4.967   2.036   6.310 -0.4138  0.7791  0.3712
   22MOL   C179 8201   4.826   2.146   6.493 -0.3793 -0.1686 -0.1271
   22MOL   H180 8202   4.751   2.232   5.828 -1.0730 -0.3854 -0.8836
   22MOL   H181 8203   4.611   2.317   5.854 -1.3867 -0.3285  0.5087
   22MOL   H182 8204   4.620   2.324   6.076  0.5307  1.4450 -0.2305
   22MOL   H183 8205   4.708   2.276   6.281 -0.7476  0.1227 -3.2203
   22MOL   H184 8206   4.882   2.299   6.274  1.3440 -0.1112 -2.0208
   22MOL   H185 8207   4.751   2.031   6.326  1.5897 -2.4241 -1.0880
   22MOL   H186 8208   5.000   1.985   6.400  2.4622  1.7662 -0.0792
   22MOL   H187 8209   4.946   1.953   6.242  2.3512 -0.5665  1.1206
   22MOL   H188 8210   5.043   2.104   6.272 -0.2173  0.6476  0.5322
   22MOL   H189 8211   4.727   2.155   6.537  0.8884  1.9678  2.3491
   22MOL   H190 8212   4.884   2.237   6.507 -0.3638  0.1489 -2.1300
   22MOL   H191 8213   4.875   2.071   6.555 -2.2131  0.0962  1.6616
   22MOL   C192 8214   4.811   2.420   6.020 -0.2426 -0.1732  0.9503
   22MOL   C193 8215   4.743   2.554   5.995  0.3899 -0.5293  0.5312
   22MOL   O194 8216   4.638   2.577   6.089  0.1910 -0.2652  0.2767
   22MOL   C195 8217   4.681   2.604   6.223  0.3196 -0.2672  0.3848
   22MOL   C196 8218   4.569   2.683   6.301 -0.4247  0.0945  0.0815
   22MOL   C197 8219   4.625   2.783   6.406 -0.3154  0.7725 -0.0107
   22MOL   C198 8220   4.465   2.590   6.371 -0.0571  0.4866 -0.1025
   22MOL   H199 8221   4.886   2.412   5.941 -1.4478 -0.6926 -0.1597
   22MOL   H200 8222   4.881   2.441   6.101  0.6880 -1.4586  0.5044
   22MOL   H201 8223   4.821   2.629   6.007 -0.6622  0.2771  2.5343
   22MOL   H202 8224   4.774   2.660   6.223  0.4296 -0.4462 -1.1184
   22MOL   H203 8225   4.702   2.506   6.267  0.6358 -0.4733 -0.2176
   22MOL   H204 8226   4.516   2.740   6.225  0.1082  0.0598 -0.3170
   22MOL   H205 8227   4.559   2.802   6.490  1.3621 -0.4450  1.6391
   22MOL   H206 8228   4.705   2.732   6.461 -1.4358 -0.4130  0.5534
   22MOL   H207 8229   4.656   2.876   6.358  0.5020  0.6871  0.3404
   22MOL   H208 8230   4.515   2.539   6.454  1.1147 -2.7794 -2.7110
   22MOL   H209 8231   4.388   2.652   6.417  0.2044 -0.6139  1.8968
   22MOL   H210 8232   4.426   2.515   6.302  1.6803 -0.7072  0.1634
   22MOL   C211 8233   4.699   2.578   5.848  0.2806  0.0302 -0.1134
   22MOL   C212 8234   4.688   2.731   5.825 -0.2329 -0.1120  0.1470
   22MOL   O213 8235   4.666   2.740   5.689  0.1638  0.6793 -1.0174
   22MOL   C214 8236   4.782   2.790   5.618 -0.6932 -0.4380  0.1064
   22MOL   C215 8237   4.756   2.781   5.465  0.0643 -0.1113 -0.0439
   22MOL   C216 8238   4.638   2.864   5.413 -0.5592  0.2378 -0.3413
   22MOL   C217 8239   4.882   2.813   5.379  0.0568  0.1865 -0.2112
   22MOL   H218 8240   4.604   2.527   5.834  1.5144 -2.0099 -1.3675
   22MOL   H219 8241   4.772   2.537   5.778  0.6049 -1.5502  1.1246
   22MOL   H220 8242   4.779   2.786   5.852 -0.9330  0.1602  2.0249
   22MOL   H221 8243   4.868   2.729   5.648 -1.4577 -0.3017  2.6154
   22MOL   H222 8244   4.796   2.890   5.658  0.6419 -0.9709  1.0223
   22MOL   H223 8245   4.730   2.675   5.454 -1.9912  0.1300  2.1126
   22MOL   H224 8246   4.671   2.967   5.424 -2.8481  0.8469  0.9722
   22MOL   H225 8247   4.623   2.845   5.307  1.1654 -4.0263  0.0750
   22MOL   H226 8248   4.547   2.842   5.469 -0.8621  0.3631 -0.7836
   22MOL   H227 8249   4.942   2.898   5.412 -2.1060  1.4695  0.5312
   22MOL   H228 8250   4.853   2.830   5.275 -1.7391 -2.3626 -0.1821
   22MOL   H229 8251   4.941   2.721   5.378 -0.1720  0.0277  0.5816
   22MOL   C230 8252   4.564   2.800   5.889  0.0202  0.1580  0.3257
   22MOL   C231 8253   4.553   2.950   5.851  0.0128  0.5894 -0.0703
   22MOL   O232 8254   4.424   2.991   5.894 -0.0678  0.3806  0.5475
   22MOL   C233 8255   4.312   2.979   5.802  0.8448 -0.1814 -0.3748
   22MOL   C234 8256   4.184   3.027   5.871 -0.3344 -0.0220 -0.0930
   22MOL   C235 8257   4.148   2.960   6.009  0.4551  0.5191 -0.2058
   22MOL   C236 8258   4.192   3.176   5.877 -0.9622 -0.6782 -0.5926
   22MOL   H237 8259   4.576   2.795   5.998 -2.0693  2.1955  0.6762
   22MOL   H238 8260   4.475   2.742   5.868  0.5017 -0.0679 -1.1545
   22MOL   H239 8261   4.542   2.960   5.743  1.8949 -0.9315 -0.4300
   22MOL   H240 8262   4.322   3.032   5.707 -1.1812 -0.3023 -0.6781
   22MOL   H241 8263   4.285   2.876   5.779 -1.1018  0.1007  0.5412
   22MOL   H242 8264   4.099   3.014   5.805 -0.1252 -2.8838  0.1359
   22MOL   H243 8265   4.117   2.856   5.998 -0.6051  0.6716  1.1768
   22MOL   H244 8266   4.079   3.010   6.077 -0.6087 -2.4222  0.9440
   22MOL   H245 8267   4.235   2.946   6.074  0.5292  1.3196 -0.1249
   22MOL   H246 8268   4.274   3.207   5.942  0.3921  0.4249 -2.7656
   22MOL   H247 8269   4.212   3.216   5.778  0.6744  2.5296  0.9449
   22MOL   H248 8270   4.092   3.217   5.892  0.1237  1.4290  1.2154
   22MOL   C249 8271   4.668   3.037   5.909 -0.0669 -0.1262 -0.0671
   22MOL   C250 8272   4.666   3.180   5.871  0.0454 -0.3811  0.2991
   22MOL   O251 8273   4.754   3.253   5.955 -0.2791 -0.1773  0.2885
   22MOL   C252 8274   4.700   3.300   6.077  0.7102  0.6511 -0.0486
   22MOL   C253 8275   4.820   3.369   6.148 -0.0531  1.0109 -0.0146
   22MOL   C254 8276   4.887   3.474   6.065 -0.9406 -0.2281  0.0337
   22MOL   C255 8277   4.908   3.262   6.211 -0.6140 -0.0111 -0.1944
   22MOL   H256 8278   4.768   3.001   5.884 -0.9467 -0.9255 -2.5617
   22MOL   H257 8279   4.664   3.023   6.017 -0.1253  0.3729 -0.0050
   22MOL   H258 8280   4.567   3.223   5.882 -0.1269 -1.1411  1.7602
   22MOL   H259 8281   4.617   3.367   6.057  0.7634  1.2503  1.6541
   22MOL   H260 8282   4.653   3.216   6.130  1.7197  0.6409  0.8438
   22MOL   H261 8283   4.782   3.418   6.238 -0.2829 -1.8599  1.5229
   22MOL   H262 8284   4.970   3.442   6.002  1.0121  1.4400  1.7023
   22MOL   H263 8285   4.934   3.548   6.131 -2.0002 -0.0406  0.5907
   22MOL   H264 8286   4.817   3.540   6.013  3.4140  2.3480 -2.9156
   22MOL   H265 8287   4.926   3.179   6.143 -0.8454  0.0988 -0.3872
   22MOL   H266 8288   5.005   3.301   6.243  1.1608 -2.4096 -2.4827
   22MOL   H267 8289   4.856   3.203   6.286 -1.4636 -0.9421 -1.5034
   22MOL   C268 8290   4.716   3.213   5.728 -0.6850 -0.7286  0.5338
   22MOL   C269 8291   4.643   3.334   5.659 -0.1063  0.0514 -0.5539
   22MOL   O270 8292   4.690   3.335   5.526  0.2127 -0.8525 -0.3272
   22MOL   C271 8293   4.578   3.317   5.437  0.0795  0.2856 -0.1228
   22MOL   C272 8294   4.614   3.343   5.289  0.1443 -0.0510 -0.0188
   22MOL   C273 8295   4.678   3.481   5.259 -0.4377  0.1372  0.4406
   22MOL   C274 8296   4.708   3.233   5.232 -0.3454  0.0768 -0.2465
   22MOL   H275 8297   4.689   3.131   5.662  0.4402 -0.5959 -0.1110
   22MOL   H276 8298   4.824   3.230   5.731 -0.6913 -0.8514  6.4619
   22MOL   H277 8299   4.535   3.324   5.665 -0.1717  0.9068 -0.2419
   22MOL   H278 8300   4.545   3.214   5.452 -0.0421  0.3350 -0.0522
   22MOL   H279 8301   4.491   3.376   5.465 -0.2622  0.9116 -2.4065
   22MOL   H280 8302   4.518   3.326   5.240  0.4998 -0.4750 -0.5784
   22MOL   H281 8303   4.761   3.506   5.326  0.0281 -0.7268  0.1979
   22MOL   H282 8304   4.604   3.557   5.284  0.0206  1.1433 -1.2202
   22MOL   H283 8305   4.714   3.494   5.157 -1.0075 -0.9280  0.1006
   22MOL   H284 8306   4.731   3.233   5.126  1.2715 -1.1156  0.0838
   22MOL   H285 8307   4.675   3.133   5.260 -0.1482  0.3795  1.0938
   22MOL   H286 8308   4.807   3.243   5.277 -0.0975  1.6176 -1.0811
   22MOL   C287 8309   4.688   3.468   5.725 -0.0262  0.3136 -0.0612
   22MOL   C288 8310   4.612   3.596   5.689 -0.3060  0.0671 -0.1686
   22MOL   O289 8311   4.686   3.708   5.740  0.0347 -0.2783 -0.0924
   22MOL   C290 8312   4.773   3.775   5.650 -0.3931 -0.2006  0.3089
   22MOL   C291 8313   4.859   3.887   5.715 -0.5002  0.4691 -0.4264
   22MOL   C292 8314   4.946   3.821   5.819 -0.1784 -0.2191 -0.1059
   22MOL   C293 8315   4.774   3.999   5.769 -1.2085  0.1538 -0.0262
   22MOL   H294 8316   4.794   3.474   5.702 -0.1720 -0.2409 -0.8823
   22MOL   H295 8317   4.694   3.462   5.834 -0.6040 -2.6026 -0.1669
   22MOL   H296 8318   4.600   3.591   5.581  0.4773 -2.1821 -0.1797
   22MOL   H297 8319   4.845   3.709   5.601  1.5186  1.8300  0.2707
   22MOL   H298 8320   4.721   3.822   5.567 -0.0352  1.1556  0.8370
   22MOL   H299 8321   4.927   3.944   5.653  0.1459 -0.0585 -0.2088
   22MOL   H300 8322   5.034   3.774   5.777  1.8100  2.0436  1.4054
   22MOL   H301 8323   4.893   3.742   5.872  0.4728 -0.1145  0.7030
   22MOL   H302 8324   4.977   3.894   5.893  0.1218 -0.3058 -0.1473
   22MOL   H303 8325   4.848   4.061   5.819 -0.1234  1.1264 -2.7380
   22MOL   H304 8326   4.719   4.048   5.688  2.0146  1.2686 -1.6207
   22MOL   H305 8327   4.710   3.961   5.848 -1.5255 -0.1294 -0.4142
   22MOL   C306 8328   4.469   3.608   5.750 -0.3471 -0.1657  0.9652
   22MOL   C307 8329   4.357   3.694   5.672  0.4378 -0.1098 -0.1794
   22MOL   O308 8330   4.326   3.636   5.553  0.1452 -0.1479  0.4144
   22MOL   C309 8331   4.291   3.727   5.450  0.4794 -0.3140  0.3808
   22MOL   C310 8332   4.212   3.659   5.341 -0.1451 -0.6110  0.0573
   22MOL   C311 8333   4.161   3.763   5.238 -0.4090  0.0592 -0.1037
   22MOL   C312 8334   4.095   3.600   5.401  0.4086  0.1864 -0.6209
   22MOL   H313 8335   4.489   3.656   5.846  2.8585 -0.3644  0.4634
   22MOL   H314 8336   4.424   3.513   5.779 -1.1306  0.2817  1.2219
   22MOL   H315 8337   4.398   3.795   5.661  1.8287 -0.7079 -0.6690
   22MOL   H316 8338   4.383   3.769   5.411  2.8191 -2.5420  3.2486
   22MOL   H317 8339   4.234   3.814   5.483 -0.8078 -0.1985 -2.0091
   22MOL   H318 8340   4.277   3.587   5.292  0.7141  0.6851 -0.7088
   22MOL   H319 8341   4.125   3.858   5.277 -0.4711 -0.3025  0.7475
   22MOL   H320 8342   4.091   3.730   5.161  1.4274  1.5762 -2.4866
   22MOL   H321 8343   4.249   3.786   5.179  1.5268  0.6577  2.8899
   22MOL   H322 8344   4.128   3.544   5.488 -1.1572  0.9565  0.4922
   22MOL   H323 8345   4.033   3.528   5.348  0.4899 -0.4806  0.1947
   22MOL   H324 8346   4.025   3.676   5.437 -0.3541 -0.9304  0.2817
   22MOL   C325 8347   4.225   3.684   5.764  0.0525  1.5821 -0.2064
   22MOL   C326 8348   4.221   3.761   5.898 -0.6876 -0.0333  0.3991
   22MOL   O327 8349   4.249   3.897   5.878 -0.1640  0.3078  0.7768
   22MOL   C328 8350   4.382   3.940   5.916 -0.3170 -0.6230  0.0317
   22MOL   C329 8351   4.396   4.091   5.874 -0.2885 -0.1125 -0.0349
   22MOL   C330 8352   4.384   4.116   5.721  0.5330  0.0837 -0.2949
   22MOL   C331 8353   4.292   4.181   5.948  0.0997 -0.2225 -0.3552
   22MOL   H332 8354   4.215   3.577   5.780 -0.1132  1.4028 -1.4593
   22MOL   H333 8355   4.134   3.719   5.716 -0.8930  2.2701  2.0484
   22MOL   H334 8356   4.300   3.733   5.967  0.3817  2.6967  0.3548
   22MOL   H335 8357   4.384   3.923   6.024  0.1250  0.0731  0.1432
   22MOL   H336 8358   4.464   3.888   5.866  1.5492  2.0181  0.2378
   22MOL   H337 8359   4.494   4.119   5.913  0.4057 -0.9854 -1.1495
   22MOL   H338 8360   4.452   4.048   5.669 -0.5375  0.5194 -2.3032
   22MOL   H339 8361   4.282   4.100   5.686  0.8060  0.6207 -1.3456
   22MOL   H340 8362   4.407   4.220   5.700 -0.1520  0.2499 -0.2253
   22MOL   H341 8363   4.310   4.283   5.915  1.7622 -1.1857 -2.5743
   22MOL   H342 8364   4.191   4.151   5.919 -0.2171 -0.6767  1.1948
   22MOL   H343 8365   4.292   4.179   6.057  0.2801 -0.4600 -0.3588
   22MOL   C344 8366   4.094   3.737   5.983  0.3931 -0.2788 -0.2222
   22MOL   C345 8367   4.086   3.598   6.038 -0.1962  0.7216  0.0236
   22MOL   O346 8368   4.046   3.497   5.956 -0.2288 -0.0114  0.6560
   22MOL   C347 8369   3.907   3.470   5.936  0.8284 -0.0695  0.3486
   22MOL   C348 8370   3.855   3.514   5.797  0.4734 -0.0533  0.6468
   22MOL   C349 8371   3.709   3.475   5.773 -0.8022 -0.0529 -0.1836
   22MOL   C350 8372   3.939   3.453   5.677  0.0705 -0.5443 -0.4018
   22MOL   H351 8373   4.002   3.757   5.928  1.3554  1.1584 -1.3500
   22MOL   H352 8374   4.093   3.804   6.069  0.6803 -0.7475  0.1476
   22MOL   H353 8375   4.005   3.613   6.109 -2.1944 -1.2299 -1.7638
   22MOL   H354 8376   3.849   3.519   6.015  0.1943 -0.3135  0.0376
   22MOL   H355 8377   3.886   3.365   5.956 -0.5729 -0.0659 -1.0561
   22MOL   H356 8378   3.872   3.621   5.789 -1.1641  0.1786  0.0968
   22MOL   H357 8379   3.700   3.375   5.731  0.6810 -0.0374 -0.5863
   22MOL   H358 8380   3.650   3.554   5.727 -0.5316  0.2348 -0.0398
   22MOL   H359 8381   3.656   3.477   5.868 -0.2651  0.2240  0.1140
   22MOL   H360 8382   3.895   3.479   5.581 -1.1192 -0.6830  0.0945
   22MOL   H361 8383   4.043   3.482   5.692 -0.4402  1.0009  0.2964
   22MOL   H362 8384   3.940   3.345   5.687  1.8916 -0.8439 -3.2568
   22MOL   C363 8385   4.196   3.546   6.127 -0.2208 -0.0265  0.2635
   22MOL   C364 8386   4.178   3.406   6.182 -0.1747  0.9692 -0.7683
   22MOL   O365 8387   4.306   3.384   6.240  0.2780 -0.3787 -1.0400
   22MOL   C366 8388   4.302   3.271   6.319  0.8284  0.3411  0.0591
   22MOL   C367 8389   4.443   3.235   6.367  0.3761 -0.8153  0.1048
   22MOL   C368 8390   4.446   3.100   6.431 -0.2454  1.4191 -0.1968
   22MOL   C369 8391   4.489   3.347   6.460  0.2362  0.2674 -0.3802
   22MOL   H370 8392   4.291   3.534   6.073 -0.9423  1.0593 -1.3119
   22MOL   H371 8393   4.213   3.609   6.215 -2.2081  0.3472  0.3960
   22MOL   H372 8394   4.153   3.330   6.108 -2.9395  0.8938  0.1899
   22MOL   H373 8395   4.238   3.282   6.407  1.0636  0.8776  0.1600
   22MOL   H374 8396   4.257   3.193   6.257  2.2608 -1.4106  1.1980
   22MOL   H375 8397   4.512   3.246   6.283 -1.1088  2.4707 -0.7457
   22MOL   H376 8398   4.407   3.091   6.532  2.0486 -1.2842  0.5159
   22MOL   H377 8399   4.552   3.072   6.427 -0.8479 -0.6908 -3.0178
   22MOL   H378 8400   4.402   3.022   6.368 -0.6981 -0.5293  2.4594
   22MOL   H379 8401   4.427   3.369   6.547 -0.3113 -0.3680 -0.6038
   22MOL   H380 8402   4.492   3.446   6.413 -0.1681 -0.2719 -1.5663
   22MOL   H381 8403   4.590   3.321   6.488 -0.2745 -1.7144 -0.3531
   22MOL   H382 8404   4.100   3.409   6.257 -0.3162 -3.7307 -0.6286
   23MOL     C1 8405   6.920   2.849   1.858 -0.1821 -0.1110  0.4476
   23MOL     C2 8406   6.947   2.849   1.709  0.1838  0.6437  0.4093
   23MOL     O3 8407   6.895   2.955   1.637  0.3361  0.2035 -0.2199
   23MOL     C4 8408   6.793   2.907   1.544 -0.1056 -0.5292  0.7356
   23MOL     C5 8409   6.738   3.025   1.467  0.2290  0.0283  0.4394
   23MOL     C6 8410   6.599   2.987   1.410  0.4702 -0.5107  0.0153
   23MOL     C7 8411   6.844   3.070   1.367  0.6305  0.3775  0.4546
   23MOL     H8 8412   6.988   2.773   1.897  1.2130 -0.0089 -1.7060
   23MOL     H9 8413   6.948   2.944   1.904  0.2689 -1.2747  2.6440
   23MOL    H10 8414   6.927   2.753   1.663  0.4612  0.6565  0.2622
   23MOL    H11 8415   6.716   2.864   1.607 -0.8481 -1.7451 -0.9429
   23MOL    H12 8416   6.827   2.826   1.479  1.0943  0.4902  0.0694
   23MOL    H13 8417   6.711   3.105   1.536 -0.4029 -0.0254  0.2630
   23MOL    H14 8418   6.532   2.948   1.487 -1.1901  2.0233 -0.0708
   23MOL    H15 8419   6.556   3.074   1.360 -1.3218 -1.7055 -0.5890
   23MOL    H16 8420   6.596   2.912   1.330  0.9597 -2.6117  1.9018
   23MOL    H17 8421   6.842   2.994   1.289 -0.0003  1.0695 -0.2133
   23MOL    H18 8422   6.825   3.157   1.303  1.8717 -1.7330 -2.8993
   23MOL    H19 8423   6.945   3.082   1.406  1.6853 -3.5652 -0.8466
   23MOL    H20 8424   6.818   2.831   1.890  0.0507  0.3768  1.5130
   23MOL    C21 8425   7.101   2.872   1.697  0.3910  0.5814  0.3126
   23MOL    C22 8426   7.160   2.863   1.560  0.2719  0.4575 -0.4537
   23MOL    O23 8427   7.292   2.914   1.546  0.0200  0.2550  0.0038
   23MOL    C24 8428   7.303   3.059   1.523  0.3264 -0.8941  0.1537
   23MOL    C25 8429   7.447   3.102   1.549 -0.3345  0.2396 -0.8859
   23MOL    C26 8430   7.488   3.244   1.532 -0.5304  0.3573 -0.2343
   23MOL    C27 8431   7.483   3.049   1.696  0.1111 -0.1184 -0.1078
   23MOL    H28 8432   7.132   2.971   1.733  2.7845  0.5835 -1.5788
   23MOL    H29 8433   7.166   2.825   1.771  0.9470 -0.1530 -0.6323
   23MOL    H30 8434   7.081   2.898   1.494 -0.9682  3.0537  2.2431
   23MOL    H31 8435   7.227   3.108   1.583  0.2005 -0.8225 -0.0642
   23MOL    H32 8436   7.272   3.094   1.424 -0.9236 -2.4869 -0.0399
   23MOL    H33 8437   7.507   3.049   1.475  0.2521 -1.6204  0.8897
   23MOL    H34 8438   7.429   3.296   1.607 -0.2088  1.7835 -0.9460
   23MOL    H35 8439   7.454   3.294   1.440  2.0620  1.4875 -0.6262
   23MOL    H36 8440   7.593   3.272   1.535 -0.1409 -1.2305  1.6123
   23MOL    H37 8441   7.582   3.088   1.718  0.5145 -0.5615 -1.0818
   23MOL    H38 8442   7.408   3.074   1.771  1.5803  0.6686  1.1124
   23MOL    H39 8443   7.497   2.941   1.704  0.0280 -0.0147  1.5357
   23MOL    C40 8444   7.182   2.720   1.523  0.1679  0.1937 -0.5320
   23MOL    C41 8445   7.208   2.719   1.370 -0.1540  0.7978 -0.1123
   23MOL    O42 8446   7.115   2.630   1.306 -0.1558 -0.2650 -0.2826
   23MOL    C43 8447   7.000   2.692   1.254 -0.3365  0.4330  0.1626
   23MOL    C44 8448   6.910   2.586   1.191 -0.1333  0.1083  0.6343
   23MOL    C45 8449   6.838   2.508   1.309 -0.4347  1.4400 -0.1263
   23MOL    C46 8450   6.809   2.653   1.101 -0.2194  0.0507  0.3794
   23MOL    H47 8451   7.102   2.648   1.539 -0.8817  2.1151  3.2906
   23MOL    H48 8452   7.261   2.670   1.580  0.6539 -0.2612 -1.5813
   23MOL    H49 8453   7.188   2.814   1.320 -1.3108  0.2152 -0.7882
   23MOL    H50 8454   7.045   2.761   1.182  2.3385  1.1885  2.4925
   23MOL    H51 8455   6.945   2.756   1.322  1.7235  2.3167  0.1264
   23MOL    H52 8456   6.976   2.532   1.124  0.1465  1.8036 -0.5062
   23MOL    H53 8457   6.912   2.476   1.382 -2.1425  0.3665  1.1664
   23MOL    H54 8458   6.773   2.575   1.366 -1.5751  2.0652 -2.1281
   23MOL    H55 8459   6.783   2.417   1.286  0.3646  0.6615  0.9905
   23MOL    H56 8460   6.852   2.688   1.007 -0.6365 -3.3701 -1.1839
   23MOL    H57 8461   6.753   2.735   1.145 -0.2475  0.0299  0.3832
   23MOL    H58 8462   6.736   2.575   1.078 -0.1344  0.0209  0.2091
   23MOL    C59 8463   7.352   2.676   1.335  0.0110  0.7202 -0.2629
   23MOL    C60 8464   7.369   2.611   1.194 -0.1083 -0.5993 -0.5648
   23MOL    O61 8465   7.510   2.576   1.205  0.5796  0.0443 -0.2877
   23MOL    C62 8466   7.554   2.466   1.122 -0.2330 -0.4056  0.4752
   23MOL    C63 8467   7.688   2.406   1.172 -0.5597  0.1956  0.1228
   23MOL    C64 8468   7.788   2.527   1.196 -0.5061  0.1861 -0.1690
   23MOL    C65 8469   7.687   2.327   1.303 -0.0664  0.1506  0.3779
   23MOL    H66 8470   7.377   2.603   1.411 -1.4756 -0.6629 -1.0876
   23MOL    H67 8471   7.419   2.762   1.340  0.3444  0.5760 -1.8972
   23MOL    H68 8472   7.308   2.522   1.179 -0.5193 -0.2380 -1.0863
   23MOL    H69 8473   7.476   2.392   1.104 -0.7626  0.6002 -1.5210
   23MOL    H70 8474   7.576   2.503   1.022  0.7095  2.0096  1.5453
   23MOL    H71 8475   7.727   2.339   1.095 -3.8280 -2.5604  0.7826
   23MOL    H72 8476   0.059   2.477   1.218 -1.1045 -1.0902 -0.3969
   23MOL    H73 8477   7.775   2.597   1.279  1.6083 -1.4926  1.6687
   23MOL    H74 8478   7.804   2.588   1.107 -0.7119  1.1525  0.4526
   23MOL    H75 8479   7.786   2.296   1.338  1.0382  1.2121 -1.7218
   23MOL    H76 8480   7.639   2.391   1.378 -2.5285 -0.3548 -0.7275
   23MOL    H77 8481   7.632   2.233   1.297  1.3104 -0.5732 -1.3953
   23MOL    C78 8482   7.345   2.725   1.094 -0.4289  0.1563 -0.6265
   23MOL    C79 8483   7.349   2.670   0.948  0.3400 -0.4409 -0.7491
   23MOL    O80 8484   7.260   2.558   0.935 -0.0234 -0.0206 -0.2696
   23MOL    C81 8485   7.278   2.475   0.820 -0.1018 -0.0841  0.4444
   23MOL    C82 8486   7.156   2.371   0.814 -0.2043 -0.0508 -0.0554
   23MOL    C83 8487   7.020   2.445   0.827  0.2208  0.5404 -0.6889
   23MOL    C84 8488   7.168   2.274   0.935  0.1520 -0.0871  0.7670
   23MOL    H85 8489   7.419   2.805   1.103 -0.7630  0.5482 -1.3168
   23MOL    H86 8490   7.250   2.775   1.112 -0.5863  0.4409 -2.1821
   23MOL    H87 8491   7.451   2.640   0.922  0.3410 -1.1633  0.0498
   23MOL    H88 8492   7.294   2.532   0.728  2.6957 -0.8960  0.3860
   23MOL    H89 8493   7.370   2.418   0.830 -1.2706 -1.9311  0.8579
   23MOL    H90 8494   7.153   2.311   0.723 -2.0848 -2.0120  1.2648
   23MOL    H91 8495   7.024   2.518   0.908 -0.4087 -3.6251  3.2954
   23MOL    H92 8496   6.929   2.386   0.833 -0.0003  1.0043  0.7392
   23MOL    H93 8497   7.010   2.496   0.731  0.2699  1.4865 -0.1984
   23MOL    H94 8498   7.107   2.184   0.921 -0.2350  0.2474  0.2721
   23MOL    H95 8499   7.152   2.314   1.035 -0.9952 -1.8822  1.3332
   23MOL    H96 8500   7.272   2.244   0.947  0.5319  0.8891  0.0133
   23MOL    C97 8501   7.307   2.782   0.852  0.4449 -0.6761 -0.3160
   23MOL    C98 8502   7.411   2.892   0.831  0.0951  0.1111 -0.4356
   23MOL    O99 8503   7.443   2.976   0.937 -0.3443  0.3858 -0.2214
   23MOL   C100 8504   7.582   3.013   0.937  0.2181  0.1129 -1.4707
   23MOL   C101 8505   7.588   3.087   1.069 -0.2740 -0.1320  0.6742
   23MOL   C102 8506   7.481   3.193   1.097  0.6925  0.3590 -0.0779
   23MOL   C103 8507   7.612   3.000   1.195 -0.1776  0.1825 -0.1073
   23MOL   H104 8508   7.214   2.830   0.881  0.3741 -0.8776 -0.2118
   23MOL   H105 8509   7.285   2.737   0.755 -0.2429  1.4750 -1.1897
   23MOL   H106 8510   7.505   2.845   0.800 -0.9144 -1.2007 -1.5443
   23MOL   H107 8511   7.609   3.069   0.847  0.9993 -1.8989 -2.5237
   23MOL   H108 8512   7.654   2.932   0.946 -1.6792 -1.4424  0.0525
   23MOL   H109 8513   7.673   3.153   1.055  0.0032 -0.8735 -1.1623
   23MOL   H110 8514   7.509   3.250   1.185 -1.6099  0.6005  0.5273
   23MOL   H111 8515   7.470   3.260   1.012 -2.0431  0.5861  0.4231
   23MOL   H112 8516   7.382   3.150   1.115  1.6563 -1.6733  0.5415
   23MOL   H113 8517   7.637   3.067   1.278  0.0823  0.1718 -0.1758
   23MOL   H114 8518   7.517   2.953   1.222  0.6121 -0.4496  1.6890
   23MOL   H115 8519   7.684   2.918   1.186 -0.1634 -0.1192  2.3840
   23MOL   C116 8520   7.362   3.001   0.732  0.4800  0.1573  0.6838
   23MOL   C117 8521   7.438   2.990   0.601 -0.1136  0.2263 -0.2372
   23MOL   O118 8522   7.404   2.869   0.532  0.1346 -0.6320  0.1799
   23MOL   C119 8523   7.478   2.846   0.412 -0.6289 -0.2162 -0.5686
   23MOL   C120 8524   7.538   2.706   0.409 -0.4766  0.0966 -0.6685
   23MOL   C121 8525   7.435   2.601   0.444 -0.3800 -1.1669  0.8092
   23MOL   C122 8526   7.610   2.665   0.285  0.1949 -0.2185  0.4208
   23MOL   H123 8527   7.255   2.992   0.716  0.6486 -2.5147  0.8117
   23MOL   H124 8528   7.369   3.101   0.773 -0.7190  1.0967 -1.3033
   23MOL   H125 8529   7.542   2.991   0.635 -0.4870  1.3350  0.9021
   23MOL   H126 8530   7.542   2.930   0.386 -1.9410  1.0392  0.1535
   23MOL   H127 8531   7.405   2.857   0.332 -2.0789 -0.2443  0.7162
   23MOL   H128 8532   7.614   2.691   0.486  1.9589  1.9837 -2.6135
   23MOL   H129 8533   7.385   2.623   0.539 -0.4774  0.1483  0.4624
   23MOL   H130 8534   7.469   2.498   0.451  1.4785 -0.5922  0.2370
   23MOL   H131 8535   7.347   2.596   0.380  0.3845 -1.7638 -0.2019
   23MOL   H132 8536   7.652   2.751   0.233  2.4896 -2.4805 -1.5943
   23MOL   H133 8537   7.672   2.579   0.309 -0.9952 -0.7065  1.7650
   23MOL   H134 8538   7.553   2.644   0.194  1.0867 -0.1039 -0.1791
   23MOL   C135 8539   7.394   3.110   0.514  0.2535  0.7364 -0.1924
   23MOL   C136 8540   7.464   3.239   0.557  1.0450 -0.3436 -0.4131
   23MOL   O137 8541   7.599   3.218   0.511  0.0287  0.3443  0.1992
   23MOL   C138 8542   7.698   3.315   0.557  0.5294 -0.0622  0.2171
   23MOL   C139 8543   7.824   3.269   0.488  0.4057  0.1019  0.4649
   23MOL   C140 8544   0.038   3.138   0.565  0.3413 -0.0080 -0.3611
   23MOL   C141 8545   7.817   3.248   0.329  0.0195  0.1411 -0.9047
   23MOL   H142 8546   7.418   3.097   0.409  0.3603  0.4511 -0.1311
   23MOL   H143 8547   7.285   3.112   0.514  0.1804 -1.0581  1.9470
   23MOL   H144 8548   7.478   3.251   0.665  0.5253  1.4915 -0.5358
   23MOL   H145 8549   7.708   3.304   0.665  1.6467  1.4789  0.2871
   23MOL   H146 8550   7.675   3.416   0.525  3.5871  0.3551 -0.8475
   23MOL   H147 8551   0.086   3.335   0.495  2.6528 -2.5600 -1.0474
   23MOL   H148 8552   0.128   3.106   0.513  1.1044  2.5535 -0.6750
   23MOL   H149 8553   7.783   3.063   0.569  1.1013 -0.7192  2.7890
   23MOL   H150 8554   0.052   3.169   0.668 -0.6879  0.0328 -0.2324
   23MOL   H151 8555   7.788   3.340   0.279 -0.5114 -0.1553 -1.1384
   23MOL   H152 8556   0.091   3.229   0.285  1.6625  1.9758  1.8062
   23MOL   H153 8557   7.750   3.166   0.305  0.0720 -0.9040  2.3138
   23MOL   C154 8558   7.395   3.360   0.487 -0.7266 -0.8036  0.5243
   23MOL   C155 8559   7.396   3.361   0.332  0.2711 -0.1397 -0.0966
   23MOL   O156 8560   7.297   3.272   0.285  0.0144  0.5518 -0.4805
   23MOL   C157 8561   7.337   3.193   0.173 -1.2286 -0.0997  0.5432
   23MOL   C158 8562   7.210   3.125   0.131 -0.1129  0.1665  0.1260
   23MOL   C159 8563   7.228   3.063   7.813  0.2068  0.2147  0.5841
   23MOL   C160 8564   7.168   3.015   0.228  0.1500 -0.3708 -0.2643
   23MOL   H161 8565   7.442   3.452   0.523 -3.4517  0.6672  0.4677
   23MOL   H162 8566   7.294   3.385   0.520 -1.3151 -0.3145 -1.5825
   23MOL   H163 8567   7.491   3.329   0.289  0.4613  0.8811 -0.4405
   23MOL   H164 8568   7.421   3.125   0.191 -1.6175 -1.2885 -1.9598
   23MOL   H165 8569   7.357   3.260   0.090 -0.8352 -1.0003 -0.1019
   23MOL   H166 8570   7.137   3.205   0.130 -0.5938 -0.2618 -1.4760
   23MOL   H167 8571   7.307   2.988   7.811  0.0654  0.0994 -2.3691
   23MOL   H168 8572   7.267   3.146   7.753  1.5589 -0.9679 -0.2009
   23MOL   H169 8573   7.138   3.023   7.768 -0.7643  1.2732  1.5494
   23MOL   H170 8574   7.081   2.958   0.195  0.1544 -0.7690  0.4145
   23MOL   H171 8575   7.255   2.950   0.236  0.7993  0.5065 -0.0271
   23MOL   H172 8576   7.155   3.052   0.330 -1.3927  0.9106 -0.9149
   23MOL   C173 8577   7.363   3.495   0.280 -0.1728  0.0846  0.6466
   23MOL   C174 8578   7.453   3.536   0.158 -0.0427 -0.5881  0.3645
   23MOL   O175 8579   7.390   3.650   0.092  0.5610  0.1536 -0.3749
   23MOL   C176 8580   7.317   3.613   7.801 -0.2457 -0.4628  0.2035
   23MOL   C177 8581   7.260   3.740   7.743 -0.1574 -1.3670 -0.1851
   23MOL   C178 8582   7.371   3.838   7.716  0.3527  0.7640 -0.2416
   23MOL   C179 8583   7.173   3.709   7.622  0.4067 -0.1812 -0.3951
   23MOL   H180 8584   7.262   3.497   0.240 -0.1447 -2.3834  0.4005
   23MOL   H181 8585   7.357   3.581   0.347 -0.4007  1.9027 -1.6381
   23MOL   H182 8586   7.465   3.444   0.100  1.4535  0.4615 -1.0097
   23MOL   H183 8587   7.228   3.557   0.004 -0.3970 -1.2871 -1.8279
   23MOL   H184 8588   7.380   3.559   7.731 -0.3355  0.9521 -1.0141
   23MOL   H185 8589   7.200   3.780   0.001 -1.7468 -2.6171 -0.7234
   23MOL   H186 8590   7.409   3.881   7.808 -1.4991  0.7556  0.5348
   23MOL   H187 8591   7.462   3.792   7.676  0.5144  1.0453 -0.2034
   23MOL   H188 8592   7.341   3.923   7.654 -2.3312 -0.3177 -0.4811
   23MOL   H189 8593   7.099   3.638   7.658  1.3950  0.4404  2.9887
   23MOL   H190 8594   7.235   3.671   7.541  0.4740 -1.5028  0.2590
   23MOL   H191 8595   7.118   3.798   7.591 -0.6417 -0.1127  1.6290
   23MOL   C192 8596   7.588   3.591   0.206  0.6267  0.1037 -0.7735
   23MOL   C193 8597   7.676   3.595   0.079 -0.2988  0.2098  0.4895
   23MOL   O194 8598   7.708   3.458   0.049  0.1396 -0.7082 -0.0985
   23MOL   C195 8599   7.709   3.438   7.732  0.0298 -0.0532  0.1784
   23MOL   C196 8600   7.736   3.290   7.691 -0.5038 -0.6057  0.2583
   23MOL   C197 8601   7.632   3.203   7.761 -0.6042 -0.0883 -0.2692
   23MOL   C198 8602   0.056   3.251   7.711  0.1346 -0.2023 -0.1318
   23MOL   H199 8603   7.637   3.539   0.289  2.8287  1.9824 -0.8439
   23MOL   H200 8604   7.565   3.689   0.248 -0.3722 -0.2593 -0.4750
   23MOL   H201 8605   7.615   3.644   0.003 -1.1140 -1.9222 -0.2586
   23MOL   H202 8606   7.781   3.497   7.676 -1.8215  0.4552 -1.7574
   23MOL   H203 8607   7.618   3.472   7.681 -0.0473  1.2650  1.1596
   23MOL   H204 8608   7.715   3.272   7.586 -0.4144  0.5174  0.0471
   23MOL   H205 8609   7.527   3.208   7.733 -0.8499  1.0273  0.7875
   23MOL   H206 8610   7.657   3.098   7.747  1.9936  0.3301  0.9806
   23MOL   H207 8611   7.628   3.233   0.042  0.5666  0.3088 -0.3280
   23MOL   H208 8612   0.063   3.143   7.723  0.3460 -0.3112 -1.1923
   23MOL   H209 8613   0.117   3.285   7.628  0.6426 -0.2317  0.2275
   23MOL   H210 8614   0.096   3.298   7.801  1.1896 -0.9217 -0.2241
   23MOL   C211 8615   7.818   3.659   0.107 -0.3362  0.5541  0.3436
   23MOL   C212 8616   0.007   3.808   0.124 -0.1833  0.4633  0.1974
   23MOL   O213 8617   0.152   3.830   0.132  0.1830 -0.3640  0.7044
   23MOL   C214 8618   0.207   3.823   0.267 -0.5459 -0.3266 -0.0544
   23MOL   C215 8619   0.360   3.824   0.261  0.8888 -0.3293  0.7413
   23MOL   C216 8620   0.416   3.704   0.188 -0.2084 -0.7191 -0.5631
   23MOL   C217 8621   0.406   3.957   0.195 -0.2346  0.2774  0.6472
   23MOL   H218 8622   0.064   3.640   0.026 -0.1095 -1.4546  0.9773
   23MOL   H219 8623   0.032   3.605   0.194  1.8160  1.1227 -0.2397
   23MOL   H220 8624   7.779   3.834   0.216  0.7234  1.5862  0.4082
   23MOL   H221 8625   0.171   3.735   0.320 -0.8944 -0.0958  0.0914
   23MOL   H222 8626   0.168   3.910   0.319 -1.3957 -1.5009  1.3354
   23MOL   H223 8627   0.399   3.818   0.363  2.4904 -0.3837  0.1516
   23MOL   H224 8628   0.521   3.683   0.209 -0.3652  0.9325  2.0010
   23MOL   H225 8629   0.360   3.612   0.208 -1.9994  0.4586 -0.0381
   23MOL   H226 8630   0.409   3.717   0.080  0.7649  1.7211 -0.3567
   23MOL   H227 8631   0.508   3.953   0.157  0.0431 -0.2096  1.4320
   23MOL   H228 8632   0.420   4.049   0.252 -1.4738  1.4324 -0.8865
   23MOL   H229 8633   0.351   3.985   0.105 -2.4907 -0.1614  1.8427
   23MOL   C230 8634   7.770   3.896   0.011 -0.1391  0.1405 -0.7486
   23MOL   C231 8635   7.784   4.046   0.046  0.2983 -0.0319 -0.4975
   23MOL   O232 8636   7.743   4.112   7.754  0.3091  0.2676  0.0074
   23MOL   C233 8637   0.024   4.159   7.671  0.1679 -0.3194  0.1026
   23MOL   C234 8638   7.791   4.146   7.525 -0.4940 -0.1033  0.0166
   23MOL   C235 8639   7.674   4.244   7.507 -0.1404  0.0400  0.5461
   23MOL   C236 8640   0.081   4.159   7.428 -0.4644 -0.8961 -0.3626
   23MOL   H237 8641   7.667   3.871   7.810 -0.4548 -0.3432  0.9626
   23MOL   H238 8642   7.823   3.875   7.742  2.3455  1.9054  0.1967
   23MOL   H239 8643   0.054   4.091   0.074 -0.0957  1.2551 -1.2141
   23MOL   H240 8644   0.054   4.259   7.702  3.7133 -1.4125  0.4609
   23MOL   H241 8645   0.107   4.089   7.676 -0.2169 -1.0930 -3.1270
   23MOL   H242 8646   7.744   4.049   7.513  1.0284 -0.5542 -2.5854
   23MOL   H243 8647   7.623   4.238   7.410 -1.3311  2.2646  0.9878
   23MOL   H244 8648   7.698   4.349   7.522 -1.0026  0.2772  0.3055
   23MOL   H245 8649   7.591   4.214   7.571  0.6453 -1.2736  0.9607
   23MOL   H246 8650   0.142   4.071   7.447  0.3842  0.1980  2.1918
   23MOL   H247 8651   0.059   4.152   7.322 -1.2747 -1.0005 -0.1949
   23MOL   H248 8652   0.128   4.256   7.440 -1.6803 -0.2248 -0.8931
   23MOL   C249 8653   7.686   4.095   0.153  0.1567 -0.0066 -0.1585
   23MOL   C250 8654   7.687   4.251   0.199  1.0768  0.8405 -0.8139
   23MOL   O251 8655   7.596   4.253   0.314 -0.6239  0.6513 -0.2359
   23MOL   C252 8656   7.461   4.296   0.286 -1.2494  0.2329  0.7724
   23MOL   C253 8657   7.371   4.247   0.404 -0.6141  0.1080  0.1825
   23MOL   C254 8658   7.362   4.091   0.408 -0.0685 -0.1061 -0.6102
   23MOL   C255 8659   7.228   4.308   0.383 -0.6099 -0.8033  0.4856
   23MOL   H256 8660   7.720   4.055   0.249 -1.1724 -1.5400 -0.3050
   23MOL   H257 8661   7.588   4.054   0.128  0.6406 -0.8527 -0.6796
   23MOL   H258 8662   7.648   4.303   0.112  1.9647 -0.3314 -1.9265
   23MOL   H259 8663   7.451   4.404   0.274  0.5938  0.0633 -3.1649
   23MOL   H260 8664   7.436   4.253   0.190 -1.1464  2.1896 -0.1595
   23MOL   H261 8665   7.410   4.290   0.497  0.5736  1.7126 -1.0206
   23MOL   H262 8666   7.291   4.059   0.332 -0.8308  0.3456 -0.0939
   23MOL   H263 8667   7.315   4.057   0.500  1.3322  0.7763  0.4486
   23MOL   H264 8668   7.463   4.051   0.395  0.0255  0.6802 -2.4974
   23MOL   H265 8669   7.165   4.254   0.454 -1.4625 -0.3638  0.0606
   23MOL   H266 8670   7.233   4.415   0.400  2.6993 -0.7261 -0.5022
   23MOL   H267 8671   7.181   4.282   0.288  0.4393 -2.4426  0.3841
   23MOL   C268 8672   7.816   4.316   0.249  0.1716 -0.0681  0.4471
   23MOL   C269 8673   7.809   4.473   0.276 -0.1851  1.0811 -0.1892
   23MOL   O270 8674   7.797   4.537   0.146  0.1266  0.3630  0.4605
   23MOL   C271 8675   7.719   4.660   0.140  0.0901  0.1855 -0.2606
   23MOL   C272 8676   7.724   4.713   7.820  0.1462  0.9501 -0.0876
   23MOL   C273 8677   0.047   4.746   7.779  0.7834 -0.0457  0.4193
   23MOL   C274 8678   7.666   4.617   7.712 -0.5587  0.1869  0.5521
   23MOL   H275 8679   0.070   4.306   0.174 -0.4365  2.3802 -0.5571
   23MOL   H276 8680   0.026   4.266   0.340  1.4932  1.4951  0.8218
   23MOL   H277 8681   7.716   4.492   0.330 -0.5400 -2.5664  0.6309
   23MOL   H278 8682   7.618   4.634   0.172  0.0125 -1.9833 -2.1067
   23MOL   H279 8683   7.752   4.739   0.207 -1.4116 -0.3216  1.1176
   23MOL   H280 8684   7.660   4.801   0.002 -1.2413 -0.1675  2.1723
   23MOL   H281 8685   0.114   4.662   7.757  2.3773  1.7806 -1.9273
   23MOL   H282 8686   0.113   4.812   0.011  2.1458 -0.4746 -0.6378
   23MOL   H283 8687   0.046   4.798   7.683 -0.5749 -0.6247  0.1154
   23MOL   H284 8688   7.737   4.541   7.683  0.1326  1.0460 -0.0155
   23MOL   H285 8689   7.635   4.655   7.615  2.6906 -1.3189 -1.1376
   23MOL   H286 8690   7.584   4.566   7.763 -1.9516  1.1441 -0.6944
   23MOL   C287 8691   0.103   4.542   0.350 -0.2700  0.5294  0.3151
   23MOL   C288 8692   0.123   4.498   0.497  0.4667  0.2016  0.7008
   23MOL   O289 8693   0.155   4.358   0.506  0.0783  0.4431  0.3086
   23MOL   C290 8694   0.283   4.331   0.443  0.1775 -0.4742 -0.1335
   23MOL   C291 8695   0.381   4.277   0.560  0.0924  0.0759 -0.1523
   23MOL   C292 8696   0.325   4.145   0.626 -0.8636 -0.4480  0.5432
   23MOL   C293 8697   0.389   4.387   0.669 -0.1516  0.2299 -0.3817
   23MOL   H294 8698   0.102   4.651   0.352  1.9571  0.5659  1.3181
   23MOL   H295 8699   0.195   4.526   0.293  0.2482  0.9130  1.0298
   23MOL   H296 8700   0.207   4.551   0.541  1.1111  0.5978 -0.9566
   23MOL   H297 8701   0.269   4.254   0.368 -0.0690  0.1213 -0.7011
   23MOL   H298 8702   0.323   4.426   0.408  0.0378 -0.2435  0.3183
   23MOL   H299 8703   0.479   4.256   0.516 -0.0337  0.2758 -0.5345
   23MOL   H300 8704   0.392   4.096   0.697 -1.2549 -2.3878 -0.3844
   23MOL   H301 8705   0.312   4.076   0.543 -0.0924  0.3019 -0.2012
   23MOL   H302 8706   0.230   4.157   0.679 -2.1795  0.9265 -2.0063
   23MOL   H303 8707   0.385   4.484   0.621  2.8218  0.3668 -0.4171
   23MOL   H304 8708   0.314   4.362   0.745 -0.1957  0.2013 -0.4339
   23MOL   H305 8709   0.486   4.385   0.718  0.3316 -0.4651 -1.3499
   23MOL   C306 8710   7.824   4.530   0.588  0.0205 -1.0762 -0.2531
   23MOL   C307 8711   0.028   4.502   0.744 -0.3439  0.1301 -0.1199
   23MOL   O308 8712   0.110   4.610   0.791 -0.1209 -0.0729  0.0592
   23MOL   C309 8713   0.184   4.588   0.911 -0.3424 -0.3234  0.3098
   23MOL   C310 8714   0.304   4.690   0.926 -0.1558 -0.0004 -0.1305
   23MOL   C311 8715   0.397   4.657   1.051  0.1960 -0.3437  0.1752
   23MOL   C312 8716   0.251   4.834   0.929 -0.1222 -0.2316  0.2932
   23MOL   H313 8717   7.739   4.471   0.553 -0.4292 -0.1107 -0.8009
   23MOL   H314 8718   7.797   4.635   0.586  1.8595 -0.5851 -0.7647
   23MOL   H315 8719   0.090   4.413   0.753  0.6839  0.8878  0.4717
   23MOL   H316 8720   0.226   4.488   0.916  0.8235  0.1672  0.6390
   23MOL   H317 8721   0.123   4.584   1.001  0.6950 -0.7168  1.0051
   23MOL   H318 8722   0.374   4.688   0.843 -0.5113  1.3301 -0.4721
   23MOL   H319 8723   0.349   4.664   1.148 -1.6602 -1.0705 -0.6681
   23MOL   H320 8724   0.471   4.737   1.040  0.0741 -0.1983  0.4060
   23MOL   H321 8725   0.464   4.572   1.039  0.9243  0.5892 -3.1208
   23MOL   H322 8726   0.331   4.903   0.957 -1.4667  1.1006  0.9398
   23MOL   H323 8727   0.164   4.843   0.993  1.1563 -0.2033  2.0705
   23MOL   H324 8728   0.218   4.870   0.831 -1.0084 -1.6586  0.0522
   23MOL   C325 8729   7.724   4.501   0.831  0.3924 -0.4059  0.3732
   23MOL   C326 8730   7.616   4.397   0.809 -0.0116  0.0678  0.1835
   23MOL   O327 8731   7.677   4.269   0.802 -0.7201  0.6810 -0.2282
   23MOL   C328 8732   7.683   4.202   0.675 -0.0908 -0.6974  0.2619
   23MOL   C329 8733   7.760   4.070   0.703 -0.8531  0.6630  0.9201
   23MOL   C330 8734   7.678   3.973   0.793  1.0778  0.2808  0.7018
   23MOL   C331 8735   7.799   4.006   0.564  0.2682  0.4551  0.0776
   23MOL   H332 8736   7.671   4.596   0.822  0.9267 -0.1581 -0.2271
   23MOL   H333 8737   7.750   4.498   0.936 -0.5845 -0.8366  0.6094
   23MOL   H334 8738   7.557   4.425   0.722 -1.8060  2.2139  2.0059
   23MOL   H335 8739   7.581   4.189   0.639 -0.0807  2.2965 -1.0719
   23MOL   H336 8740   7.725   4.266   0.597 -1.4645  0.9420  0.8249
   23MOL   H337 8741   0.028   4.099   0.753 -1.3993 -0.1741  2.4608
   23MOL   H338 8742   7.575   3.994   0.764  2.2620  2.5845 -2.0184
   23MOL   H339 8743   7.716   3.872   0.778  1.0242  0.0287  2.1298
   23MOL   H340 8744   7.689   3.996   0.899  0.1962 -0.6895  1.0196
   23MOL   H341 8745   0.051   4.063   0.513  1.4235  0.3241  1.6188
   23MOL   H342 8746   0.012   3.904   0.562  2.2651  1.1972 -0.6453
   23MOL   H343 8747   7.705   3.996   0.510 -0.0193 -1.8603  0.9650
   23MOL   C344 8748   7.510   4.386   0.920 -0.1022 -0.0053  0.3992
   23MOL   C345 8749   7.413   4.257   0.907  0.0578  0.2729 -0.2035
   23MOL   O346 8750   7.321   4.238   1.017 -0.4760  0.3627  0.4086
   23MOL   C347 8751   7.373   4.142   1.108  0.3625 -0.0042 -0.0375
   23MOL   C348 8752   7.269   4.146   1.221 -0.0386 -0.1203  1.2051
   23MOL   C349 8753   7.300   4.076   1.353  0.2179 -0.5066 -0.7328
   23MOL   C350 8754   7.128   4.096   1.172 -0.5612  0.1182  0.6255
   23MOL   H351 8755   7.441   4.470   0.928 -1.2654 -1.1054  2.4823
   23MOL   H352 8756   7.554   4.381   1.020 -2.4728  0.5353  1.5242
   23MOL   H353 8757   7.468   4.164   0.900  0.6931  0.7199 -1.2886
   23MOL   H354 8758   7.474   4.169   1.136  0.4470 -0.9566  0.5840
   23MOL   H355 8759   7.386   4.042   1.067  2.4529  0.6512 -1.0355
   23MOL   H356 8760   7.258   4.251   1.248  0.2390 -0.0792  1.1486
   23MOL   H357 8761   7.283   3.969   1.352 -0.5494 -0.3803 -2.3850
   23MOL   H358 8762   7.229   4.105   1.431  1.3449 -2.3360  1.0493
   23MOL   H359 8763   7.399   4.093   1.396  0.0397 -4.0789  1.2934
   23MOL   H360 8764   7.128   3.992   1.140  1.2002  0.3474 -0.1794
   23MOL   H361 8765   7.055   4.106   1.253 -0.1174 -0.8980  1.1587
   23MOL   H362 8766   7.105   4.154   1.083  2.2680  0.5582  0.1264
   23MOL   C363 8767   7.313   4.275   0.791  0.4958  0.0235  0.0380
   23MOL   C364 8768   7.221   4.158   0.763 -1.3281  0.0061  0.6596
   23MOL   O365 8769   7.292   4.038   0.746 -0.3200  0.0340  0.4073
   23MOL   C366 8770   7.204   3.932   0.740  0.1416  0.1593 -0.2193
   23MOL   C367 8771   7.287   3.801   0.726  0.0383  0.2630  0.1824
   23MOL   C368 8772   7.374   3.789   0.597 -0.4753 -0.1155  0.1745
   23MOL   C369 8773   7.187   3.689   0.726  0.5218  0.4112  0.5875
   23MOL   H370 8774   7.253   4.362   0.818  1.2783 -0.1231  2.3344
   23MOL   H371 8775   7.361   4.291   0.694  0.5525 -0.2934  0.0135
   23MOL   H372 8776   7.161   4.181   0.676  0.5489 -2.7417 -1.4591
   23MOL   H373 8777   7.135   3.921   0.823  0.8374  0.5963  0.4208
   23MOL   H374 8778   7.145   3.938   0.648  0.4233 -2.9335 -0.6840
   23MOL   H375 8779   7.356   3.788   0.810 -1.6545  0.3673  1.6090
   23MOL   H376 8780   7.411   3.687   0.583  0.7372  0.3480 -0.0428
   23MOL   H377 8781   7.445   3.871   0.589  0.4630 -0.8575  0.8433
   23MOL   H378 8782   7.310   3.814   0.512 -0.1486 -0.6630 -0.2430
   23MOL   H379 8783   7.149   3.663   0.825 -0.9516  2.9197  0.7110
   23MOL   H380 8784   7.230   3.596   0.689 -1.2684  0.3214 -1.3483
   23MOL   H381 8785   7.104   3.722   0.663  0.0253 -2.4510 -0.3337
   23MOL   H382 8786   7.160   4.137   0.851  0.5031 -2.0127  1.5211
   24MOL     C1 8787   3.232   6.731   6.948 -0.9740 -0.7031  0.4452
   24MOL     C2 8788   3.364   6.680   6.885 -0.0324 -0.1655  0.0048
   24MOL     O3 8789   3.417   6.781   6.801 -0.0528  0.6862  0.4910
   24MOL     C4 8790   3.369   6.775   6.668 -0.4431 -0.2779 -1.1298
   24MOL     C5 8791   3.446   6.869   6.574  0.7054 -0.8400 -0.2957
   24MOL     C6 8792   3.595   6.828   6.546  0.3249 -0.4519  0.1054
   24MOL     C7 8793   3.449   7.019   6.615  0.8440 -0.5076  1.0612
   24MOL     H8 8794   3.183   6.648   6.998 -2.1806 -1.1503 -1.4640
   24MOL     H9 8795   3.249   6.812   7.019 -0.7551  1.1457 -1.6422
   24MOL    H10 8796   3.346   6.583   6.839  1.8570  0.0560 -1.2649
   24MOL    H11 8797   3.264   6.800   6.655 -0.5187 -1.5698 -3.0742
   24MOL    H12 8798   3.383   6.674   6.631  2.4036 -0.7834  1.1500
   24MOL    H13 8799   3.390   6.860   6.481 -0.4478 -0.2783  0.3362
   24MOL    H14 8800   3.608   6.732   6.496  1.0079  1.0782 -2.7256
   24MOL    H15 8801   3.628   6.900   6.472  0.7932 -0.6437  0.1225
   24MOL    H16 8802   3.661   6.832   6.634  0.1198  1.1647  0.1985
   24MOL    H17 8803   3.353   7.069   6.625 -0.0774 -2.0030  0.0012
   24MOL    H18 8804   3.486   7.017   6.717  3.9180 -1.6600 -0.0016
   24MOL    H19 8805   3.513   7.079   6.551 -0.4133  1.2514  1.4059
   24MOL    H20 8806   3.170   6.777   6.871 -1.3358 -2.1671 -0.1381
   24MOL    C21 8807   3.470   6.660   6.998  0.1344  0.7292  0.2016
   24MOL    C22 8808   3.430   6.558   7.103 -1.0818 -0.3313 -0.3417
   24MOL    O23 8809   3.394   6.438   7.035  0.1739  0.3230 -0.1898
   24MOL    C24 8810   3.296   6.366   7.105  0.1264  0.0702  0.5727
   24MOL    C25 8811   3.290   6.214   7.058  0.1431  0.7967 -0.3739
   24MOL    C26 8812   3.206   6.206   6.924  0.0895  0.3589  0.2364
   24MOL    C27 8813   3.426   6.146   7.042 -0.1192  0.0614  0.2782
   24MOL    H28 8814   3.565   6.624   6.958 -0.4325 -0.7982  0.2106
   24MOL    H29 8815   3.486   6.756   7.048 -1.3112 -0.3146  2.7766
   24MOL    H30 8816   3.346   6.608   7.152  0.3027  3.0270 -1.2147
   24MOL    H31 8817   3.195   6.398   7.080 -0.9715 -1.5648  2.7476
   24MOL    H32 8818   3.302   6.374   7.213 -0.4045 -3.6800  0.9567
   24MOL    H33 8819   3.229   6.155   7.127 -0.2898  1.2420 -0.3740
   24MOL    H34 8820   3.246   6.274   6.849  0.4234 -1.3136 -1.1505
   24MOL    H35 8821   3.104   6.236   6.947 -0.2037  0.4434 -1.1124
   24MOL    H36 8822   3.196   6.102   6.892 -0.6444 -0.1138  1.9523
   24MOL    H37 8823   3.427   6.041   7.014 -0.6651  0.3259 -0.7600
   24MOL    H38 8824   3.480   6.198   6.963 -0.1362 -1.2388 -0.6145
   24MOL    H39 8825   3.480   6.169   7.133 -0.5717  0.4532  0.4515
   24MOL    C40 8826   3.539   6.524   7.204 -0.1877  0.6239  0.0035
   24MOL    C41 8827   3.584   6.627   7.317  0.3016 -0.2320 -0.3649
   24MOL    O42 8828   3.460   6.692   7.359  0.1243 -0.7151  0.0297
   24MOL    C43 8829   3.375   6.621   7.445  1.0849  0.0103  0.0781
   24MOL    C44 8830   3.245   6.701   7.467 -0.4386  0.2519  0.1659
   24MOL    C45 8831   3.168   6.745   7.335  0.0987  0.6246  0.0156
   24MOL    C46 8832   3.148   6.616   7.560 -0.1597  0.6168 -0.1770
   24MOL    H47 8833   3.624   6.500   7.140 -0.3989  1.2853 -0.5333
   24MOL    H48 8834   3.511   6.427   7.244 -0.4142 -0.2750 -2.2581
   24MOL    H49 8835   3.627   6.574   7.402 -1.6753 -1.9506 -0.3965
   24MOL    H50 8836   3.429   6.618   7.539  1.1785 -0.4652  0.0108
   24MOL    H51 8837   3.355   6.516   7.423 -0.3177  0.5499 -1.3028
   24MOL    H52 8838   3.274   6.794   7.517 -1.6513  1.6376 -1.6097
   24MOL    H53 8839   3.083   6.811   7.354  0.6105  0.9058  1.4042
   24MOL    H54 8840   3.243   6.798   7.276  0.4623 -0.5346 -0.5800
   24MOL    H55 8841   3.143   6.657   7.276  1.6968  0.9670 -1.1994
   24MOL    H56 8842   3.105   6.533   7.504  0.4019  1.4936 -1.9548
   24MOL    H57 8843   3.068   6.669   7.611 -2.5716 -2.5138 -0.5684
   24MOL    H58 8844   3.207   6.575   7.642 -0.8514  1.9521  0.9997
   24MOL    C59 8845   3.690   6.728   7.266  0.3184  0.1388  0.5566
   24MOL    C60 8846   3.830   6.655   7.252 -0.3798 -0.2483 -0.9661
   24MOL    O61 8847   3.903   6.644   7.376  0.2023 -0.1051 -0.0281
   24MOL    C62 8848   4.012   6.554   7.386 -0.1345  0.7157 -0.1633
   24MOL    C63 8849   4.076   6.561   7.527  0.3344  0.7422  0.3509
   24MOL    C64 8850   3.966   6.523   7.632  0.1110  0.4959 -0.2292
   24MOL    C65 8851   4.191   6.459   7.533  0.4701 -0.3812  0.6239
   24MOL    H66 8852   3.710   6.816   7.328  3.3268  0.1443 -0.3309
   24MOL    H67 8853   3.652   6.768   7.172 -0.2913  1.3066  1.2921
   24MOL    H68 8854   3.822   6.557   7.205  0.2214  0.0923 -1.7955
   24MOL    H69 8855   3.979   6.452   7.363 -0.0919  0.5402  0.5535
   24MOL    H70 8856   4.089   6.566   7.310  0.7030  0.8674  0.7104
   24MOL    H71 8857   4.109   6.665   7.539  1.5015  0.4453 -0.1825
   24MOL    H72 8858   3.929   6.425   7.603 -0.2407  1.2085 -2.3348
   24MOL    H73 8859   3.886   6.597   7.637  0.1370  0.5263 -0.2629
   24MOL    H74 8860   4.007   6.525   7.732 -1.1453 -1.8877  0.3630
   24MOL    H75 8861   4.155   6.365   7.492  0.4155  0.3340 -1.0300
   24MOL    H76 8862   4.272   6.493   7.467 -1.0229 -0.5615 -1.3712
   24MOL    H77 8863   4.230   6.440   7.632  0.0297  1.6082  1.2079
   24MOL    C78 8864   3.916   6.747   7.161 -0.3739 -0.1345  0.4264
   24MOL    C79 8865   3.895   6.725   7.005  0.1253  0.4672  0.7901
   24MOL    O80 8866   3.942   6.834   6.927  0.0208  0.2650  0.0213
   24MOL    C81 8867   3.847   6.932   6.888  0.1931 -0.0271  0.3916
   24MOL    C82 8868   3.911   7.040   6.808  0.2494  0.0936  0.4512
   24MOL    C83 8869   3.963   6.986   6.670  1.2468 -0.4109 -0.4733
   24MOL    C84 8870   4.022   7.102   6.889  0.4675 -0.2548 -0.3764
   24MOL    H85 8871   4.024   6.736   7.173  0.1416  1.6057 -2.0587
   24MOL    H86 8872   3.878   6.844   7.193  0.7151  0.3641  0.2421
   24MOL    H87 8873   3.791   6.703   6.981  0.9221  0.2101 -2.7177
   24MOL    H88 8874   3.765   6.880   6.839  1.8693 -0.5959 -1.8609
   24MOL    H89 8875   3.802   6.983   6.974  1.5866 -1.6327  2.1064
   24MOL    H90 8876   3.845   7.125   6.791  0.3170  0.0011 -0.3131
   24MOL    H91 8877   3.889   6.921   6.624  2.1164 -1.4008 -0.4843
   24MOL    H92 8878   4.049   6.923   6.693 -1.7397 -3.9677  1.4087
   24MOL    H93 8879   4.016   7.060   6.610 -1.3998  0.6561 -1.5902
   24MOL    H94 8880   3.977   7.135   6.983  0.5500 -2.1525  0.3500
   24MOL    H95 8881   4.074   7.182   6.836  0.4204 -1.8871 -2.9491
   24MOL    H96 8882   4.100   7.037   6.929  2.7803  1.9414 -1.1493
   24MOL    C97 8883   3.981   6.605   6.952  0.1882 -0.0940 -0.5170
   24MOL    C98 8884   3.965   6.558   6.804 -0.8974 -0.0456  0.4033
   24MOL    O99 8885   3.837   6.486   6.804  0.3549 -0.1922 -0.1773
   24MOL   C100 8886   3.761   6.497   6.687  0.6786 -0.3067 -0.9128
   24MOL   C101 8887   3.631   6.417   6.693 -0.1013  0.8531  0.6465
   24MOL   C102 8888   3.556   6.419   6.558 -0.1521  0.5501  0.5317
   24MOL   C103 8889   3.670   6.273   6.728 -0.2033  0.7311  0.3591
   24MOL   H104 8890   3.957   6.512   7.004  0.4723 -0.5267 -1.1567
   24MOL   H105 8891   4.087   6.617   6.972 -0.4025  0.4135  2.6242
   24MOL   H106 8892   3.959   6.650   6.746  2.5270 -0.6508 -0.9802
   24MOL   H107 8893   3.806   6.451   6.600 -2.8204 -0.1843 -2.8885
   24MOL   H108 8894   3.741   6.602   6.665 -0.1241 -0.5454 -1.3065
   24MOL   H109 8895   3.573   6.471   6.768 -0.1753  1.2474  0.3087
   24MOL   H110 8896   3.618   6.380   6.477  2.2484  0.7920  2.1659
   24MOL   H111 8897   3.459   6.370   6.558  0.4199 -0.5994  0.1527
   24MOL   H112 8898   3.529   6.523   6.542  0.2098  0.6623  0.6305
   24MOL   H113 8899   3.759   6.236   6.677 -1.3172 -0.0911 -1.0104
   24MOL   H114 8900   3.697   6.271   6.834  0.5720 -2.3582  0.1568
   24MOL   H115 8901   3.582   6.211   6.715 -1.3070  2.7101 -1.8265
   24MOL   C116 8902   4.075   6.455   6.755  0.2358  0.3230 -0.0438
   24MOL   C117 8903   4.221   6.506   6.745 -0.5485  0.4848  0.6019
   24MOL   O118 8904   4.315   6.406   6.696 -0.2651 -0.0464  0.4057
   24MOL   C119 8905   4.304   6.280   6.751  0.1500 -0.1319 -0.3670
   24MOL   C120 8906   4.420   6.203   6.696  0.3893 -0.2131 -0.4518
   24MOL   C121 8907   4.556   6.276   6.734 -0.5244  0.1969  0.3743
   24MOL   C122 8908   4.418   6.058   6.731 -0.2014  0.8733 -0.2518
   24MOL   H123 8909   4.070   6.371   6.824  2.5189  3.0906  3.6876
   24MOL   H124 8910   4.055   6.425   6.653 -0.0608  1.1235 -0.2253
   24MOL   H125 8911   4.268   6.528   6.840  0.2524  1.2743  0.0372
   24MOL   H126 8912   4.210   6.230   6.729 -1.0309  0.9081  2.0848
   24MOL   H127 8913   4.306   6.278   6.860 -0.5591  2.3493 -0.2754
   24MOL   H128 8914   4.403   6.209   6.588 -3.1846 -2.5821 -0.1418
   24MOL   H129 8915   4.571   6.285   6.841 -0.8434  1.6301  0.3103
   24MOL   H130 8916   4.548   6.379   6.699 -0.2385 -0.1110 -0.6111
   24MOL   H131 8917   4.638   6.223   6.687 -0.1612  0.0386  1.1782
   24MOL   H132 8918   4.336   6.021   6.669 -0.2670 -0.6228  0.7045
   24MOL   H133 8919   4.512   6.013   6.697 -0.4801 -0.2099  0.3756
   24MOL   H134 8920   4.411   6.034   6.837 -0.0599  1.3219 -0.1416
   24MOL   C135 8921   4.242   6.629   6.660  0.4871 -0.0995  0.1425
   24MOL   C136 8922   4.232   6.610   6.500  0.0130 -0.1817  0.0853
   24MOL   O137 8923   4.089   6.580   6.476  0.0845 -0.3050  0.2854
   24MOL   C138 8924   4.056   6.504   6.356  0.3057 -0.7953 -0.7880
   24MOL   C139 8925   3.976   6.599   6.269  0.0632  0.0349  0.3405
   24MOL   C140 8926   3.934   6.532   6.135  0.4210 -0.1594 -0.2979
   24MOL   C141 8927   3.849   6.671   6.328  0.1110  0.1829 -0.3570
   24MOL   H142 8928   4.173   6.703   6.700  0.1493 -0.7280  0.7355
   24MOL   H143 8929   4.345   6.664   6.674  0.0583 -0.0524  3.6999
   24MOL   H144 8930   4.286   6.516   6.485  0.0286  0.0962 -1.6378
   24MOL   H145 8931   3.986   6.432   6.397 -1.5517  0.3976 -1.7442
   24MOL   H146 8932   4.136   6.455   6.301  1.9870  1.0966 -0.1090
   24MOL   H147 8933   4.043   6.682   6.247  0.3019 -0.2909 -0.1879
   24MOL   H148 8934   3.875   6.595   6.070 -0.2508 -1.4784 -0.9893
   24MOL   H149 8935   3.877   6.439   6.148  0.9852 -0.5403 -0.5273
   24MOL   H150 8936   4.019   6.507   6.072 -0.4748  1.5147 -2.1839
   24MOL   H151 8937   3.809   6.747   6.261  1.0721  0.7356 -0.3089
   24MOL   H152 8938   3.776   6.593   6.352  0.4013 -0.1235 -0.4565
   24MOL   H153 8939   3.869   6.729   6.418  0.9846 -0.5902 -0.0381
   24MOL   C154 8940   4.280   6.737   6.420  0.5358  0.6432 -0.5633
   24MOL   C155 8941   4.422   6.786   6.443 -0.8513  0.1305 -0.4480
   24MOL   O156 8942   4.514   6.676   6.413 -0.3022 -0.1345 -0.1301
   24MOL   C157 8943   4.610   6.654   6.517  0.0330 -0.0312  0.5355
   24MOL   C158 8944   4.728   6.578   6.440 -0.4474 -0.5130  0.1419
   24MOL   C159 8945   4.682   6.443   6.385  0.0175  0.0346 -0.0967
   24MOL   C160 8946   4.793   6.658   6.329 -0.5015  0.1618  0.0986
   24MOL   H161 8947   4.209   6.815   6.447 -0.2817 -0.0753 -0.6190
   24MOL   H162 8948   4.262   6.721   6.314 -0.1402 -0.7568 -0.2368
   24MOL   H163 8949   4.427   6.819   6.547  0.1117  1.0448 -0.7755
   24MOL   H164 8950   4.573   6.578   6.586  0.2243 -2.1580 -1.6475
   24MOL   H165 8951   4.654   6.744   6.559  1.3564  0.4160 -1.6989
   24MOL   H166 8952   4.804   6.553   6.513 -0.2000  0.7705  0.3230
   24MOL   H167 8953   4.604   6.472   6.314  1.7159  1.8492 -1.2757
   24MOL   H168 8954   4.639   6.391   6.470 -0.3523  1.8486  0.8483
   24MOL   H169 8955   4.754   6.373   6.343  0.1195  0.7844 -1.1986
   24MOL   H170 8956   4.888   6.608   6.312 -1.0529 -0.9074  0.1040
   24MOL   H171 8957   4.735   6.661   6.236 -1.1593 -0.3580  0.4906
   24MOL   H172 8958   4.800   6.763   6.358  0.0015  0.2549 -0.3443
   24MOL   C173 8959   4.469   6.900   6.347 -0.3991 -0.1918 -0.4873
   24MOL   C174 8960   4.389   7.036   6.336  0.9563 -0.7759  0.4332
   24MOL   O175 8961   4.250   7.025   6.293  0.5665 -0.2459 -0.0058
   24MOL   C176 8962   4.188   7.138   6.234 -0.2383  0.2812 -0.5264
   24MOL   C177 8963   4.057   7.092   6.176  0.3799  0.0533  0.1560
   24MOL   C178 8964   3.966   7.028   6.275 -0.4635  0.3800 -0.1309
   24MOL   C179 8965   3.974   7.203   6.098 -0.0014 -0.0452 -0.5316
   24MOL   H180 8966   4.569   6.926   6.381 -1.4548  2.3429  0.8678
   24MOL   H181 8967   4.466   6.854   6.249 -0.1534 -0.4071 -0.3932
   24MOL   H182 8968   4.432   7.100   6.259 -1.2457 -1.1480 -1.1678
   24MOL   H183 8969   4.255   7.188   6.164 -0.6344  0.5972 -0.6842
   24MOL   H184 8970   4.170   7.222   6.301  3.4886  0.3547  0.5131
   24MOL   H185 8971   4.084   7.024   6.095  0.5214  1.0629 -0.6494
   24MOL   H186 8972   3.933   7.089   6.360 -1.3425  0.3407 -0.4398
   24MOL   H187 8973   3.871   6.997   6.230 -1.5688  1.7202  1.1976
   24MOL   H188 8974   4.018   6.947   6.327 -1.7860 -1.1231 -1.0974
   24MOL   H189 8975   4.033   7.256   6.023 -1.9625  0.4746 -1.7586
   24MOL   H190 8976   3.949   7.287   6.162  1.0935 -1.7123  2.1694
   24MOL   H191 8977   3.887   7.171   6.040  0.2082 -0.5463 -0.5708
   24MOL   C192 8978   4.385   7.114   6.471 -0.1255  0.5243 -0.4459
   24MOL   C193 8979   4.512   7.198   6.497 -0.1542 -0.3445  0.2841
   24MOL   O194 8980   4.545   7.195   6.635  0.1718  0.7500 -0.1237
   24MOL   C195 8981   4.617   7.076   6.662  0.5143  0.9451  0.8226
   24MOL   C196 8982   4.624   7.049   6.818 -0.8892  0.7274  0.1446
   24MOL   C197 8983   4.489   7.013   6.877 -0.1999  0.2593 -0.3150
   24MOL   C198 8984   4.681   7.176   6.882  0.1474 -0.1398  0.1222
   24MOL   H199 8985   4.358   7.052   6.556  1.2931 -0.6461 -0.8266
   24MOL   H200 8986   4.297   7.179   6.466 -2.0366 -1.6174  3.4343
   24MOL   H201 8987   4.588   7.159   6.429  0.2058  1.7508 -0.5387
   24MOL   H202 8988   4.719   7.089   6.627  0.4457 -1.8424 -0.5625
   24MOL   H203 8989   4.579   6.986   6.613  1.3305  0.4726  1.0292
   24MOL   H204 8990   4.694   6.968   6.840 -2.6299 -0.6871  0.5067
   24MOL   H205 8991   4.432   6.944   6.814 -0.4026 -0.5021  0.6966
   24MOL   H206 8992   4.491   6.950   6.966 -0.6096 -2.7613 -2.3619
   24MOL   H207 8993   4.432   7.105   6.886 -0.4323  0.1768 -0.9223
   24MOL   H208 8994   4.780   7.200   6.845  0.8407 -1.4685  1.1012
   24MOL   H209 8995   4.610   7.257   6.863 -0.3048 -1.0075 -2.1362
   24MOL   H210 8996   4.691   7.171   6.990  0.4636  2.0708  0.2257
   24MOL   C211 8997   4.481   7.343   6.452 -0.7447  0.2254 -0.3998
   24MOL   C212 8998   4.596   7.446   6.468  0.1699  0.4736  0.3005
   24MOL   O213 8999   4.669   7.451   6.346 -0.8709 -0.1467  0.7000
   24MOL   C214 9000   4.807   7.480   6.365 -0.1679  1.2360  0.4644
   24MOL   C215 9001   4.865   7.513   6.227  0.5413 -0.0692  0.0216
   24MOL   C216 9002   4.826   7.652   6.188 -0.3550  0.4539 -0.3015
   24MOL   C217 9003   5.020   7.501   6.225 -0.0497  0.2550 -0.0056
   24MOL   H218 9004   4.399   7.381   6.512  0.9636 -1.9168  3.5341
   24MOL   H219 9005   4.445   7.349   6.350 -2.6848  2.0103  0.3770
   24MOL   H220 9006   4.663   7.405   6.544  0.0681 -0.1157  0.0765
   24MOL   H221 9007   4.862   7.396   6.408 -2.1789  0.0958  0.8422
   24MOL   H222 9008   4.826   7.560   6.436  0.8585  0.1561  1.4437
   24MOL   H223 9009   4.839   7.437   6.153 -1.9145  0.0404  0.7408
   24MOL   H224 9010   4.822   7.685   6.084  0.9679 -0.6687 -0.7250
   24MOL   H225 9011   4.724   7.676   6.215 -0.7077  1.1526 -2.1360
   24MOL   H226 9012   4.893   7.723   6.238  0.0840  0.5723 -1.0434
   24MOL   H227 9013   5.062   7.401   6.232  1.5778  0.9393  0.3090
   24MOL   H228 9014   5.064   7.538   6.318 -1.2876 -1.6472  1.3869
   24MOL   H229 9015   5.064   7.553   6.140  0.5701  0.0653  0.2000
   24MOL   C230 9016   4.538   7.582   6.496  0.4358  0.7238  0.1688
   24MOL   C231 9017   4.538   7.621   6.643  0.0088  0.2736  0.0796
   24MOL   O232 9018   4.671   7.659   6.683  0.3182 -0.1971 -0.3429
   24MOL   C233 9019   4.745   7.589   6.781 -1.0093  0.4816  0.0812
   24MOL   C234 9020   4.878   7.659   6.802 -0.1222 -0.2203 -0.2972
   24MOL   C235 9021   4.939   7.615   6.931  0.1031 -0.0141 -0.4428
   24MOL   C236 9022   4.974   7.635   6.683  0.2620  0.1065  0.0132
   24MOL   H237 9023   4.437   7.590   6.458  0.3210 -0.3350  0.2500
   24MOL   H238 9024   4.592   7.653   6.432 -0.9702 -0.3540 -2.2761
   24MOL   H239 9025   4.503   7.533   6.697  3.7434 -1.2060  0.2661
   24MOL   H240 9026   4.689   7.565   6.872 -2.2511  2.9832  0.0072
   24MOL   H241 9027   4.763   7.489   6.739 -0.1381  0.8615 -0.4512
   24MOL   H242 9028   4.848   7.764   6.805 -1.5251 -0.6467  1.2111
   24MOL   H243 9029   4.967   7.511   6.918 -0.6399 -0.4906  1.6330
   24MOL   H244 9030   4.886   7.639   7.023  1.0670  0.3748  0.0183
   24MOL   H245 9031   5.035   7.662   6.956 -0.6985 -0.1095  2.9884
   24MOL   H246 9032   5.073   7.681   6.681  0.3723 -0.1601 -1.6655
   24MOL   H247 9033   4.984   7.529   6.657  0.4104  0.1250 -0.0027
   24MOL   H248 9034   4.930   7.687   6.599 -1.9955 -2.0497 -0.2058
   24MOL   C249 9035   4.443   7.741   6.676  0.1129  0.0065  0.2817
   24MOL   C250 9036   4.288   7.707   6.684  0.3339 -0.1189 -0.3609
   24MOL   O251 9037   4.280   7.673   6.821  0.7052  0.1315  0.0872
   24MOL   C252 9038   4.244   7.542   6.852  0.0131 -0.5963  0.0954
   24MOL   C253 9039   4.274   7.507   6.998 -0.0996 -0.2127  0.7239
   24MOL   C254 9040   4.429   7.517   7.016 -0.4802 -0.0865  0.4868
   24MOL   C255 9041   4.235   7.360   7.035 -0.4932 -0.0538 -0.9919
   24MOL   H256 9042   4.463   7.822   6.606 -0.3939  1.0967  1.3887
   24MOL   H257 9043   4.480   7.784   6.769 -0.3264  0.5704  0.1959
   24MOL   H258 9044   4.272   7.625   6.614  2.3364  0.0463 -1.0380
   24MOL   H259 9045   4.142   7.538   6.815  0.5726 -0.7219 -1.4649
   24MOL   H260 9046   4.295   7.471   6.787 -1.1571 -0.2165 -1.2585
   24MOL   H261 9047   4.236   7.579   7.070 -0.5844 -1.5639  1.8413
   24MOL   H262 9048   4.487   7.482   6.931 -2.4857 -0.4614 -0.7623
   24MOL   H263 9049   4.463   7.472   7.109  1.0144  3.1133  1.5729
   24MOL   H264 9050   4.450   7.624   7.027 -1.3752 -0.1978  3.9417
   24MOL   H265 9051   4.281   7.329   7.129 -2.5792 -0.6851 -0.1490
   24MOL   H266 9052   4.128   7.351   7.055 -0.3411 -1.0391 -0.5825
   24MOL   H267 9053   4.246   7.287   6.955  2.5998 -0.5945 -0.1528
   24MOL   C268 9054   4.192   7.824   6.645  0.6949  0.0978 -0.0174
   24MOL   C269 9055   4.046   7.784   6.595 -0.3817  0.0550  0.2374
   24MOL   O270 9056   4.054   7.679   6.498 -0.3862 -0.6670 -0.0038
   24MOL   C271 9057   3.934   7.605   6.477 -0.3692 -0.3442  0.0732
   24MOL   C272 9058   3.941   7.478   6.559 -0.9790  0.2262  0.5048
   24MOL   C273 9059   3.796   7.421   6.575 -0.2986  0.8788 -0.3263
   24MOL   C274 9060   4.040   7.373   6.498 -0.3126  0.5387 -0.1399
   24MOL   H275 9061   4.251   0.039   6.562  0.5003 -0.3927 -0.3911
   24MOL   H276 9062   4.185   0.074   6.724 -1.5881  0.5337 -0.6141
   24MOL   H277 9063   3.988   7.756   6.683 -0.4313 -1.1384 -0.1615
   24MOL   H278 9064   3.844   7.662   6.502 -0.3229 -1.2986  2.6005
   24MOL   H279 9065   3.925   7.584   6.371 -2.1515 -1.7051  0.4571
   24MOL   H280 9066   3.975   7.502   6.659 -3.0266  1.8833  0.8550
   24MOL   H281 9067   3.757   7.467   6.666 -2.5668 -0.7259 -0.4508
   24MOL   H282 9068   3.796   7.313   6.579  2.4388  0.8276 -0.4964
   24MOL   H283 9069   3.728   7.450   6.494  0.0859 -2.9920 -2.1273
   24MOL   H284 9070   4.047   7.290   6.568 -1.2434  2.4449  2.2625
   24MOL   H285 9071   4.141   7.407   6.476 -0.3826 -0.4327 -2.0939
   24MOL   H286 9072   4.007   7.328   6.404  1.6714  0.0144 -0.6098
   24MOL   C287 9073   3.992   0.090   6.526  0.7426 -0.7784  0.0097
   24MOL   C288 9074   3.911   0.180   6.623  0.0531  0.5869 -0.0907
   24MOL   O289 9075   3.826   0.097   6.696  0.2405  0.0279 -0.2262
   24MOL   C290 9076   3.834   0.130   6.838 -0.1491  0.0585 -0.8724
   24MOL   C291 9077   3.730   0.037   6.913  0.1972 -1.0802  0.1081
   24MOL   C292 9078   3.718   0.074   7.059 -0.0854 -0.0326 -0.2907
   24MOL   C293 9079   3.763   7.711   6.891 -0.1387  0.2956  0.6688
   24MOL   H294 9080   3.917   0.075   6.449 -0.9211  1.0522  1.2479
   24MOL   H295 9081   4.065   0.142   6.464 -2.4793  1.7374 -1.7940
   24MOL   H296 9082   3.986   0.221   6.691  0.1498  0.1686  0.0552
   24MOL   H297 9083   3.932   0.109   6.881  0.0517  0.7891 -0.9594
   24MOL   H298 9084   3.813   0.236   6.850 -2.7318 -0.2240 -2.5500
   24MOL   H299 9085   3.637   0.048   6.856  0.3671  0.1612  0.0754
   24MOL   H300 9086   3.811   0.063   7.115  0.4731 -0.3234 -1.2800
   24MOL   H301 9087   3.637   0.015   7.103  0.0832 -1.1108 -1.4060
   24MOL   H302 9088   3.679   0.175   7.070 -0.4673 -0.1180 -0.8423
   24MOL   H303 9089   3.850   7.681   6.949  0.9154 -0.1601 -1.0867
   24MOL   H304 9090   3.676   7.651   6.917  0.3201  0.6240  3.0282
   24MOL   H305 9091   3.776   7.697   6.783  0.9053 -3.1713  1.1683
   24MOL   C306 9092   3.841   0.289   6.547  0.0985 -0.1397  0.0047
   24MOL   C307 9093   3.751   0.387   6.630 -0.6484 -0.3843  0.1646
   24MOL   O308 9094   3.837   0.447   6.727 -0.1968 -0.2468  0.2085
   24MOL   C309 9095   3.776   0.503   6.839  0.3032  0.0539  0.0768
   24MOL   C310 9096   3.894   0.550   6.922 -0.4176  0.7380  0.2775
   24MOL   C311 9097   3.995   0.434   6.968 -0.4410  0.2217  0.2888
   24MOL   C312 9098   3.860   0.628   7.040  0.5183 -0.1483 -0.0682
   24MOL   H313 9099   3.776   0.250   6.469 -0.5416  0.4988  0.2150
   24MOL   H314 9100   3.911   0.339   6.480 -0.4592 -1.5168 -1.6578
   24MOL   H315 9101   3.680   0.323   6.682 -0.5226 -1.4614 -0.9505
   24MOL   H316 9102   3.724   0.425   6.895  0.8911 -0.0316  0.5025
   24MOL   H317 9103   3.713   0.590   6.821 -0.8337 -1.1573 -2.0041
   24MOL   H318 9104   3.958   0.609   6.856  0.4712 -0.4431  0.0769
   24MOL   H319 9105   4.070   0.479   7.033  0.4736 -1.6993  0.6263
   24MOL   H320 9106   4.051   0.385   6.889 -0.8222 -1.1525  0.8537
   24MOL   H321 9107   3.941   0.357   7.024  1.9961 -1.5350  0.2757
   24MOL   H322 9108   3.806   0.567   7.113 -0.5680 -0.5180 -1.1642
   24MOL   H323 9109   3.811   0.724   7.019  1.8747  1.2925  2.9548
   24MOL   H324 9110   3.945   0.654   7.103 -0.8903  1.3615  1.2939
   24MOL   C325 9111   3.699   0.486   6.525  0.0492 -0.3874  1.0850
   24MOL   C326 9112   3.571   0.436   6.458  0.5464  0.1701 -0.0658
   24MOL   O327 9113   3.466   0.449   6.543  0.6689 -0.0075 -0.3525
   24MOL   C328 9114   3.369   0.344   6.536 -0.1261 -0.7894 -0.2094
   24MOL   C329 9115   3.258   0.361   6.645  0.3187  0.0967  0.5905
   24MOL   C330 9116   3.126   0.295   6.604  0.2179 -0.0886 -0.3805
   24MOL   C331 9117   3.312   0.306   6.777  0.0917 -0.5382  0.2147
   24MOL   H332 9118   3.773   0.497   6.446 -0.5034  0.2381  0.6458
   24MOL   H333 9119   3.692   0.588   6.562  1.2843 -0.2559  0.9782
   24MOL   H334 9120   3.586   0.335   6.420 -0.3179 -0.6100  1.6230
   24MOL   H335 9121   3.323   0.355   6.438 -4.1164 -2.3509  1.4196
   24MOL   H336 9122   3.417   0.247   6.548  0.9800 -0.3468 -0.9251
   24MOL   H337 9123   3.237   0.467   6.637 -1.6162 -0.3748 -0.8469
   24MOL   H338 9124   3.078   0.331   6.513 -3.8568 -0.3962  1.5526
   24MOL   H339 9125   3.144   0.193   6.571 -0.0142  0.8620 -3.7056
   24MOL   H340 9126   3.054   0.306   6.685 -0.6118  0.3327 -1.1539
   24MOL   H341 9127   3.318   0.197   6.775 -1.4031 -0.6609  2.1383
   24MOL   H342 9128   3.416   0.333   6.797  0.0781  0.1805 -0.6490
   24MOL   H343 9129   3.255   0.345   6.861  0.9758  0.9583  0.1315
   24MOL   C344 9130   3.533   0.518   6.332  0.1662  0.2551 -0.6424
   24MOL   C345 9131   3.624   0.497   6.207 -0.6526 -0.2667 -0.5259
   24MOL   O346 9132   3.625   0.357   6.179 -0.8369  0.1044  0.4508
   24MOL   C347 9133   3.749   0.296   6.137 -0.1625 -0.4789 -0.6006
   24MOL   C348 9134   3.721   0.148   6.118 -0.1824  0.1334  0.2935
   24MOL   C349 9135   3.669   0.130   5.972  0.1616 -0.5126 -0.2955
   24MOL   C350 9136   3.633   0.088   6.222  0.4630 -0.2282  0.1179
   24MOL   H351 9137   3.533   0.624   6.357  0.0581  0.1062  0.0014
   24MOL   H352 9138   3.432   0.499   6.298  0.1132 -0.0654 -0.3098
   24MOL   H353 9139   3.724   0.537   6.223 -1.8895  2.5196  0.5311
   24MOL   H354 9140   3.818   0.307   6.220 -2.2928 -1.5798  1.3654
   24MOL   H355 9141   3.807   0.344   6.058  0.6370 -0.5093 -0.0301
   24MOL   H356 9142   3.811   0.087   6.115  0.6378  1.3955 -2.0354
   24MOL   H357 9143   3.754   0.156   5.908 -0.2363 -0.0024 -0.6136
   24MOL   H358 9144   3.572   0.171   5.947 -0.2674 -0.4314  1.4483
   24MOL   H359 9145   3.658   0.025   5.942  0.2555 -0.4321 -0.6104
   24MOL   H360 9146   3.649   0.141   6.316 -2.7809 -0.6384  0.9848
   24MOL   H361 9147   3.529   0.101   6.192  0.6098  1.4681  0.2619
   24MOL   H362 9148   3.655   7.806   6.231  0.3736 -0.1126  1.9023
   24MOL   C363 9149   3.566   0.573   6.086 -0.1783 -0.4512 -0.1797
   24MOL   C364 9150   3.673   0.648   5.999  0.6662  0.0964  0.2166
   24MOL   O365 9151   3.601   0.726   5.896 -0.5917 -0.3885  0.8958
   24MOL   C366 9152   3.664   0.741   5.768 -0.7414 -0.4252  0.7638
   24MOL   C367 9153   3.601   0.848   5.677 -0.1721  0.0748  0.0480
   24MOL   C368 9154   3.613   0.985   5.745  0.3542  0.0253  0.0158
   24MOL   C369 9155   3.454   0.813   5.625  0.0141 -0.2397 -0.3512
   24MOL   H370 9156   3.513   0.492   6.036 -0.5234  0.3195 -1.0992
   24MOL   H371 9157   3.487   0.639   6.124  1.2191  0.5746  0.9768
   24MOL   H372 9158   3.737   0.569   5.961  2.3427  0.3385  2.4594
   24MOL   H373 9159   3.766   0.778   5.779 -0.6024 -1.1351  1.9257
   24MOL   H374 9160   3.663   0.645   5.715  0.5424 -1.0715  1.8940
   24MOL   H375 9161   3.667   0.857   5.591  1.2610  2.4994  1.3361
   24MOL   H376 9162   3.549   1.063   5.704  0.9009  0.5094  0.0854
   24MOL   H377 9163   3.710   1.034   5.746  1.3628 -1.9368 -0.4392
   24MOL   H378 9164   3.579   0.981   5.849 -1.6296  0.1341 -0.6037
   24MOL   H379 9165   3.444   0.719   5.570  0.3546 -1.0314  0.9019
   24MOL   H380 9166   3.408   0.883   5.556 -0.3446 -1.7915 -1.7201
   24MOL   H381 9167   3.388   0.813   5.712 -0.4046 -0.2130 -0.6708
   24MOL   H382 9168   3.738   0.725   6.040  0.2329  0.9881 -0.7293
   25MOL     C1 9169   0.070   1.936   1.918  0.3275  0.0059  0.3036
   25MOL     C2 9170   0.114   2.078   1.885  0.0604 -0.7566  0.2334
   25MOL     O3 9171   0.208   2.071   1.786 -0.4870 -0.5300  0.7191
   25MOL     C4 9172   0.330   2.004   1.814  0.6324 -0.4382 -0.2569
   25MOL     C5 9173   0.423   2.045   1.698  0.8038  0.4182  0.2967
   25MOL     C6 9174   0.385   1.986   1.561 -0.1093  0.5414 -0.4919
   25MOL     C7 9175   0.566   1.993   1.726 -0.4475 -0.0176 -0.1954
   25MOL     H8 9176   0.062   1.881   1.825  2.0582  0.3422 -0.0678
   25MOL     H9 9177   0.133   1.872   1.979  1.9142  0.1826 -1.1135
   25MOL    H10 9178   0.145   2.139   1.971 -1.8262 -1.1282  1.1954
   25MOL    H11 9179   0.317   1.898   1.834 -0.3812 -0.4047 -0.6970
   25MOL    H12 9180   0.366   2.054   1.904  0.5263  1.2478 -1.1260
   25MOL    H13 9181   0.424   2.154   1.689 -0.9421  0.8187  4.0056
   25MOL    H14 9182   0.290   2.016   1.516 -1.4984 -0.3235  1.8018
   25MOL    H15 9183   0.464   2.013   1.491 -0.1099  3.3128  0.5176
   25MOL    H16 9184   0.372   1.878   1.571 -1.4795  0.7228 -0.1894
   25MOL    H17 9185   0.573   1.885   1.739 -1.7978 -0.2729 -1.4707
   25MOL    H18 9186   0.631   2.018   1.643  0.9617 -2.4398  0.1364
   25MOL    H19 9187   0.617   2.032   1.814  0.6676 -2.6974  0.4012
   25MOL    H20 9188   7.793   1.941   1.959 -0.9988  1.1266 -2.9089
   25MOL    C21 9189   7.818   2.154   1.828 -0.3735  0.7272  1.0995
   25MOL    C22 9190   0.006   2.307   1.844  0.0803  0.2495 -0.0289
   25MOL    O23 9191   7.823   2.353   1.977 -0.1085 -0.2953  0.9947
   25MOL    C24 9192   7.690   2.406   2.013 -0.6969 -0.3100 -0.3929
   25MOL    C25 9193   7.686   2.402   2.167 -0.4035  0.1534  0.2941
   25MOL    C26 9194   7.579   2.494   2.229 -0.7047 -0.1132  0.1859
   25MOL    C27 9195   7.681   2.253   2.214 -0.4351 -0.4952  0.3292
   25MOL    H28 9196   7.813   2.120   1.725  2.3767  1.8331  0.5407
   25MOL    H29 9197   7.726   2.117   1.872  0.4336 -0.3354  1.9261
   25MOL    H30 9198   7.752   2.361   1.793  0.3748 -0.1423 -0.9036
   25MOL    H31 9199   7.609   2.348   1.971 -2.3789  2.0533 -0.4864
   25MOL    H32 9200   7.676   2.509   1.981 -0.9617 -0.1581  0.2087
   25MOL    H33 9201   7.779   2.448   2.201  0.9375 -2.6271  0.5124
   25MOL    H34 9202   7.602   2.593   2.190 -0.3216 -0.6742 -1.0502
   25MOL    H35 9203   7.563   2.494   2.337 -2.3265  1.3897 -0.0401
   25MOL    H36 9204   7.483   2.461   2.189 -1.2542  1.9980 -0.2878
   25MOL    H37 9205   7.583   2.210   2.192 -0.8504 -0.1284  1.4515
   25MOL    H38 9206   7.755   2.201   2.154  0.5856  2.4553 -1.0325
   25MOL    H39 9207   7.716   2.234   2.316  2.5948 -1.5480 -0.8645
   25MOL    C40 9208   0.130   2.365   1.772 -0.2791 -0.0311 -0.3438
   25MOL    C41 9209   0.138   2.516   1.767 -0.0141  0.0612 -0.0774
   25MOL    O42 9210   0.039   2.573   1.684  0.4408 -0.0337  0.5472
   25MOL    C43 9211   0.017   2.715   1.706  0.5959 -0.1369  0.4915
   25MOL    C44 9212   7.704   2.758   1.647  0.5282  0.6482 -0.1516
   25MOL    C45 9213   7.703   2.755   1.501  0.0067  0.1042 -0.2420
   25MOL    C46 9214   7.590   2.663   1.709  0.7236 -0.1359 -0.5851
   25MOL    H47 9215   0.136   2.340   1.666  1.5559 -0.6625 -0.1008
   25MOL    H48 9216   0.226   2.331   1.810  1.1313  2.7621 -1.2567
   25MOL    H49 9217   0.119   2.557   1.866  3.8060  0.0789  0.7226
   25MOL    H50 9218   0.097   2.773   1.658 -0.6097  1.9930  0.9986
   25MOL    H51 9219   0.016   2.738   1.812 -0.2194 -0.3248  0.5267
   25MOL    H52 9220   7.686   2.860   1.682  0.4215  1.3682 -2.2394
   25MOL    H53 9221   7.782   2.817   1.457 -1.5323  3.5298  1.6361
   25MOL    H54 9222   7.715   2.650   1.474  1.0250  0.3694 -0.8640
   25MOL    H55 9223   7.607   2.783   1.458  0.3309  0.5324 -0.6881
   25MOL    H56 9224   7.583   2.657   1.817 -0.2878  0.2011 -0.6200
   25MOL    H57 9225   7.598   2.563   1.666  0.2626 -0.4194 -0.0235
   25MOL    H58 9226   7.489   2.694   1.680  0.7749  0.4080 -0.1895
   25MOL    C59 9227   0.271   2.566   1.730 -0.0721 -0.0058 -0.1165
   25MOL    C60 9228   0.347   2.639   1.843 -0.6257  0.1535 -0.3104
   25MOL    O61 9229   0.275   2.752   1.887  0.4219  0.2705  0.5615
   25MOL    C62 9230   0.234   2.756   2.016 -0.0637  0.1696 -0.8126
   25MOL    C63 9231   0.151   2.869   2.063 -0.3272 -0.3272  0.3998
   25MOL    C64 9232   0.110   2.859   2.210 -0.7598  0.2937 -0.4367
   25MOL    C65 9233   0.221   3.005   2.020 -0.3777 -0.1248  0.1703
   25MOL    H66 9234   0.271   2.629   1.641 -3.1871 -1.1063 -0.9559
   25MOL    H67 9235   0.335   2.480   1.709  1.5526  1.7577 -2.7167
   25MOL    H68 9236   0.366   2.572   1.927 -1.0182  1.8386  1.1319
   25MOL    H69 9237   0.164   2.676   2.037 -0.0231  0.7554  1.7775
   25MOL    H70 9238   0.318   2.742   2.084 -0.6979 -2.3098 -0.4889
   25MOL    H71 9239   0.051   2.872   2.019 -0.3397 -2.6517  0.1630
   25MOL    H72 9240   0.062   2.763   2.229  1.2858 -0.7335 -0.3405
   25MOL    H73 9241   0.049   2.948   2.230  0.4213  1.2677 -1.0665
   25MOL    H74 9242   0.203   2.859   2.266 -1.4589  0.0095  0.7543
   25MOL    H75 9243   0.199   3.026   1.915  0.3422  0.9901  0.2418
   25MOL    H76 9244   0.171   3.085   2.074 -0.1281  0.9581 -1.1644
   25MOL    H77 9245   0.327   3.005   2.045 -0.8755  2.8550  2.6299
   25MOL    C78 9246   0.485   2.683   1.793  0.7755 -0.1287 -0.0994
   25MOL    C79 9247   0.599   2.670   1.892 -0.1856 -0.2779  0.1521
   25MOL    O80 9248   0.626   2.527   1.912  0.4408  0.2072 -0.5608
   25MOL    C81 9249   0.644   2.484   2.045 -0.4013  0.3287 -0.2442
   25MOL    C82 9250   0.655   2.324   2.046  0.4588  0.0883  0.1035
   25MOL    C83 9251   0.774   2.276   1.964 -0.0957 -0.2792 -0.3535
   25MOL    C84 9252   0.524   2.255   2.012  0.2558 -0.5909  0.5882
   25MOL    H85 9253   0.472   2.783   1.752  1.2091 -0.5325 -1.2255
   25MOL    H86 9254   0.524   2.632   1.706  2.8280  0.7052  0.2935
   25MOL    H87 9255   0.564   2.717   1.985 -1.4791  0.6216 -0.7681
   25MOL    H88 9256   0.735   2.523   2.090  0.0264  0.8233 -1.5128
   25MOL    H89 9257   0.558   2.512   2.106 -0.7865  3.7205 -2.2101
   25MOL    H90 9258   0.660   2.306   2.153 -1.0254 -0.2720  0.1273
   25MOL    H91 9259   0.869   2.320   1.995  0.0954 -0.9790  0.0666
   25MOL    H92 9260   0.755   2.305   1.860  0.6571 -1.5014 -0.8388
   25MOL    H93 9261   0.778   2.167   1.956  0.8009 -0.4916  2.3742
   25MOL    H94 9262   0.524   2.147   2.030  1.2204 -0.4808  1.3182
   25MOL    H95 9263   0.501   2.258   1.906 -0.9203 -1.2420  0.8166
   25MOL    H96 9264   0.447   2.297   2.077  0.5751  0.5959  0.2110
   25MOL    C97 9265   0.733   2.732   1.850  0.1705 -0.3209  0.1136
   25MOL    C98 9266   0.734   2.880   1.800  0.4505 -0.7511 -0.2607
   25MOL    O99 9267   0.871   2.906   1.770  0.4736  0.0292 -0.0336
   25MOL   C100 9268   0.907   2.941   1.639 -0.4512  0.2119  1.0556
   25MOL   C101 9269   1.051   2.991   1.650  0.0803  0.1733 -0.2520
   25MOL   C102 9270   1.146   2.885   1.719 -0.5292 -0.4971  0.4774
   25MOL   C103 9271   1.115   3.056   1.523 -0.3073  0.1093  0.1839
   25MOL   H104 9272   0.775   2.670   1.771  0.8687  0.0170  0.2206
   25MOL   H105 9273   0.803   2.736   1.933 -1.5835  1.9871  1.5388
   25MOL   H106 9274   0.679   2.883   1.706 -0.8836 -1.5456  0.4736
   25MOL   H107 9275   0.849   3.021   1.594 -0.1240 -0.3399 -0.3777
   25MOL   H108 9276   0.896   2.854   1.574  0.1064  1.1210 -0.2893
   25MOL   H109 9277   1.041   3.075   1.717  0.2310 -0.4693  0.5796
   25MOL   H110 9278   1.110   2.784   1.700  0.9327 -0.8715 -0.3541
   25MOL   H111 9279   1.251   2.896   1.692 -0.3118 -0.1770  1.4101
   25MOL   H112 9280   1.132   2.898   1.827 -0.1264  0.9170  0.3586
   25MOL   H113 9281   1.204   3.115   1.544 -0.6598  0.4541  0.6970
   25MOL   H114 9282   1.125   2.983   1.443  0.9528 -0.2799  0.6826
   25MOL   H115 9283   1.045   3.121   1.471 -1.3141 -1.5005 -0.5135
   25MOL   C116 9284   0.679   2.993   1.886 -0.0868  0.1430  0.1738
   25MOL   C117 9285   0.652   3.133   1.816  0.1479 -0.3332 -0.3517
   25MOL   O118 9286   0.527   3.127   1.748 -0.2105  0.4560  0.4776
   25MOL   C119 9287   0.545   3.123   1.608  0.2827 -0.4434 -0.5558
   25MOL   C120 9288   0.409   3.134   1.542  0.2274  0.5607 -0.0052
   25MOL   C121 9289   0.427   3.163   1.397  0.0869 -0.0048 -0.1526
   25MOL   C122 9290   0.328   3.008   1.562  0.0685 -0.0961  0.2472
   25MOL   H123 9291   0.586   2.965   1.934 -0.6013 -0.5226 -1.1793
   25MOL   H124 9292   0.747   3.004   1.971 -0.3534  0.5900  0.3283
   25MOL   H125 9293   0.735   3.168   1.755  1.4938 -1.2410  0.9291
   25MOL   H126 9294   0.593   3.033   1.569  1.6148  0.2308 -0.5121
   25MOL   H127 9295   0.600   3.216   1.598 -1.4184  0.5384 -1.0052
   25MOL   H128 9296   0.359   3.221   1.585  2.1591  2.2148 -1.0442
   25MOL   H129 9297   0.484   3.084   1.348  0.9882  1.1450 -0.9961
   25MOL   H130 9298   0.485   3.254   1.382  1.2122 -0.5915  0.6012
   25MOL   H131 9299   0.336   3.183   1.340 -0.9126 -0.3276  1.3093
   25MOL   H132 9300   0.226   3.034   1.531 -0.0832 -1.7815 -0.6942
   25MOL   H133 9301   0.364   2.915   1.518  1.1446 -1.2015  3.3592
   25MOL   H134 9302   0.314   2.986   1.668  0.0164  0.4653  0.3627
   25MOL   C135 9303   0.625   3.245   1.928  0.0234  0.8911  0.1636
   25MOL   C136 9304   0.598   3.393   1.882 -0.3186 -0.2810  0.3909
   25MOL   O137 9305   0.508   3.437   1.978  0.3235 -0.4190 -0.2664
   25MOL   C138 9306   0.372   3.425   1.948 -0.2383 -0.0561 -1.1449
   25MOL   C139 9307   0.302   3.477   2.072 -0.3702 -0.2610  0.0126
   25MOL   C140 9308   0.323   3.632   2.077  0.0906 -0.0908  0.6584
   25MOL   C141 9309   0.151   3.449   2.084  0.0701 -0.1903  0.3762
   25MOL   H142 9310   0.538   3.215   1.985  1.0141  0.5964  1.5529
   25MOL   H143 9311   0.712   3.239   1.994 -0.1684 -2.3059  0.2120
   25MOL   H144 9312   0.555   3.390   1.783 -0.2863  0.1126  0.3640
   25MOL   H145 9313   0.342   3.324   1.919  0.8684 -0.6459 -0.3093
   25MOL   H146 9314   0.342   3.485   1.863 -1.8223  0.6286 -0.1217
   25MOL   H147 9315   0.360   3.445   2.159 -0.7794 -1.1245 -0.0310
   25MOL   H148 9316   0.320   3.676   1.977 -2.7074  1.6358  1.4514
   25MOL   H149 9317   0.425   3.651   2.112  0.2560  0.2994 -0.0281
   25MOL   H150 9318   0.257   3.687   2.144 -3.2352 -2.7980 -0.2283
   25MOL   H151 9319   0.101   3.507   2.162 -2.1271  2.2235 -2.6899
   25MOL   H152 9320   0.103   3.453   1.986  1.8387 -0.0206 -0.5099
   25MOL   H153 9321   0.146   3.345   2.113  0.4945 -0.2744  0.1530
   25MOL   C154 9322   0.713   3.493   1.893 -0.3631  0.2012 -0.9520
   25MOL   C155 9323   0.843   3.461   1.809 -0.7676 -0.2773  0.0436
   25MOL   O156 9324   0.795   3.446   1.673 -0.3878 -0.2821  0.3383
   25MOL   C157 9325   0.891   3.381   1.584 -0.2729 -0.3262 -0.0690
   25MOL   C158 9326   0.889   3.437   1.442  0.3355 -0.5127 -0.0559
   25MOL   C159 9327   0.750   3.432   1.383 -0.5715  0.1924  0.0948
   25MOL   C160 9328   0.958   3.571   1.430  0.6662  0.3246 -0.3101
   25MOL   H161 9329   0.743   3.479   1.997 -0.4830 -0.4311 -0.9963
   25MOL   H162 9330   0.684   3.596   1.874  1.6248  0.4431 -2.8282
   25MOL   H163 9331   0.873   3.362   1.844  0.3892 -0.2808 -0.9235
   25MOL   H164 9332   0.859   3.278   1.575  0.1649 -0.4229 -0.5055
   25MOL   H165 9333   0.996   3.379   1.615  0.0728 -0.9405 -1.2513
   25MOL   H166 9334   0.946   3.366   1.382  2.8360  0.5046  1.0691
   25MOL   H167 9335   0.711   3.331   1.395  0.3866 -0.5667 -2.6305
   25MOL   H168 9336   0.762   3.451   1.276  0.6339 -0.4463  0.1020
   25MOL   H169 9337   0.687   3.503   1.436  0.1056  1.5139 -0.8351
   25MOL   H170 9338   0.986   3.598   1.328 -0.3224  1.3874 -0.2993
   25MOL   H171 9339   0.914   3.654   1.485  0.3010 -0.3784  0.4639
   25MOL   H172 9340   1.057   3.553   1.473 -0.5044  2.1687  3.2901
   25MOL   C173 9341   0.962   3.559   1.818  0.4871 -0.4252 -0.6038
   25MOL   C174 9342   1.013   3.565   1.964  0.2862  0.0250 -0.0403
   25MOL   O175 9343   1.073   3.438   1.991 -0.0523 -0.5752  0.7395
   25MOL   C176 9344   1.064   3.391   2.122  0.1795 -0.2112  0.1251
   25MOL   C177 9345   1.131   3.252   2.125  0.5878  1.0393  0.4427
   25MOL   C178 9346   1.122   3.182   2.265  0.9053  0.0194 -0.3071
   25MOL   C179 9347   1.062   3.161   2.016 -0.0496 -0.2827 -0.3042
   25MOL   H180 9348   1.049   3.537   1.756  0.9986  0.8654 -0.3697
   25MOL   H181 9349   0.935   3.656   1.775  0.7236  0.4394  1.1520
   25MOL   H182 9350   0.927   3.590   2.026  0.5808  0.3029  0.2565
   25MOL   H183 9351   0.959   3.395   2.151 -0.5037 -2.0781 -1.8843
   25MOL   H184 9352   1.123   3.461   2.180 -0.5076  0.6729 -0.2271
   25MOL   H185 9353   1.237   3.256   2.100 -0.2799  0.0343 -3.7327
   25MOL   H186 9354   1.018   3.163   2.292  0.7564  1.1240 -0.1059
   25MOL   H187 9355   1.174   3.086   2.257  4.0221  1.7587 -2.0140
   25MOL   H188 9356   1.163   3.247   2.342  0.7266 -0.0822 -0.1227
   25MOL   H189 9357   0.954   3.174   2.012  0.2011  3.1192  2.0175
   25MOL   H190 9358   1.088   3.055   2.018  0.0413 -0.2760 -1.1512
   25MOL   H191 9359   1.086   3.199   1.917 -2.4884  0.8533 -0.5100
   25MOL   C192 9360   1.125   3.674   1.962  0.2102  0.1727  0.0186
   25MOL   C193 9361   1.073   3.803   2.028 -0.2555  0.0083 -0.4950
   25MOL   O194 9362   1.170   3.902   1.997  0.4806  0.0742 -0.0512
   25MOL   C195 9363   1.155   3.973   1.874  0.2086  0.0668 -0.4185
   25MOL   C196 9364   1.281   4.044   1.822 -0.1042  0.1399  1.0922
   25MOL   C197 9365   1.409   3.944   1.819 -0.2371  0.0532  0.0945
   25MOL   C198 9366   1.305   4.161   1.911  0.1484  0.3746 -0.5077
   25MOL   H199 9367   1.153   3.689   1.858 -1.7841  2.5887 -0.2100
   25MOL   H200 9368   1.218   3.641   2.008  0.5828 -0.7540 -1.3617
   25MOL   H201 9369   0.970   3.820   1.996 -0.4613 -0.4231 -0.0785
   25MOL   H202 9370   1.076   4.048   1.885 -0.5186 -0.9479  1.3000
   25MOL   H203 9371   1.111   3.904   1.803 -0.3361 -0.3213  0.2961
   25MOL   H204 9372   1.271   4.082   1.721 -1.0803 -0.6231  0.8931
   25MOL   H205 9373   1.494   3.982   1.762 -1.1811  0.5508 -1.0094
   25MOL   H206 9374   1.442   3.909   1.917 -0.4519  0.6512  0.3822
   25MOL   H207 9375   1.383   3.853   1.765 -0.6690 -0.2210  0.7536
   25MOL   H208 9376   1.296   4.127   2.014 -1.0268  0.7700 -0.4745
   25MOL   H209 9377   1.406   4.203   1.902  0.2175  0.9816  2.6501
   25MOL   H210 9378   1.227   4.235   1.893  1.2619  1.5180 -0.7020
   25MOL   C211 9379   1.067   3.793   2.178 -0.3011 -0.0023  0.0182
   25MOL   C212 9380   0.969   3.892   2.250  0.2139  0.6622 -0.3898
   25MOL   O213 9381   0.835   3.843   2.236  0.1820 -0.2202  0.4352
   25MOL   C214 9382   0.731   3.940   2.240  0.6320 -0.2582  0.6749
   25MOL   C215 9383   0.687   3.964   2.090  0.4574  0.5233  0.1952
   25MOL   C216 9384   0.664   3.832   2.007  0.0079 -0.5039  0.6489
   25MOL   C217 9385   0.568   4.059   2.073 -0.4603 -0.3604 -0.3817
   25MOL   H218 9386   1.170   3.810   2.211  0.0974 -1.5488 -0.3959
   25MOL   H219 9387   1.054   3.691   2.215 -0.2488  0.5638  1.6658
   25MOL   H220 9388   0.970   3.981   2.188  0.9877  1.7396  1.1268
   25MOL   H221 9389   0.754   4.029   2.298  0.2123  0.4186 -0.1776
   25MOL   H222 9390   0.653   3.886   2.293 -0.0556 -0.7972 -0.8327
   25MOL   H223 9391   0.758   4.032   2.043  0.8378 -0.1366 -0.1976
   25MOL   H224 9392   0.745   3.766   2.037  0.5141 -0.1200  0.1173
   25MOL   H225 9393   0.571   3.775   2.018 -0.4640 -0.1254 -1.1622
   25MOL   H226 9394   0.674   3.850   1.900 -1.5706  0.8259  0.6974
   25MOL   H227 9395   0.550   4.069   1.966  0.0373  0.7326 -0.3692
   25MOL   H228 9396   0.568   4.160   2.114 -1.9838 -0.6820  0.4654
   25MOL   H229 9397   0.480   4.008   2.114  0.6657 -1.5897  0.5281
   25MOL   C230 9398   1.015   3.923   2.387 -0.8791 -0.0429 -0.1519
   25MOL   C231 9399   1.105   4.051   2.393 -0.0949  0.6070  0.3961
   25MOL   O232 9400   1.019   4.164   2.366 -0.2657 -0.6231 -0.5787
   25MOL   C233 9401   1.077   4.262   2.283 -0.2165  0.5136  0.4321
   25MOL   C234 9402   0.975   4.365   2.238 -1.0254  0.2194 -0.3726
   25MOL   C235 9403   0.858   4.296   2.165  0.1056 -0.6321 -0.1903
   25MOL   C236 9404   0.930   4.460   2.348  0.0675 -0.7417 -0.2457
   25MOL   H237 9405   1.069   3.838   2.429 -0.9632 -0.3129 -0.5896
   25MOL   H238 9406   0.923   3.938   2.442 -1.6057 -2.7133 -0.5570
   25MOL   H239 9407   1.181   4.044   2.316 -0.1052  0.2272  0.4202
   25MOL   H240 9408   1.163   4.311   2.329 -0.9747  1.0788  1.2664
   25MOL   H241 9409   1.120   4.212   2.197 -1.4777 -1.8341  1.1228
   25MOL   H242 9410   1.030   4.426   2.166 -0.0031  2.3434  2.1261
   25MOL   H243 9411   0.878   4.234   2.077 -1.7437 -0.5108 -0.7263
   25MOL   H244 9412   0.785   4.367   2.127  0.5630 -0.9445 -1.6930
   25MOL   H245 9413   0.800   4.231   2.230  1.9610 -0.3249  1.8276
   25MOL   H246 9414   0.862   4.414   2.419  0.6657 -0.7188  0.3427
   25MOL   H247 9415   1.010   4.519   2.392 -1.0069  0.1448  0.5454
   25MOL   H248 9416   0.866   4.532   2.297 -1.1905 -0.3742  1.8050
   25MOL   C249 9417   1.164   4.056   2.540 -0.3315  0.0044  0.6744
   25MOL   C250 9418   1.270   3.950   2.565  0.0371  0.7668 -0.3885
   25MOL   O251 9419   1.390   4.040   2.543  0.4867  0.1525 -0.9928
   25MOL   C252 9420   1.517   3.978   2.536  0.0741 -0.5398 -0.1355
   25MOL   C253 9421   1.620   4.084   2.499  0.1675  0.7187 -0.2717
   25MOL   C254 9422   1.766   4.027   2.479  0.1187  0.0337 -0.3670
   25MOL   C255 9423   1.607   4.210   2.587 -0.9091 -0.3888  0.8382
   25MOL   H256 9424   1.081   4.042   2.609  0.4910 -1.7304  1.3555
   25MOL   H257 9425   1.200   4.156   2.567 -0.2809 -0.2838  1.7203
   25MOL   H258 9426   1.277   3.882   2.481  0.3395  0.8842 -0.4621
   25MOL   H259 9427   1.531   3.944   2.638 -1.5516  0.2176  0.3574
   25MOL   H260 9428   1.529   3.896   2.465  0.7617 -0.4488 -0.1235
   25MOL   H261 9429   1.602   4.111   2.395 -0.1328 -0.2171 -0.4723
   25MOL   H262 9430   1.802   3.977   2.570  1.9130 -1.8628 -2.0652
   25MOL   H263 9431   1.837   4.109   2.462  0.5516  0.2039  2.0100
   25MOL   H264 9432   1.775   3.947   2.406  2.2096 -0.8941  0.8269
   25MOL   H265 9433   1.617   4.184   2.693 -1.4465  2.3916  1.6095
   25MOL   H266 9434   1.687   4.281   2.565 -1.1698  0.0208  1.1778
   25MOL   H267 9435   1.515   4.267   2.576 -0.3498  0.7109  1.6640
   25MOL   C268 9436   1.278   3.890   2.705  0.0272  0.2621  0.5983
   25MOL   C269 9437   1.159   3.820   2.765  0.1343  0.3428  0.6815
   25MOL   O270 9438   1.188   3.815   2.906 -0.3740  0.0499  0.4856
   25MOL   C271 9439   1.106   3.889   2.997  0.1393 -0.6350 -0.0369
   25MOL   C272 9440   1.137   3.838   3.141  0.0623 -0.4319  0.8148
   25MOL   C273 9441   1.103   3.684   3.174 -0.4448  0.2042 -0.2453
   25MOL   C274 9442   1.283   3.859   3.171 -0.1691  0.6137  0.5509
   25MOL   H275 9443   1.314   3.965   2.776 -0.0266 -0.7935  1.7499
   25MOL   H276 9444   1.357   3.816   2.707 -0.4770 -0.2873  0.2713
   25MOL   H277 9445   1.064   3.864   2.734  0.3038  0.0476 -0.2693
   25MOL   H278 9446   1.114   3.998   2.997  1.1393 -0.6998  0.0249
   25MOL   H279 9447   1.002   3.862   2.983  0.4280 -1.2229 -1.1277
   25MOL   H280 9448   1.071   3.904   3.198 -1.1363 -0.6994 -0.2401
   25MOL   H281 9449   1.170   3.612   3.126  0.2048  0.1888  0.6736
   25MOL   H282 9450   1.005   3.649   3.143 -0.5453  0.9020 -0.7328
   25MOL   H283 9451   1.114   3.651   3.277 -0.2065 -1.3389 -0.7536
   25MOL   H284 9452   1.352   3.796   3.114 -0.7685  1.1695 -0.8088
   25MOL   H285 9453   1.290   3.819   3.272 -1.6923 -0.5526  0.2176
   25MOL   H286 9454   1.306   3.964   3.155  0.4937  0.3495 -0.3303
   25MOL   C287 9455   1.138   3.677   2.715  0.7747 -0.1143  0.3181
   25MOL   C288 9456   1.018   3.596   2.790  0.1735 -0.0077 -1.1236
   25MOL   O289 9457   1.017   3.463   2.735 -0.0591  0.1639 -0.3817
   25MOL   C290 9458   1.102   3.372   2.796 -0.7966 -0.0954  0.0395
   25MOL   C291 9459   1.038   3.239   2.832 -0.4090  0.3952  0.6606
   25MOL   C292 9460   1.126   3.165   2.931 -0.2626  0.6000 -0.3467
   25MOL   C293 9461   1.005   3.168   2.693  0.6745 -0.2282 -0.0339
   25MOL   H294 9462   1.232   3.625   2.733  0.0169 -1.3898  0.6835
   25MOL   H295 9463   1.113   3.670   2.609  1.3468 -1.4684  0.2608
   25MOL   H296 9464   1.034   3.601   2.897  2.0773  1.8371 -1.4708
   25MOL   H297 9465   1.192   3.361   2.736  1.2752  2.2933  2.6020
   25MOL   H298 9466   1.150   3.408   2.887  0.7418 -0.4174 -0.6202
   25MOL   H299 9467   0.947   3.264   2.885 -0.7447 -3.6714  2.1507
   25MOL   H300 9468   1.167   3.222   3.014 -0.1305  0.2610 -0.1787
   25MOL   H301 9469   1.211   3.121   2.879 -0.0552 -0.4995  0.8866
   25MOL   H302 9470   1.068   3.087   2.981  0.3231  0.7154  0.5296
   25MOL   H303 9471   1.088   3.111   2.652 -0.2438 -1.5594 -0.0891
   25MOL   H304 9472   0.921   3.100   2.710  0.0745  0.7260  0.8750
   25MOL   H305 9473   0.964   3.242   2.625  1.7691 -0.3190 -0.8018
   25MOL   C306 9474   0.879   3.658   2.767 -0.1853 -0.0083  0.1519
   25MOL   C307 9475   0.762   3.585   2.847 -0.0637 -0.2607 -0.1254
   25MOL   O308 9476   0.801   3.571   2.986  0.0389  0.3678 -0.4005
   25MOL   C309 9477   0.717   3.503   3.077  0.1249 -0.3983 -0.1783
   25MOL   C310 9478   0.788   3.459   3.218  0.5853 -0.2949  0.5045
   25MOL   C311 9479   0.869   3.334   3.193  0.0050  0.2851 -0.2704
   25MOL   C312 9480   0.685   3.446   3.336  0.6704  0.1752 -0.7292
   25MOL   H313 9481   0.855   3.659   2.660 -4.0219  1.3265  0.9539
   25MOL   H314 9482   0.871   3.761   2.801 -1.5226  0.0464 -0.2985
   25MOL   H315 9483   0.764   3.483   2.809  0.6130  0.0231 -0.8736
   25MOL   H316 9484   0.667   3.417   3.032 -0.2307 -0.9359  1.2165
   25MOL   H317 9485   0.636   3.576   3.092 -1.8330 -2.8657  1.8267
   25MOL   H318 9486   0.840   3.551   3.244  0.2943  0.4198 -1.3721
   25MOL   H319 9487   0.918   3.296   3.282  0.7108  0.7098 -0.4752
   25MOL   H320 9488   0.961   3.349   3.137  1.3857 -0.4380  1.7464
   25MOL   H321 9489   0.817   3.250   3.147 -1.9502  0.3731  1.6775
   25MOL   H322 9490   0.741   3.434   3.429 -0.2416 -0.6513 -0.2680
   25MOL   H323 9491   0.622   3.357   3.327  1.1827 -0.2295 -0.3487
   25MOL   H324 9492   0.621   3.533   3.353 -0.4752 -0.7006 -0.4630
   25MOL   C325 9493   0.629   3.659   2.833 -0.2289  0.1454  0.8043
   25MOL   C326 9494   0.579   3.701   2.695 -0.2860  0.3780  0.3449
   25MOL   O327 9495   0.575   3.588   2.615 -0.3200 -0.0224 -0.4037
   25MOL   C328 9496   0.625   3.614   2.488  1.2864 -0.7814  0.2081
   25MOL   C329 9497   0.634   3.483   2.415  0.5690  0.1977 -0.3260
   25MOL   C330 9498   0.670   3.489   2.270 -0.5025  0.4601 -1.1098
   25MOL   C331 9499   0.743   3.408   2.491 -0.2646  0.1939  0.3912
   25MOL   H332 9500   0.622   3.737   2.909 -3.0695  0.5335  0.1921
   25MOL   H333 9501   0.557   3.584   2.867  0.8401  0.7818  4.7504
   25MOL   H334 9502   0.642   3.778   2.652  0.5624 -1.2444 -1.3812
   25MOL   H335 9503   0.570   3.678   2.420  1.1911 -0.5147  0.5354
   25MOL   H336 9504   0.722   3.664   2.481 -0.0041  2.0823  2.0039
   25MOL   H337 9505   0.537   3.433   2.416 -0.5474  2.3187 -0.8552
   25MOL   H338 9506   0.649   3.401   2.209  1.6129 -1.8796  1.4561
   25MOL   H339 9507   0.609   3.566   2.223  2.5421  3.5462 -0.2181
   25MOL   H340 9508   0.774   3.518   2.256 -0.2889 -0.0225 -0.5413
   25MOL   H341 9509   0.757   3.303   2.464 -0.1597  0.5420 -0.9663
   25MOL   H342 9510   0.837   3.461   2.475 -0.1321 -0.0459  0.3663
   25MOL   H343 9511   0.729   3.394   2.598  0.0558 -1.0104  0.2820
   25MOL   C344 9512   0.434   3.760   2.698 -0.2999 -0.3309  0.0314
   25MOL   C345 9513   0.408   3.894   2.775  0.1887  0.2809  0.0887
   25MOL   O346 9514   0.484   4.006   2.736  0.5145  0.1096 -0.0863
   25MOL   C347 9515   0.565   4.069   2.830 -0.1445 -0.1986 -0.3792
   25MOL   C348 9516   0.650   4.185   2.773  0.4866  0.0438  0.2163
   25MOL   C349 9517   0.719   4.145   2.639  0.4451  0.5363 -0.4422
   25MOL   C350 9518   0.744   4.240   2.874  0.5931 -0.5585  0.0305
   25MOL   H351 9519   0.373   3.682   2.742  0.2619  0.0263  1.4429
   25MOL   H352 9520   0.397   3.762   2.595 -0.0883  0.7930 -0.0331
   25MOL   H353 9521   0.437   3.873   2.878  0.3394  0.1724  0.0246
   25MOL   H354 9522   0.627   4.000   2.887 -0.5523 -0.0366  0.2634
   25MOL   H355 9523   0.503   4.106   2.911 -1.1240  2.6755 -2.3679
   25MOL   H356 9524   0.574   4.263   2.764  0.4782  0.0483  0.3306
   25MOL   H357 9525   0.795   4.069   2.655 -1.1929 -0.9022  0.6721
   25MOL   H358 9526   0.764   4.234   2.594 -3.3218  3.7108  1.7526
   25MOL   H359 9527   0.644   4.105   2.572 -1.1258  0.5610  1.2602
   25MOL   H360 9528   0.697   4.283   2.963  0.1031 -1.5974  0.2771
   25MOL   H361 9529   0.810   4.162   2.913  2.2868 -0.5373 -2.6381
   25MOL   H362 9530   0.801   4.323   2.833  1.1061 -0.5623  0.7105
   25MOL   C363 9531   0.260   3.926   2.787  0.6244 -0.0035 -0.8198
   25MOL   C364 9532   0.220   4.060   2.858  0.1882 -0.0556  0.7298
   25MOL   O365 9533   0.081   4.065   2.879 -0.0860  0.5344 -0.0547
   25MOL   C366 9534   7.823   4.079   2.759  0.1437  0.4466 -0.5233
   25MOL   C367 9535   7.671   4.090   2.762  0.4851  0.2918 -0.5320
   25MOL   C368 9536   7.631   4.199   2.866  0.3516  0.0183 -0.1259
   25MOL   C369 9537   7.604   3.949   2.796 -0.1487 -0.3364 -0.4161
   25MOL   H370 9538   0.218   3.927   2.687  0.3972 -0.9580 -0.7452
   25MOL   H371 9539   0.211   3.854   2.853 -1.2247  1.5060 -0.4954
   25MOL   H372 9540   0.254   4.147   2.802  2.1408 -1.9138 -1.0808
   25MOL   H373 9541   0.039   4.163   2.701 -0.7154 -0.6329 -2.7190
   25MOL   H374 9542   0.017   4.000   2.687  1.4508 -0.8025  1.1261
   25MOL   H375 9543   7.639   4.109   2.659  1.2979  0.1383 -0.8159
   25MOL   H376 9544   7.692   4.289   2.856  0.5602 -0.0291  0.7135
   25MOL   H377 9545   7.666   4.168   2.964  1.4187  1.4546 -0.0245
   25MOL   H378 9546   7.526   4.229   2.862  0.9270  2.1018 -0.3181
   25MOL   H379 9547   7.627   3.881   2.714  2.6782 -1.3524  1.1394
   25MOL   H380 9548   7.496   3.960   2.788  0.0314  1.8771 -0.2863
   25MOL   H381 9549   7.630   3.896   2.888  0.0911 -1.0327 -0.8827
   25MOL   H382 9550   0.269   4.063   2.956  0.6201  0.7635  0.4935
   26MOL     C1 9551   2.742   1.850   1.665  0.3669 -0.1049  0.9396
   26MOL     C2 9552   2.790   1.766   1.544 -0.1955  0.2295  0.2420
   26MOL     O3 9553   2.743   1.835   1.427 -0.2207 -0.4011  0.4544
   26MOL     C4 9554   2.609   1.836   1.408  0.3407 -0.0318  0.2459
   26MOL     C5 9555   2.570   1.845   1.261 -0.1838  0.7224  0.2677
   26MOL     C6 9556   2.624   1.715   1.197  0.3497 -0.0381  0.6080
   26MOL     C7 9557   2.623   1.967   1.182  0.3235 -0.3188  0.3116
   26MOL     H8 9558   2.638   1.828   1.690 -0.9954  2.7375 -1.9305
   26MOL     H9 9559   2.788   1.828   1.761 -0.0506 -2.3440  0.6667
   26MOL    H10 9560   2.763   1.660   1.543  2.8188 -0.5839 -1.3672
   26MOL    H11 9561   2.578   1.925   1.463  0.4432  1.9372 -2.7771
   26MOL    H12 9562   2.559   1.752   1.457 -1.7484  1.4181  0.7088
   26MOL    H13 9563   2.462   1.857   1.255 -0.0159  1.7874 -0.9002
   26MOL    H14 9564   2.600   1.625   1.254 -0.7817 -0.3101 -0.2659
   26MOL    H15 9565   2.568   1.710   1.104  0.3063 -0.9030  0.6774
   26MOL    H16 9566   2.729   1.708   1.170  0.0505 -0.5117 -0.4225
   26MOL    H17 9567   2.724   2.000   1.203  0.8868 -1.9138  0.1694
   26MOL    H18 9568   2.609   1.960   1.074 -2.7380  1.0304  0.5478
   26MOL    H19 9569   2.559   2.053   1.201  0.0525 -0.0728 -1.5407
   26MOL    H20 9570   2.744   1.957   1.646 -1.2334 -0.3609 -0.8052
   26MOL    C21 9571   2.935   1.754   1.542  0.4529  0.1889 -0.2489
   26MOL    C22 9572   2.999   1.672   1.430  0.2636 -0.7816  0.6481
   26MOL    O23 9573   3.145   1.657   1.453  0.6419 -0.2111  0.5891
   26MOL    C24 9574   3.215   1.761   1.397 -0.8374 -0.3427  1.0160
   26MOL    C25 9575   3.362   1.735   1.450  0.0437 -0.1929 -0.6434
   26MOL    C26 9576   3.381   1.774   1.597 -0.1141 -0.0205 -0.0809
   26MOL    C27 9577   3.419   1.602   1.424  0.0394  0.2013 -0.1689
   26MOL    H28 9578   2.988   1.846   1.514  0.1121  0.1116 -1.1555
   26MOL    H29 9579   2.974   1.719   1.638 -2.7151 -1.4674  0.4718
   26MOL    H30 9580   2.995   1.716   1.330  3.0471  1.2311  1.3669
   26MOL    H31 9581   3.181   1.862   1.421 -0.5186  0.1507 -0.5830
   26MOL    H32 9582   3.228   1.763   1.289  3.2791  1.2670  1.4220
   26MOL    H33 9583   3.424   1.801   1.389 -0.2042 -0.2977 -1.0123
   26MOL    H34 9584   3.318   1.859   1.621  0.6485  0.2866  0.8929
   26MOL    H35 9585   3.485   1.796   1.622  0.5499 -0.7784 -2.1271
   26MOL    H36 9586   3.345   1.700   1.669  2.1423 -2.6389 -1.5446
   26MOL    H37 9587   3.512   1.577   1.476 -1.0044 -1.6375  0.8775
   26MOL    H38 9588   3.346   1.537   1.472  1.8617 -0.6766  1.4858
   26MOL    H39 9589   3.428   1.589   1.316 -0.9661 -0.4445 -0.1778
   26MOL    C40 9590   2.941   1.524   1.421  0.2931  0.3116  0.0864
   26MOL    C41 9591   3.000   1.423   1.317 -0.1110  0.5661  0.1223
   26MOL    O42 9592   2.984   1.480   1.194  0.1714 -0.4538  0.1775
   26MOL    C43 9593   3.111   1.471   1.120 -0.1084 -0.6201 -0.0681
   26MOL    C44 9594   3.105   1.550   0.996  0.1119  0.5467 -0.8834
   26MOL    C45 9595   3.238   1.575   0.924  0.5350 -0.2803  0.1586
   26MOL    C46 9596   2.997   1.482   0.904 -0.5070  0.5013  0.0108
   26MOL    H47 9597   2.835   1.534   1.398  0.3268  0.5197  0.0266
   26MOL    H48 9598   2.943   1.487   1.523  2.4165  0.0687 -0.0125
   26MOL    H49 9599   3.100   1.430   1.358  0.2367 -0.9086 -0.4508
   26MOL    H50 9600   3.123   1.367   1.090 -2.6168 -0.3641 -2.1246
   26MOL    H51 9601   3.189   1.502   1.190 -3.2277  0.7194  2.9509
   26MOL    H52 9602   3.066   1.651   1.008 -0.0873  0.5620 -1.6701
   26MOL    H53 9603   3.227   1.659   0.855 -0.0433  1.3869  2.2300
   26MOL    H54 9604   3.311   1.610   0.997  0.2578  1.1059 -0.2122
   26MOL    H55 9605   3.271   1.486   0.871  1.2073  0.3769 -0.5488
   26MOL    H56 9606   2.984   1.530   0.807 -0.8900  2.9177  1.2060
   26MOL    H57 9607   2.903   1.483   0.959 -0.8507 -1.3161 -0.4974
   26MOL    H58 9608   3.026   1.383   0.870  1.5382  1.2590 -0.5286
   26MOL    C59 9609   2.957   1.275   1.318  0.1298  0.0701  0.5155
   26MOL    C60 9610   2.912   1.205   1.453  0.1955  0.5478 -0.9055
   26MOL    O61 9611   2.931   1.061   1.456  0.7540  0.4948  0.1056
   26MOL    C62 9612   3.016   1.024   1.561 -0.0957 -0.3877  0.6376
   26MOL    C63 9613   3.060   0.876   1.542 -0.0041  0.2352  0.2776
   26MOL    C64 9614   3.183   0.846   1.623  0.0979  0.0319  0.2285
   26MOL    C65 9615   2.947   0.774   1.578  0.1154  0.8300  0.3542
   26MOL    H66 9616   3.040   1.223   1.270  1.6235  1.5695  1.4428
   26MOL    H67 9617   2.881   1.259   1.241  1.2680  0.4623 -0.6924
   26MOL    H68 9618   2.969   1.250   1.535  0.7325  1.2519 -1.6571
   26MOL    H69 9619   3.109   1.079   1.542  0.2527 -1.0810  0.3146
   26MOL    H70 9620   2.978   1.041   1.662 -1.3072  2.5661 -0.2815
   26MOL    H71 9621   3.098   0.876   1.440 -0.6356  1.2703  0.0298
   26MOL    H72 9622   3.220   0.753   1.580  0.2205  2.0575 -4.2851
   26MOL    H73 9623   3.173   0.845   1.732 -2.4458 -1.5168  0.0209
   26MOL    H74 9624   3.267   0.914   1.608 -0.3499  0.0931 -2.2072
   26MOL    H75 9625   2.985   0.674   1.558 -1.7262  0.1602  0.1258
   26MOL    H76 9626   2.908   0.780   1.680 -1.3573  1.0077 -0.2012
   26MOL    H77 9627   2.860   0.800   1.518  0.8294  0.5536 -0.8248
   26MOL    C78 9628   2.761   1.233   1.489 -0.0071  0.2393  0.0497
   26MOL    C79 9629   2.723   1.247   1.641 -1.4584  0.3856  0.1759
   26MOL    O80 9630   2.808   1.336   1.705 -0.0585  0.0627  0.5966
   26MOL    C81 9631   2.817   1.314   1.849 -0.1984 -0.1384 -0.4223
   26MOL    C82 9632   2.923   1.406   1.910  0.4785 -0.0696  0.3651
   26MOL    C83 9633   2.872   1.548   1.898  0.2383 -0.4945  0.0002
   26MOL    C84 9634   3.060   1.401   1.844 -0.6067 -0.1572 -1.3703
   26MOL    H85 9635   2.697   1.161   1.439 -1.6087  0.2751  2.0141
   26MOL    H86 9636   2.734   1.332   1.452 -1.9828 -0.7622 -1.2468
   26MOL    H87 9637   2.736   1.151   1.690  2.0341  0.5753 -0.2469
   26MOL    H88 9638   2.722   1.352   1.887  0.5932  1.6032 -0.1309
   26MOL    H89 9639   2.829   1.208   1.870  1.7762  0.1456 -0.0389
   26MOL    H90 9640   2.932   1.371   2.013  3.2451 -1.0762 -0.1518
   26MOL    H91 9641   2.937   1.634   1.915  2.3330 -2.2161  0.9007
   26MOL    H92 9642   2.791   1.554   1.970  0.6168 -1.8444  0.5621
   26MOL    H93 9643   2.821   1.565   1.803  0.6904  1.0315  0.0164
   26MOL    H94 9644   3.103   1.301   1.841 -0.1065  0.0385 -0.7127
   26MOL    H95 9645   3.135   1.474   1.872 -0.9616 -0.2616 -0.1439
   26MOL    H96 9646   3.043   1.435   1.741 -0.4628  3.9278 -0.1278
   26MOL    C97 9647   2.573   1.293   1.659 -0.8992 -0.5136  0.5065
   26MOL    C98 9648   2.499   1.224   1.782 -0.3873  0.2121 -0.3541
   26MOL    O99 9649   2.504   1.083   1.756 -0.1375 -0.2784  0.5722
   26MOL   C100 9650   2.508   0.990   1.868  0.1708 -0.1150 -0.3614
   26MOL   C101 9651   2.520   0.849   1.805  0.2093  0.5178 -0.6469
   26MOL   C102 9652   2.664   0.822   1.760 -0.5394  0.1604  0.6530
   26MOL   C103 9653   2.466   0.749   1.903  0.1093 -0.0277 -0.0325
   26MOL   H104 9654   2.517   1.260   1.571 -0.1977 -1.1191  0.2815
   26MOL   H105 9655   2.560   1.401   1.665  0.9302 -0.3405  1.3457
   26MOL   H106 9656   2.537   1.246   1.882 -0.6424  0.9257 -0.4077
   26MOL   H107 9657   2.422   1.002   1.934  0.9985 -0.3381  0.7684
   26MOL   H108 9658   2.594   1.012   1.931 -0.6052  1.1569  0.2703
   26MOL   H109 9659   2.457   0.843   1.717 -0.0107 -2.1547 -0.3470
   26MOL   H110 9660   2.668   0.730   1.701 -0.5528 -1.5489  3.2088
   26MOL   H111 9661   2.696   0.905   1.697 -3.6064  2.5736  2.1565
   26MOL   H112 9662   2.735   0.833   1.843 -1.2515  0.6861  1.2019
   26MOL   H113 9663   2.463   0.648   1.862 -0.2664 -0.5528  1.2897
   26MOL   H114 9664   2.520   0.747   1.997  1.4944 -1.2899 -0.8438
   26MOL   H115 9665   2.363   0.780   1.921  0.6407  1.2696  0.8276
   26MOL   C116 9666   2.349   1.261   1.790 -0.1618 -0.3066  0.3029
   26MOL   C117 9667   2.313   1.393   1.855  0.1282 -0.2699 -0.0040
   26MOL   O118 9668   2.177   1.380   1.884 -0.0924  0.2132  0.3946
   26MOL   C119 9669   2.085   1.424   1.778  0.6877  0.1041 -0.4289
   26MOL   C120 9670   1.937   1.381   1.812 -0.1450  0.4623  0.0826
   26MOL   C121 9671   1.866   1.450   1.927 -0.2390 -0.0202 -0.2456
   26MOL   C122 9672   1.848   1.403   1.687 -0.0595  0.3559 -0.7216
   26MOL   H123 9673   2.310   1.251   1.689  1.3240 -2.6830 -0.0747
   26MOL   H124 9674   2.305   1.181   1.849 -0.7492  0.0313  0.3314
   26MOL   H125 9675   2.334   1.476   1.789  0.3927 -0.2723  0.0770
   26MOL   H126 9676   2.114   1.386   1.680  2.1327  1.5646 -0.5973
   26MOL   H127 9677   2.079   1.533   1.772  0.2236  0.1433  0.5193
   26MOL   H128 9678   1.949   1.275   1.834  0.4120  0.2232 -1.3152
   26MOL   H129 9679   1.935   1.459   2.010 -1.5635  0.3041  0.8438
   26MOL   H130 9680   1.778   1.393   1.956  0.5022 -0.6055  0.8809
   26MOL   H131 9681   1.842   1.556   1.921 -1.5096 -0.3075 -0.5513
   26MOL   H132 9682   1.743   1.401   1.716 -0.4452  2.5279 -1.8926
   26MOL   H133 9683   1.860   1.505   1.653 -0.1646  0.8133  0.5813
   26MOL   H134 9684   1.868   1.336   1.603 -1.7674 -1.1385  0.0250
   26MOL   C135 9685   2.394   1.413   1.983 -0.1505 -0.2956  0.0041
   26MOL   C136 9686   2.331   1.513   2.085 -0.3432  0.4084  0.2065
   26MOL   O137 9687   2.408   1.504   2.205 -0.0748 -0.1843  0.5186
   26MOL   C138 9688   2.362   1.412   2.301 -0.1965 -0.4300 -0.4791
   26MOL   C139 9689   2.454   1.379   2.414  0.1041  0.1083 -0.0257
   26MOL   C140 9690   2.464   1.493   2.510  0.8744 -0.8476 -0.2579
   26MOL   C141 9691   2.402   1.245   2.475 -0.0724  0.3362 -0.1091
   26MOL   H142 9692   2.395   1.319   2.038  0.5306 -0.4629 -0.2958
   26MOL   H143 9693   2.494   1.448   1.959  0.3409 -1.8961 -0.3727
   26MOL   H144 9694   2.230   1.483   2.113  0.1781 -1.5871  0.0028
   26MOL   H145 9695   2.339   1.323   2.243  0.4545  0.2423 -1.7814
   26MOL   H146 9696   2.267   1.450   2.340 -0.5876 -1.9993  0.1252
   26MOL   H147 9697   2.557   1.356   2.384  1.1931  1.0738  2.8475
   26MOL   H148 9698   2.510   1.579   2.461  1.1328 -0.9192 -0.1423
   26MOL   H149 9699   2.534   1.457   2.585  2.0771 -1.8325 -1.8066
   26MOL   H150 9700   2.368   1.515   2.556  0.3330  1.0729 -2.1910
   26MOL   H151 9701   2.445   1.158   2.425  0.4698  0.3855  0.2675
   26MOL   H152 9702   2.429   1.232   2.580 -2.4295  0.5562  0.5335
   26MOL   H153 9703   2.295   1.224   2.474  0.3027 -1.7745  0.3398
   26MOL   C154 9704   2.333   1.658   2.036 -0.3231 -1.0388  0.5880
   26MOL   C155 9705   2.285   1.768   2.137 -0.1305 -0.8210 -0.1661
   26MOL   O156 9706   2.308   1.891   2.072 -0.7856 -0.1162  0.5320
   26MOL   C157 9707   2.412   1.975   2.128  0.2212  0.5162 -0.1615
   26MOL   C158 9708   2.440   2.106   2.058  0.3373  0.5412 -0.0826
   26MOL   C159 9709   2.496   2.073   1.922  1.1087 -1.0473 -0.0609
   26MOL   C160 9710   2.311   2.198   2.050  0.2539  0.1219  0.6386
   26MOL   H161 9711   2.302   1.671   1.932 -0.9707  0.3691  0.9547
   26MOL   H162 9712   2.440   1.673   2.023 -0.2895 -1.7307  0.0049
   26MOL   H163 9713   2.337   1.770   2.232 -0.0054 -1.1785 -0.2265
   26MOL   H164 9714   2.505   1.919   2.140 -0.0912  0.0605  0.1590
   26MOL   H165 9715   2.387   1.987   2.233 -3.8770 -0.3226 -0.9272
   26MOL   H166 9716   2.513   2.163   2.117 -0.9611  0.9020  1.2069
   26MOL   H167 9717   2.477   2.164   1.865  4.2517 -1.1967 -1.4146
   26MOL   H168 9718   2.442   2.003   1.858 -0.0243 -2.7063  2.6268
   26MOL   H169 9719   2.600   2.042   1.922  1.3638 -0.5068 -4.1271
   26MOL   H170 9720   2.336   2.300   2.024  2.2729 -0.5588 -0.2103
   26MOL   H171 9721   2.240   2.172   1.971 -1.3315  0.4316  1.9414
   26MOL   H172 9722   2.259   2.213   2.145 -0.2056 -1.8611  0.7349
   26MOL   C173 9723   2.134   1.760   2.169 -0.2479  0.4663 -0.6028
   26MOL   C174 9724   2.105   1.808   2.306  0.4212  0.3608 -0.5312
   26MOL   O175 9725   1.964   1.826   2.296 -0.7890 -0.1103  0.9876
   26MOL   C176 9726   1.933   1.960   2.302 -0.4799 -0.4076  0.0540
   26MOL   C177 9727   1.796   1.974   2.266 -0.1046 -0.2203 -0.4304
   26MOL   C178 9728   1.780   1.961   2.111  0.4081 -0.8073  0.8051
   26MOL   C179 9729   1.698   1.887   2.348 -0.0714  0.9645 -0.8418
   26MOL   H180 9730   2.078   1.818   2.095 -3.1557 -0.0535  1.1117
   26MOL   H181 9731   2.106   1.656   2.157 -0.6035  0.3820  0.9051
   26MOL   H182 9732   2.161   1.900   2.322  0.0528  0.2233  1.7972
   26MOL   H183 9733   1.999   2.009   2.230 -0.4762  1.0107  1.0055
   26MOL   H184 9734   1.952   1.982   2.407 -2.0895 -2.3231  0.7779
   26MOL   H185 9735   1.763   2.076   2.287 -1.1895 -0.7677  0.5844
   26MOL   H186 9736   1.821   1.866   2.076  2.1877  0.0507  0.4982
   26MOL   H187 9737   1.681   1.980   2.069  1.5173  3.0441 -0.2419
   26MOL   H188 9738   1.844   2.039   2.071 -1.4921  1.5872  2.3405
   26MOL   H189 9739   1.732   1.784   2.332 -0.3966  0.1049  3.4850
   26MOL   H190 9740   1.593   1.897   2.319 -0.3382 -0.8251 -0.5613
   26MOL   H191 9741   1.715   1.910   2.453 -2.0804 -2.2517  0.2706
   26MOL   C192 9742   2.148   1.712   2.421  0.9992  0.2791  0.1436
   26MOL   C193 9743   2.099   1.756   2.563 -0.1042  0.1119 -0.1003
   26MOL   O194 9744   2.167   1.672   2.662  0.1538 -0.5424  0.1944
   26MOL   C195 9745   2.213   1.739   2.773 -0.2184  0.2888  0.6612
   26MOL   C196 9746   2.325   1.839   2.751 -0.6183 -0.0397  0.2458
   26MOL   C197 9747   2.447   1.774   2.682  0.1901  0.2580  0.7937
   26MOL   C198 9748   2.363   1.904   2.883  0.7225 -0.2373 -0.0259
   26MOL   H199 9749   2.256   1.710   2.426  0.9794  1.0440  1.1918
   26MOL   H200 9750   2.111   1.611   2.404  0.1111  0.1232  2.7843
   26MOL   H201 9751   2.126   1.861   2.563 -1.5229  0.4853  0.1297
   26MOL   H202 9752   2.256   1.658   2.832 -0.9527  0.3404  1.2738
   26MOL   H203 9753   2.135   1.785   2.834  0.7405  1.4274  1.0535
   26MOL   H204 9754   2.301   1.915   2.677  1.4479 -0.2721 -0.7095
   26MOL   H205 9755   2.455   1.776   2.574 -0.3558 -1.5241  0.7013
   26MOL   H206 9756   2.534   1.835   2.708 -0.7941  1.4997  1.1868
   26MOL   H207 9757   2.454   1.671   2.718  2.6744 -0.4425 -1.5373
   26MOL   H208 9758   2.276   1.959   2.919  1.7865 -0.6671  3.4013
   26MOL   H209 9759   2.395   1.832   2.958  0.3821 -0.8538 -0.4673
   26MOL   H210 9760   2.450   1.967   2.864  1.3285 -0.5003  1.8187
   26MOL   C211 9761   1.943   1.726   2.574  0.0644  0.2954  0.0461
   26MOL   C212 9762   1.868   1.777   2.699  0.4728 -0.9400  0.0561
   26MOL   O213 9763   1.854   1.920   2.677  0.4466 -0.2553 -0.2584
   26MOL   C214 9764   1.850   1.996   2.800  0.9735 -0.7665 -0.3440
   26MOL   C215 9765   1.797   2.140   2.784  0.2386  0.6049  0.1184
   26MOL   C216 9766   1.879   2.214   2.685  1.0558 -0.2550 -0.4924
   26MOL   C217 9767   1.654   2.135   2.745  0.3186 -0.4938 -0.1766
   26MOL   H218 9768   1.924   1.619   2.558  0.5851  0.2432 -0.2405
   26MOL   H219 9769   1.880   1.775   2.501 -1.9924 -2.8872 -0.4415
   26MOL   H220 9770   1.920   1.762   2.793  1.4259  1.1138 -0.1222
   26MOL   H221 9771   1.947   2.004   2.849 -0.1013  0.4622  1.6421
   26MOL   H222 9772   1.803   1.946   2.885  1.2538 -0.1702  0.1655
   26MOL   H223 9773   1.811   2.184   2.883  2.3082  1.9126 -0.7074
   26MOL   H224 9774   1.837   2.196   2.586  0.5451 -0.1948 -0.2894
   26MOL   H225 9775   1.862   2.318   2.713 -0.3515 -1.5001  3.6530
   26MOL   H226 9776   1.980   2.173   2.686 -0.1432 -3.3643 -1.6478
   26MOL   H227 9777   1.600   2.227   2.764  0.8276 -0.1306 -0.4803
   26MOL   H228 9778   1.605   2.060   2.807  0.3221  0.2894  0.7833
   26MOL   H229 9779   1.631   2.126   2.639  0.5748 -1.6219 -0.1490
   26MOL   C230 9780   1.733   1.705   2.717  0.7336 -0.1964  0.8129
   26MOL   C231 9781   1.730   1.566   2.787  0.2688 -0.7756  0.1362
   26MOL   O232 9782   1.779   1.605   2.918  1.2801  0.0031 -0.2227
   26MOL   C233 9783   1.793   1.500   3.016  0.5041  0.3300  0.7793
   26MOL   C234 9784   1.906   1.529   3.122 -0.5184  0.3857  0.1136
   26MOL   C235 9785   2.048   1.527   3.065 -0.1279  0.0419  0.4617
   26MOL   C236 9786   1.883   1.654   3.207  0.4733 -0.1230  1.0876
   26MOL   H237 9787   1.696   1.695   2.615 -0.7995  1.1185  1.2161
   26MOL   H238 9788   1.659   1.772   2.761 -0.9587 -1.5686  0.1446
   26MOL   H239 9789   1.817   1.510   2.753  0.6527  0.1405 -0.4081
   26MOL   H240 9790   1.692   1.490   3.055  0.4998 -0.5519  0.5640
   26MOL   H241 9791   1.817   1.408   2.961 -3.0727  1.1131 -2.2766
   26MOL   H242 9792   1.904   1.439   3.184  0.5982 -0.9720 -1.7803
   26MOL   H243 9793   2.061   1.592   2.979 -1.4908 -1.9610 -1.3119
   26MOL   H244 9794   2.067   1.429   3.022  4.2259  1.0322 -0.0805
   26MOL   H245 9795   2.118   1.555   3.144 -1.5568  2.2422  1.0125
   26MOL   H246 9796   1.798   1.650   3.275  1.5914 -1.5980  2.4420
   26MOL   H247 9797   1.971   1.682   3.265 -0.5556  0.6540  2.2782
   26MOL   H248 9798   1.878   1.744   3.146 -1.2446  0.4942  2.1218
   26MOL   C249 9799   1.594   1.500   2.796 -0.5938 -0.5800  0.5093
   26MOL   C250 9800   1.512   1.462   2.669 -0.7257  0.1768  0.9070
   26MOL   O251 9801   1.435   1.587   2.622  0.3658  0.2437 -0.8253
   26MOL   C252 9802   1.326   1.574   2.528 -0.1375  0.4410  0.3513
   26MOL   C253 9803   1.252   1.703   2.512 -0.1297 -0.0112  0.5584
   26MOL   C254 9804   1.358   1.815   2.501  0.1882 -0.6522  0.3582
   26MOL   C255 9805   1.156   1.725   2.631  0.0915  0.0258  0.2175
   26MOL   H256 9806   1.532   1.558   2.866 -0.7149 -2.1195  1.7026
   26MOL   H257 9807   1.612   1.408   2.852  0.3941 -0.0548  1.0777
   26MOL   H258 9808   1.441   1.382   2.691 -0.3071  0.3106  2.8253
   26MOL   H259 9809   1.354   1.538   2.429  0.5679  2.6835 -0.2884
   26MOL   H260 9810   1.260   1.491   2.556 -2.9170  1.6168 -2.4729
   26MOL   H261 9811   1.191   1.686   2.423 -1.9057 -0.8608  1.9120
   26MOL   H262 9812   1.416   1.793   2.412 -2.4104  0.2788 -1.6424
   26MOL   H263 9813   1.420   1.822   2.590  2.0508  3.5144 -1.1281
   26MOL   H264 9814   1.305   1.911   2.504  4.1140  1.5942  1.3820
   26MOL   H265 9815   1.087   1.806   2.609 -1.3084 -1.0821  0.4217
   26MOL   H266 9816   1.090   1.642   2.658 -1.0909  0.7176 -0.5021
   26MOL   H267 9817   1.200   1.755   2.726  2.7211 -1.2321 -0.5434
   26MOL   C268 9818   1.603   1.411   2.552 -0.5701 -1.0687 -0.0708
   26MOL   C269 9819   1.543   1.307   2.459 -0.1822  0.2801  1.0134
   26MOL   O270 9820   1.520   1.174   2.523  0.4562 -0.1203  0.2072
   26MOL   C271 9821   1.387   1.119   2.500 -0.1520  0.7622 -0.5034
   26MOL   C272 9822   1.382   0.994   2.594  0.9521 -0.6348  1.0443
   26MOL   C273 9823   1.492   0.892   2.565  0.1518  0.3946 -0.2066
   26MOL   C274 9824   1.369   1.029   2.737 -0.1369 -0.6738  0.3748
   26MOL   H275 9825   1.690   1.361   2.595  0.2852 -1.1335 -1.8306
   26MOL   H276 9826   1.646   1.492   2.494  0.9596 -2.0380 -0.3215
   26MOL   H277 9827   1.448   1.345   2.420  0.8769  1.0742 -0.8626
   26MOL   H278 9828   1.297   1.176   2.520 -0.5020  0.3099 -0.7784
   26MOL   H279 9829   1.369   1.070   2.404 -0.3217 -2.2477  0.9980
   26MOL   H280 9830   1.287   0.953   2.560  0.1923  2.2271 -0.4891
   26MOL   H281 9831   1.587   0.926   2.605  0.5772 -1.3364  0.3234
   26MOL   H282 9832   1.499   0.883   2.456  0.7883 -0.5836 -0.0935
   26MOL   H283 9833   1.478   0.796   2.616  0.8808 -0.5956 -1.8246
   26MOL   H284 9834   1.456   1.087   2.769 -1.1119 -0.4943  2.8302
   26MOL   H285 9835   1.382   0.945   2.805 -1.6499 -0.1385  1.3437
   26MOL   H286 9836   1.274   1.082   2.750  0.4258  0.7722 -1.1524
   26MOL   C287 9837   1.623   1.285   2.331 -0.1536 -0.3107 -0.2383
   26MOL   C288 9838   1.543   1.298   2.204 -0.3574  0.9475  0.4834
   26MOL   O289 9839   1.625   1.232   2.104  0.3680  0.2011 -0.4387
   26MOL   C290 9840   1.543   1.170   2.001  0.4115  0.2249  0.5836
   26MOL   C291 9841   1.601   1.040   1.933 -0.3988 -0.6538 -0.0006
   26MOL   C292 9842   1.629   0.925   2.034 -0.1218 -0.5553  0.0138
   26MOL   C293 9843   1.737   1.087   1.857  0.1663 -0.1835 -0.3563
   26MOL   H294 9844   1.659   1.182   2.339  0.4563 -0.1655 -1.0380
   26MOL   H295 9845   1.714   1.343   2.323  0.5630 -1.3456  0.3381
   26MOL   H296 9846   1.451   1.244   2.225  0.1013 -0.4368 -1.0442
   26MOL   H297 9847   1.444   1.138   2.031  1.1647 -3.2958 -0.4139
   26MOL   H298 9848   1.527   1.244   1.922  1.4322 -2.4415 -2.2745
   26MOL   H299 9849   1.529   0.994   1.865  1.3394  0.0752 -2.4323
   26MOL   H300 9850   1.713   0.865   1.998 -1.2031 -1.3896 -1.1990
   26MOL   H301 9851   1.539   0.866   2.047 -1.5267  1.5474  0.0959
   26MOL   H302 9852   1.658   0.963   2.132  1.8387 -2.2403  0.1145
   26MOL   H303 9853   1.802   1.136   1.929 -1.9249  0.7672  0.9174
   26MOL   H304 9854   1.791   1.010   1.802  2.8472  1.0981  0.4127
   26MOL   H305 9855   1.704   1.173   1.798  0.9295  0.4826  0.1677
   26MOL   C306 9856   1.512   1.445   2.162  0.3830 -0.3411  0.1133
   26MOL   C307 9857   1.378   1.456   2.078  0.9470 -0.0836  0.2929
   26MOL   O308 9858   1.274   1.461   2.169 -0.5228  0.0823  0.4967
   26MOL   C309 9859   1.173   1.360   2.137  0.1523 -0.0752 -0.3715
   26MOL   C310 9860   1.076   1.366   2.241 -0.1020  0.2221 -0.0655
   26MOL   C311 9861   0.972   1.259   2.215 -0.1704  0.3247  0.0913
   26MOL   C312 9862   1.005   1.500   2.250 -0.1644 -0.4620 -0.0275
   26MOL   H313 9863   1.599   1.489   2.113  0.4635 -1.2219 -0.5526
   26MOL   H314 9864   1.504   1.516   2.245 -0.5421  1.7508 -1.7295
   26MOL   H315 9865   1.381   1.362   2.023 -0.8924  1.4070 -2.4471
   26MOL   H316 9866   1.217   1.261   2.132  1.0098  0.2180  0.9373
   26MOL   H317 9867   1.127   1.389   2.043  1.0518  0.7902 -0.5570
   26MOL   H318 9868   1.122   1.328   2.332  0.2671 -0.4866 -0.5453
   26MOL   H319 9869   0.895   1.273   2.291  0.7778  0.6522  1.0010
   26MOL   H320 9870   1.030   1.167   2.219  0.6612  0.9032  1.8607
   26MOL   H321 9871   0.919   1.263   2.119 -0.0508 -1.3466 -0.0660
   26MOL   H322 9872   1.077   1.578   2.275 -1.9338  0.5024  2.3766
   26MOL   H323 9873   0.917   1.512   2.314  0.6411  1.4963  0.7428
   26MOL   H324 9874   0.958   1.526   2.155 -1.7769  1.8983  1.3482
   26MOL   C325 9875   1.379   1.549   1.964  0.4365  0.1313  0.2747
   26MOL   C326 9876   1.435   1.692   1.977  0.1706  0.1772  0.0137
   26MOL   O327 9877   1.479   1.743   1.848  0.1839  0.1653  0.4492
   26MOL   C328 9878   1.616   1.728   1.823 -0.1355  0.3494  0.0627
   26MOL   C329 9879   1.658   1.812   1.703 -1.0801  0.2833  0.1560
   26MOL   C330 9880   1.819   1.824   1.694  0.6561 -0.2395  0.2876
   26MOL   C331 9881   1.606   1.749   1.575  0.8349  0.0308  0.4090
   26MOL   H332 9882   1.284   1.555   1.910 -0.0989 -0.2367  1.1591
   26MOL   H333 9883   1.437   1.488   1.894 -0.2123  0.4030 -0.5146
   26MOL   H334 9884   1.518   1.707   2.046  0.7105 -0.3122 -0.5220
   26MOL   H335 9885   1.684   1.756   1.904  1.0969 -3.4062  0.4103
   26MOL   H336 9886   1.633   1.622   1.811 -0.7745 -0.0900  2.6802
   26MOL   H337 9887   1.627   1.915   1.718 -1.6187 -0.1065  1.7824
   26MOL   H338 9888   1.845   1.843   1.590 -0.0357 -3.1763 -0.4871
   26MOL   H339 9889   1.848   1.907   1.758  0.0313 -1.3565  2.0775
   26MOL   H340 9890   1.867   1.730   1.723 -1.0699 -1.1941  0.1137
   26MOL   H341 9891   1.497   1.752   1.573  0.8274 -0.1443  0.5106
   26MOL   H342 9892   1.626   1.803   1.482 -1.5275  2.7790  1.4471
   26MOL   H343 9893   1.636   1.644   1.579 -0.4563 -0.2986  1.8489
   26MOL   C344 9894   1.318   1.780   2.028 -0.0838  0.0817  0.3081
   26MOL   C345 9895   1.344   1.933   2.021 -0.4624  0.1490  0.4092
   26MOL   O346 9896   1.248   2.005   1.935  0.5977  0.4705  0.0324
   26MOL   C347 9897   1.247   1.978   1.799  0.3291 -0.1645 -0.0926
   26MOL   C348 9898   1.166   2.062   1.697  0.1523  0.0983 -0.5908
   26MOL   C349 9899   1.018   2.020   1.684  0.2132  0.0416 -0.0506
   26MOL   C350 9900   1.232   2.058   1.561 -0.1360  0.1596 -0.0986
   26MOL   H351 9901   1.301   1.762   2.134 -2.6669  0.0521 -0.0845
   26MOL   H352 9902   1.231   1.752   1.969  0.2945  1.0164 -0.7282
   26MOL   H353 9903   1.443   1.951   1.981 -0.6150 -1.9302 -1.0026
   26MOL   H354 9904   1.214   1.876   1.777  0.3250 -0.6698  2.1555
   26MOL   H355 9905   1.352   1.970   1.772  0.0527 -1.3194 -0.8593
   26MOL   H356 9906   1.166   2.168   1.726 -3.5107 -0.3473  1.3832
   26MOL   H357 9907   0.984   1.917   1.677 -3.0416  1.1767 -1.9350
   26MOL   H358 9908   0.954   2.070   1.611 -0.1677  0.0488  0.2922
   26MOL   H359 9909   0.975   2.050   1.780 -0.9776  3.1851 -1.4866
   26MOL   H360 9910   1.334   2.098   1.559  0.1645 -0.6255 -0.7394
   26MOL   H361 9911   1.234   1.952   1.535  1.5095  0.2541 -0.4348
   26MOL   H362 9912   1.159   2.105   1.497 -1.2935  0.5918  1.5092
   26MOL   C363 9913   1.348   2.005   2.155  0.4350  0.1330  0.0518
   26MOL   C364 9914   1.374   2.149   2.153  0.1337  0.7019  0.6981
   26MOL   O365 9915   1.418   2.189   2.278  0.7824 -0.5813  0.1021
   26MOL   C366 9916   1.392   2.326   2.296  0.0456  0.1589 -0.2308
   26MOL   C367 9917   1.434   2.348   2.449  0.5352 -0.7942 -0.0821
   26MOL   C368 9918   1.589   2.334   2.469 -0.7428 -0.1153  0.0073
   26MOL   C369 9919   1.365   2.251   2.551  0.2942  0.0407 -0.9888
   26MOL   H370 9920   1.251   1.987   2.201  0.9622 -1.3439  0.6110
   26MOL   H371 9921   1.423   1.954   2.215  2.2979 -0.3334 -2.5947
   26MOL   H372 9922   1.278   2.197   2.133 -0.3288 -0.2917  0.5262
   26MOL   H373 9923   1.457   2.386   2.232 -0.0888  0.1573 -0.3702
   26MOL   H374 9924   1.288   2.343   2.266  0.6130  1.5826 -1.4427
   26MOL   H375 9925   1.409   2.452   2.468  2.0513 -0.2457 -0.9700
   26MOL   H376 9926   1.611   2.371   2.569  0.5633  0.4353 -0.4678
   26MOL   H377 9927   1.644   2.407   2.410  0.4518 -0.9573  0.0673
   26MOL   H378 9928   1.627   2.234   2.450 -0.3024 -0.0587  0.5834
   26MOL   H379 9929   1.266   2.230   2.510 -0.1787  0.3108 -0.0002
   26MOL   H380 9930   1.360   2.295   2.650 -1.1508 -0.6122 -0.7503
   26MOL   H381 9931   1.408   2.151   2.560 -2.1308 -0.8348  2.1699
   26MOL   H382 9932   1.443   2.169   2.071 -1.4187 -0.9561 -1.0694
   27MOL     C1 9933   1.702   2.440   3.015 -0.0109 -1.2793 -0.0531
   27MOL     C2 9934   1.766   2.581   3.024 -0.1541  0.6468 -1.0244
   27MOL     O3 9935   1.719   2.661   2.907  0.0438 -0.1134 -0.1596
   27MOL     C4 9936   1.752   2.625   2.769 -0.3763  0.4912  0.2296
   27MOL     C5 9937   1.753   2.749   2.673  0.1100  0.4199 -0.0787
   27MOL     C6 9938   1.809   2.711   2.530 -0.2934  0.6101 -0.2742
   27MOL     C7 9939   1.840   2.865   2.727  0.2934 -0.3427  0.4233
   27MOL     H8 9940   1.743   2.382   2.932  1.4995 -2.2092  1.2958
   27MOL     H9 9941   1.723   2.378   3.102 -0.8465  0.9169  1.7804
   27MOL    H10 9942   1.872   2.556   3.011  0.5795  0.8924  3.6773
   27MOL    H11 9943   1.690   2.540   2.738  0.4418  0.5503 -1.6579
   27MOL    H12 9944   1.851   2.581   2.778 -0.8897 -1.1662 -1.8030
   27MOL    H13 9945   1.652   2.790   2.669  0.5350  1.5406  0.4422
   27MOL    H14 9946   1.798   2.794   2.460 -1.1895  1.6174  1.0326
   27MOL    H15 9947   1.912   2.679   2.548 -1.0312 -1.2381  0.8586
   27MOL    H16 9948   1.761   2.623   2.488  0.2519  0.1507  0.0516
   27MOL    H17 9949   1.948   2.854   2.731  0.8191  3.1082 -2.0660
   27MOL    H18 9950   1.807   2.957   2.679 -1.2520 -1.2903 -0.3696
   27MOL    H19 9951   1.813   2.880   2.832 -2.6078  0.4132 -0.3669
   27MOL    H20 9952   1.595   2.455   3.007  0.2889  0.0885 -1.9794
   27MOL    C21 9953   1.733   2.659   3.150  0.1421  0.1549  0.3395
   27MOL    C22 9954   1.794   2.798   3.173 -0.5339 -0.8757  0.3839
   27MOL    O23 9955   1.742   2.853   3.295 -0.2967  0.0176 -0.0622
   27MOL    C24 9956   1.600   2.877   3.298  0.9899 -0.6021  0.0006
   27MOL    C25 9957   1.577   2.996   3.391  0.1522 -0.6136 -0.5314
   27MOL    C26 9958   1.589   2.966   3.545 -0.1046  0.2685  0.5253
   27MOL    C27 9959   1.657   3.118   3.339 -0.3734  0.2677 -0.5031
   27MOL    H28 9960   1.625   2.663   3.140  0.2192  0.2264 -0.4996
   27MOL    H29 9961   1.751   2.603   3.242 -0.8644  1.4938  1.3607
   27MOL    H30 9962   1.776   2.872   3.094 -0.3480  0.3717  1.4883
   27MOL    H31 9963   1.540   2.790   3.323  0.2675  0.3149  1.5511
   27MOL    H32 9964   1.566   2.910   3.200 -2.8321 -0.5000  1.3012
   27MOL    H33 9965   1.474   3.028   3.373 -0.5214 -1.7930  1.1283
   27MOL    H34 9966   1.514   2.888   3.558 -0.2426  0.3704  0.3449
   27MOL    H35 9967   1.549   3.054   3.595 -2.5441  0.3032 -1.3651
   27MOL    H36 9968   1.690   2.937   3.570 -0.7895 -2.3409  0.3845
   27MOL    H37 9969   1.602   3.204   3.377 -1.0927  0.0978 -1.1645
   27MOL    H38 9970   1.748   3.116   3.399  0.1424  3.1990 -1.1176
   27MOL    H39 9971   1.681   3.117   3.233  2.1327  2.1986 -0.0019
   27MOL    C40 9972   1.939   2.782   3.182  0.4327 -0.0684  0.9032
   27MOL    C41 9973   2.019   2.907   3.217 -0.5662 -0.0342 -0.0095
   27MOL    O42 9974   1.998   2.997   3.100  0.1986  0.1136 -0.6710
   27MOL    C43 9975   2.034   3.135   3.124  0.2636 -0.4026  0.1854
   27MOL    C44 9976   2.008   3.222   3.008  0.6414 -0.4357 -0.0166
   27MOL    C45 9977   1.876   3.207   2.928  0.2343  0.1626  0.0837
   27MOL    C46 9978   2.044   3.368   3.036 -0.0017  0.2800 -0.5373
   27MOL    H47 9979   1.968   2.753   3.081  2.6441  0.3955  1.3795
   27MOL    H48 9980   1.975   2.702   3.247  0.2144  1.3087  2.7536
   27MOL    H49 9981   1.974   2.949   3.307  0.8554  0.1491  0.6338
   27MOL    H50 9982   2.139   3.153   3.144  0.2324  0.4924 -0.4253
   27MOL    H51 9983   1.976   3.172   3.209  0.8570  0.4197  0.2356
   27MOL    H52 9984   2.082   3.192   2.934 -0.3903 -0.9366 -0.8567
   27MOL    H53 9985   1.866   3.263   2.835  0.9288 -0.1924 -0.2038
   27MOL    H54 9986   1.855   3.102   2.909  1.0762 -0.1323  0.7089
   27MOL    H55 9987   1.789   3.229   2.990  0.1646  0.6906 -0.2025
   27MOL    H56 9988   2.086   3.401   2.941  0.6543 -0.4219 -0.4958
   27MOL    H57 9989   2.124   3.368   3.110 -0.8754 -1.0695  0.4291
   27MOL    H58 9990   1.954   3.424   3.062 -1.4118 -1.6852 -1.0725
   27MOL    C59 9991   2.165   2.864   3.227 -0.2884  0.1987 -0.2899
   27MOL    C60 9992   2.208   2.796   3.362  0.3486 -0.2585  0.0123
   27MOL    O61 9993   2.183   2.895   3.465  0.2254  0.5880 -0.0312
   27MOL    C62 9994   2.133   2.844   3.585  0.9046  0.8256 -0.5379
   27MOL    C63 9995   2.159   2.965   3.679  0.2615 -0.1501  0.2646
   27MOL    C64 9996   2.077   3.083   3.634  0.2594 -0.1553  0.2362
   27MOL    C65 9997   2.126   2.921   3.821 -0.1940  0.4130  0.3009
   27MOL    H66 9998   2.227   2.953   3.212 -2.1068  1.5246 -0.0413
   27MOL    H67 9999   2.189   2.810   3.136 -3.5474  0.5372 -1.3829
   27MOL    H6810000   2.156   2.703   3.382  1.0151 -0.2608  1.7734
   27MOL    H6910001   2.030   2.818   3.563  0.2160  4.1629 -1.4861
   27MOL    H7010002   2.184   2.755   3.620  0.1123  0.8447  0.6769
   27MOL    H7110003   2.264   2.995   3.688  0.0478  0.6457  0.0912
   27MOL    H7210004   2.087   3.160   3.710 -0.2730 -0.3970  0.5563
   27MOL    H7310005   1.977   3.040   3.638  1.2772 -2.5271  0.9013
   27MOL    H7410006   2.085   3.117   3.531  1.7802  0.4282  0.5373
   27MOL    H7510007   2.027   2.876   3.825  0.5453 -1.0645  2.0926
   27MOL    H7610008   2.197   2.844   3.849 -0.7779 -1.1420 -2.2511
   27MOL    H7710009   2.131   3.003   3.893 -0.8831  2.3670 -1.7919
   27MOL    C7810010   2.361   2.770   3.366  0.2506 -0.8559 -0.3417
   27MOL    C7910011   2.413   2.666   3.265  0.1894 -0.2648 -1.0326
   27MOL    O8010012   2.557   2.687   3.249 -0.1449  0.2665  0.7131
   27MOL    C8110013   2.586   2.783   3.146  0.3491 -0.6948 -0.2529
   27MOL    C8210014   2.723   2.749   3.090 -0.3990  0.3451 -0.8027
   27MOL    C8310015   2.783   2.849   2.992 -0.1533  0.0032  0.0782
   27MOL    C8410016   2.742   2.609   3.027  0.1170  0.0327  0.4193
   27MOL    H8510017   2.384   2.729   3.465  2.5902  2.1087  0.4109
   27MOL    H8610018   2.407   2.868   3.369  0.0065 -0.7649  0.7935
   27MOL    H8710019   2.352   2.667   3.175 -1.5555  1.0301  0.1421
   27MOL    H8810020   2.521   2.765   3.061 -0.0750  4.1264 -1.0936
   27MOL    H8910021   2.572   2.882   3.189  1.5734 -1.2386  1.4841
   27MOL    H9010022   2.794   2.740   3.173 -2.7861 -0.0371  1.2309
   27MOL    H9110023   2.823   2.940   3.036 -0.0210  1.5639 -3.0701
   27MOL    H9210024   2.711   2.891   2.920  2.0691  1.7101 -1.2397
   27MOL    H9310025   2.865   2.812   2.931  0.3756  0.3843  0.5534
   27MOL    H9410026   2.846   2.600   2.997 -0.2600 -0.3684 -0.7995
   27MOL    H9510027   2.684   2.593   2.937  1.4858 -1.8014 -0.1593
   27MOL    H9610028   2.714   2.531   3.098 -1.6729 -0.8556 -1.2101
   27MOL    C9710029   2.400   2.523   3.316  0.1596 -0.0157  0.1443
   27MOL    C9810030   2.418   2.420   3.205  1.2712 -0.2610  0.6934
   27MOL    O9910031   2.312   2.426   3.109 -0.6514 -0.2300 -0.0031
   27MOL   C10010032   2.356   2.433   2.973 -0.4975  0.3166  0.1975
   27MOL   C10110033   2.235   2.441   2.888 -0.1356 -0.2809  0.0629
   27MOL   C10210034   2.151   2.317   2.906 -0.4080 -0.0289 -0.2540
   27MOL   C10310035   2.141   2.559   2.904  0.5863  0.5102 -0.0942
   27MOL   H10410036   2.307   2.499   3.369  0.6491 -2.6551 -0.1091
   27MOL   H10510037   2.482   2.517   3.388 -0.0741  1.1973  0.5233
   27MOL   H10610038   2.512   2.441   3.153 -0.0623  0.1312 -1.6086
   27MOL   H10710039   2.410   2.343   2.943  0.2327  1.4139 -1.8935
   27MOL   H10810040   2.430   2.511   2.955 -0.2704  0.5947  2.1739
   27MOL   H10910041   2.259   2.445   2.782  2.3223 -1.3861  0.5606
   27MOL   H11010042   2.190   2.223   2.867 -1.5878 -1.4515  1.8154
   27MOL   H11110043   2.125   2.303   3.011  0.1143 -1.2147 -0.2762
   27MOL   H11210044   2.050   2.315   2.864 -1.2786  1.3571  1.6699
   27MOL   H11310045   2.057   2.565   2.835  0.7447 -0.1757 -0.3522
   27MOL   H11410046   2.099   2.547   3.004 -0.2556 -2.4766 -0.7770
   27MOL   H11510047   2.194   2.655   2.904 -2.0355  2.0372 -2.5234
   27MOL   C11610048   2.422   2.270   3.244  0.9976 -0.6661  0.1938
   27MOL   C11710049   2.559   2.217   3.277 -0.0126  0.3818  0.0020
   27MOL   O11810050   2.547   2.085   3.318 -0.2121 -0.0303 -0.1200
   27MOL   C11910051   2.534   2.067   3.455 -0.3302  0.4376 -0.0522
   27MOL   C12010052   2.496   1.914   3.468  0.0563 -0.5406 -0.1304
   27MOL   C12110053   2.584   1.828   3.376 -0.6062 -0.5691 -0.1017
   27MOL   C12210054   2.499   1.862   3.618 -0.2372 -0.0979  0.2422
   27MOL   H12310055   2.350   2.254   3.324  0.3069  3.2680  0.4443
   27MOL   H12410056   2.376   2.203   3.171 -1.8064  2.2505 -0.8741
   27MOL   H12510057   2.608   2.281   3.351  0.4192  0.9649 -0.7835
   27MOL   H12610058   2.464   2.137   3.502  2.4925  1.6270  2.5092
   27MOL   H12710059   2.633   2.099   3.485 -0.5063  2.3230 -1.3769
   27MOL   H12810060   2.395   1.891   3.436  0.4899 -1.7189 -0.6798
   27MOL   H12910061   2.687   1.854   3.400 -0.4446 -2.6489  1.6292
   27MOL   H13010062   2.567   1.824   3.269 -0.0970 -1.1942 -0.1643
   27MOL   H13110063   2.574   1.726   3.414 -0.9532  0.4919  2.7713
   27MOL   H13210064   2.460   1.761   3.613 -0.0083 -0.0889 -2.4103
   27MOL   H13310065   2.593   1.864   3.675  0.3675  0.1439 -0.7438
   27MOL   H13410066   2.425   1.916   3.676  1.2274  3.0544 -0.6871
   27MOL   C13510067   2.660   2.207   3.155 -0.4674 -0.1289  0.2223
   27MOL   C13610068   2.801   2.148   3.187  0.1128  0.2385 -0.7487
   27MOL   O13710069   2.858   2.090   3.070 -0.3468 -0.4696 -0.1904
   27MOL   C13810070   2.801   1.960   3.038  0.0701 -0.2319  0.4617
   27MOL   C13910071   2.847   1.917   2.896  0.0829  0.0070  0.0138
   27MOL   C14010072   2.782   1.787   2.856  0.4803  0.0024  0.2758
   27MOL   C14110073   2.819   2.028   2.788 -0.3478  0.1284  0.1218
   27MOL   H14210074   2.606   2.152   3.078 -1.1458  0.3819  0.3237
   27MOL   H14310075   2.677   2.310   3.123  1.2862 -0.1088  1.1746
   27MOL   H14410076   2.790   2.067   3.260  1.4396  0.6014 -0.1426
   27MOL   H14510077   2.694   1.973   3.024  0.2404  2.5242  1.4439
   27MOL   H14610078   2.817   1.877   3.107  3.7748  1.0897  1.3331
   27MOL   H14710079   2.955   1.903   2.889  0.3195  1.3249  0.9592
   27MOL   H14810080   2.859   1.710   2.854  0.5263  0.0554  0.0407
   27MOL   H14910081   2.745   1.784   2.753  0.8423  1.6549  0.0832
   27MOL   H15010082   2.702   1.752   2.922  0.5728  1.1058  0.9853
   27MOL   H15110083   2.880   2.001   2.702  0.4215  2.8805 -0.2687
   27MOL   H15210084   2.718   2.021   2.750 -0.8039  2.4164  0.8118
   27MOL   H15310085   2.844   2.124   2.835 -0.1454 -0.4832  1.2876
   27MOL   C15410086   2.898   2.250   3.245  0.2773  0.3113  0.6923
   27MOL   C15510087   3.033   2.204   3.301  0.0374 -0.3455  0.1021
   27MOL   O15610088   3.131   2.288   3.235  0.4238 -0.2729 -0.3125
   27MOL   C15710089   3.177   2.237   3.110  0.1808 -0.0999  0.6386
   27MOL   C15810090   3.216   2.351   3.017 -0.0625 -0.5551 -0.1695
   27MOL   C15910091   3.323   2.442   3.081 -0.1818  0.6269 -0.3575
   27MOL   C16010092   3.260   2.294   2.882 -0.3776  0.4197 -0.5851
   27MOL   H16110093   2.840   2.302   3.322  0.3738 -0.9110  1.6077
   27MOL   H16210094   2.914   2.322   3.164 -0.4474 -1.4938 -1.0876
   27MOL   H16310095   3.058   2.103   3.267  0.0732 -0.3257  0.0705
   27MOL   H16410096   3.097   2.179   3.061  0.7448 -0.8723  0.6176
   27MOL   H16510097   3.253   2.159   3.105  0.4311  0.0920  1.4799
   27MOL   H16610098   3.132   2.417   3.000 -0.7515 -1.2781  0.4177
   27MOL   H16710099   3.407   2.388   3.125 -0.4298 -0.5383 -1.2851
   27MOL   H16810100   3.286   2.496   3.169 -1.1393 -0.5426 -0.0332
   27MOL   H16910101   3.360   2.519   3.013  1.1076 -0.7807 -1.2723
   27MOL   H17010102   3.293   2.369   2.810  0.5031 -0.5937 -1.2523
   27MOL   H17110103   3.332   2.215   2.903 -1.2382 -0.3804 -0.5501
   27MOL   H17210104   3.172   2.242   2.844  0.2257  0.1537 -1.6362
   27MOL   C17310105   3.060   2.222   3.454  0.6127  0.4297  0.9164
   27MOL   C17410106   2.989   2.112   3.527  0.0596  0.0684 -1.0631
   27MOL   O17510107   3.046   1.987   3.498 -0.2498  0.1253 -0.5264
   27MOL   C17610108   2.962   1.897   3.432  0.3002  0.6930  0.2749
   27MOL   C17710109   3.034   1.757   3.430 -0.0035  0.4952  0.2641
   27MOL   C17810110   3.145   1.744   3.336  0.0219  0.2113  0.0545
   27MOL   C17910111   3.064   1.711   3.574 -0.2363 -0.4664 -0.3500
   27MOL   H18010112   3.165   2.206   3.479  0.3536 -0.7477  1.2515
   27MOL   H18110113   3.025   2.322   3.480 -2.0323  0.0175 -0.7928
   27MOL   H18210114   2.883   2.115   3.499  0.1100  1.6341 -1.1409
   27MOL   H18310115   2.934   1.925   3.330  0.6456 -0.3622 -0.1097
   27MOL   H18410116   2.867   1.890   3.485 -0.2339 -2.8583 -1.0369
   27MOL   H18510117   2.952   1.695   3.393 -1.3905  1.7562  1.1332
   27MOL   H18610118   3.198   1.838   3.324 -1.8119  1.1248 -1.0664
   27MOL   H18710119   3.218   1.669   3.369 -0.2416  0.5250  1.3915
   27MOL   H18810120   3.102   1.713   3.241  0.2267 -4.0684  1.2103
   27MOL   H18910121   3.127   1.784   3.624 -0.0810  0.1072 -1.3675
   27MOL   H19010122   3.116   1.615   3.579 -1.4994 -1.1351  0.1430
   27MOL   H19110123   2.973   1.709   3.635  0.3241 -1.6742  0.4720
   27MOL   C19210124   2.996   2.125   3.683 -0.4409  0.1113 -0.2808
   27MOL   C19310125   2.928   2.245   3.750 -0.4297  0.0083  0.5814
   27MOL   O19410126   2.974   2.234   3.884 -0.4769 -0.2109  0.0153
   27MOL   C19510127   3.100   2.299   3.908 -0.5316 -0.4037  0.1448
   27MOL   C19610128   3.158   2.237   4.033 -0.3430 -0.3707 -0.3271
   27MOL   C19710129   3.280   2.324   4.076  0.4215  0.4647 -0.2724
   27MOL   C19810130   3.188   2.085   4.005 -0.0781  0.3581 -0.1067
   27MOL   H19910131   3.102   2.116   3.702 -1.0403 -0.6816  2.9815
   27MOL   H20010132   2.944   2.037   3.720 -2.1701  1.5477  0.7995
   27MOL   H20110133   2.962   2.342   3.713  0.0800 -0.7514 -0.9571
   27MOL   H20210134   3.076   2.404   3.925 -0.8838 -0.5967  0.8209
   27MOL   H20310135   3.176   2.292   3.830  0.5534 -1.7035  1.2880
   27MOL   H20410136   3.086   2.250   4.114  1.2092 -0.2681  1.0758
   27MOL   H20510137   3.339   2.281   4.157  2.4564  2.1854 -0.7923
   27MOL   H20610138   3.350   2.327   3.993  2.0401  1.6804  1.0978
   27MOL   H20710139   3.252   2.428   4.089  0.5427  0.6076 -1.1769
   27MOL   H20810140   3.274   2.076   3.938 -1.0982 -0.7102 -1.2835
   27MOL   H20910141   3.219   2.043   4.101 -0.8682 -0.2840 -0.1363
   27MOL   H21010142   3.109   2.030   3.955 -1.8252  1.9046  0.9008
   27MOL   C21110143   2.771   2.241   3.738 -0.2820  0.6433  0.5832
   27MOL   C21210144   2.697   2.373   3.779  0.3905 -0.4360 -0.0793
   27MOL   O21310145   2.720   2.466   3.679 -0.2835 -0.1714  0.0583
   27MOL   C21410146   2.784   2.581   3.728  0.1282 -0.2312  0.6071
   27MOL   C21510147   2.824   2.676   3.615  0.3170  0.3771  0.1227
   27MOL   C21610148   2.872   2.596   3.492  1.2119 -0.5412  0.1695
   27MOL   C21710149   2.711   2.778   3.591  0.2683  0.1731 -0.4191
   27MOL   H21810150   2.725   2.159   3.793 -1.0254  0.1606 -0.7465
   27MOL   H21910151   2.759   2.212   3.634 -0.1438  0.0509  0.7296
   27MOL   H22010152   2.733   2.413   3.874  2.0001 -1.2761 -0.3126
   27MOL   H22110153   2.872   2.542   3.778  0.5871 -0.7953 -0.6322
   27MOL   H22210154   2.714   2.635   3.792  0.8049  1.3675  0.0457
   27MOL   H22310155   2.914   2.729   3.645 -0.1187  1.0425  0.2666
   27MOL   H22410156   2.792   2.591   3.419 -0.3100 -1.5859  1.8745
   27MOL   H22510157   2.956   2.649   3.447  1.1801 -0.6035  0.0380
   27MOL   H22610158   2.914   2.498   3.511  1.0311 -0.2570  2.1796
   27MOL   H22710159   2.728   2.831   3.498 -1.5654  1.9212  0.2016
   27MOL   H22810160   2.696   2.849   3.672  1.3141  0.8057 -0.7711
   27MOL   H22910161   2.617   2.724   3.582  0.0761  0.6427 -1.2649
   27MOL   C23010162   2.548   2.347   3.781 -0.5471  0.2432  0.0811
   27MOL   C23110163   2.456   2.455   3.823  0.3094  0.5442 -0.0503
   27MOL   O23210164   2.312   2.422   3.801  0.4433 -0.6629 -0.2514
   27MOL   C23310165   2.262   2.441   3.674  0.7752  0.3835 -0.0972
   27MOL   C23410166   2.121   2.397   3.665  0.1612 -0.6086  0.3459
   27MOL   C23510167   2.023   2.435   3.786 -0.6704 -0.3244  0.4574
   27MOL   C23610168   2.054   2.429   3.529 -0.0027 -0.2751 -0.1395
   27MOL   H23710169   2.520   2.266   3.848 -0.4676 -0.4349 -0.6876
   27MOL   H23810170   2.517   2.334   3.677  2.1628  1.3490 -0.9374
   27MOL   H23910171   2.487   2.549   3.776  0.4325  0.3342 -0.3941
   27MOL   H24010172   2.270   2.547   3.650 -0.8754  0.8721  1.3556
   27MOL   H24110173   2.330   2.394   3.603  0.8181 -1.4802  1.1459
   27MOL   H24210174   2.125   2.288   3.663  1.0896 -0.6641  2.9078
   27MOL   H24310175   2.003   2.542   3.800  0.2134  0.5349 -4.0114
   27MOL   H24410176   2.074   2.408   3.878 -1.1789 -0.2907  0.7457
   27MOL   H24510177   1.929   2.382   3.794 -1.0785  0.6253  2.1173
   27MOL   H24610178   2.125   2.401   3.452 -0.4613 -1.8542 -0.0062
   27MOL   H24710179   1.960   2.374   3.519  0.4988 -0.9139 -1.4687
   27MOL   H24810180   2.034   2.534   3.509  1.9112  0.1778  0.2973
   27MOL   C24910181   2.468   2.489   3.972 -0.2449  0.9121  1.4018
   27MOL   C25010182   2.417   2.627   4.032  0.1448  0.1438  0.3275
   27MOL   O25110183   2.485   2.722   3.942  1.0948 -0.6185 -0.2555
   27MOL   C25210184   2.550   2.819   4.023 -0.2569 -0.3215  0.6975
   27MOL   C25310185   2.612   2.929   3.937  0.1732 -0.0586  0.1793
   27MOL   C25410186   2.670   3.041   4.025 -0.9153 -0.1814 -1.0875
   27MOL   C25510187   2.517   2.981   3.826 -0.5604 -0.2584 -0.7668
   27MOL   H25610188   2.573   2.478   3.998 -0.1905 -2.8995 -0.0404
   27MOL   H25710189   2.416   2.410   4.027 -1.3692  1.2464  0.8359
   27MOL   H25810190   2.465   2.631   4.129 -0.9229  0.8231  0.8408
   27MOL   H25910191   2.479   2.864   4.092  1.1014 -0.6575  2.3406
   27MOL   H26010192   2.633   2.765   4.069  0.8244  0.8976  0.2030
   27MOL   H26110193   2.694   2.877   3.886 -0.4089  0.7030 -1.5735
   27MOL   H26210194   2.587   3.084   4.082  1.2820  2.5145  0.1717
   27MOL   H26310195   2.720   3.119   3.968 -2.7258 -0.2867 -2.9192
   27MOL   H26410196   2.728   3.003   4.109 -0.1634 -1.1069 -2.0083
   27MOL   H26510197   2.492   2.911   3.746 -1.8035  0.3144 -0.8898
   27MOL   H26610198   2.427   3.015   3.877 -3.6193 -2.2429 -4.6366
   27MOL   H26710199   2.545   3.073   3.775 -1.1064 -0.1402 -0.8565
   27MOL   C26810200   2.267   2.650   4.020 -0.0613 -0.6802 -0.0693
   27MOL   C26910201   2.172   2.588   4.135  0.4727 -0.3251  0.0070
   27MOL   O27010202   2.049   2.661   4.137  0.2839 -0.5791 -0.5698
   27MOL   C27110203   1.927   2.596   4.124  0.3436 -0.0825 -0.3461
   27MOL   C27210204   1.821   2.699   4.172  0.0181 -0.9766  0.1097
   27MOL   C27310205   1.692   2.675   4.109 -0.3228 -0.0520 -0.5591
   27MOL   C27410206   1.806   2.704   4.319 -0.7536 -0.1381 -0.1058
   27MOL   H27510207   2.229   2.630   3.920  0.8351  0.3700 -0.6275
   27MOL   H27610208   2.267   2.757   4.041 -0.4686 -0.6959  0.0314
   27MOL   H27710209   2.165   2.479   4.128 -1.6979 -0.0436 -2.9431
   27MOL   H27810210   1.922   2.584   4.015  1.5074  0.3888 -0.4573
   27MOL   H27910211   1.908   2.502   4.176  0.6947  0.9819  1.7576
   27MOL   H28010212   1.847   2.801   4.144  0.2504 -0.1044  3.2749
   27MOL   H28110213   1.689   2.698   4.002 -0.5721  0.6667 -0.3931
   27MOL   H28210214   1.601   2.723   4.144 -1.1521 -1.2322 -1.0372
   27MOL   H28310215   1.667   2.570   4.125  2.7245 -0.3836  2.6248
   27MOL   H28410216   1.781   2.612   4.372 -1.3195 -0.0069 -0.1471
   27MOL   H28510217   1.729   2.777   4.342 -1.7189 -1.0082 -0.5621
   27MOL   H28610218   1.902   2.736   4.360 -0.5255 -2.1960  1.0460
   27MOL   C28710219   2.236   2.603   4.276 -0.4141  0.1026 -0.1355
   27MOL   C28810220   2.166   2.531   4.386 -0.5073  0.0727 -0.6504
   27MOL   O28910221   2.219   2.571   4.515  1.0789 -0.5158 -0.2827
   27MOL   C29010222   2.129   2.647   4.603  0.2411 -0.0031  0.6135
   27MOL   C29110223   2.201   2.700   4.732 -0.4596  0.2615  0.0256
   27MOL   C29210224   2.327   2.775   4.702  0.0574 -0.6347  0.0395
   27MOL   C29310225   2.221   2.599   4.844 -1.1655  0.5583 -0.0093
   27MOL   H29410226   2.256   2.703   4.314 -0.6465  0.8693 -1.9567
   27MOL   H29510227   2.337   2.565   4.264 -1.4281 -2.6828 -0.3850
   27MOL   H29610228   2.061   2.560   4.384 -0.9216 -1.2349  0.9476
   27MOL   H29710229   2.097   2.731   4.542  0.5700  0.3329  0.9004
   27MOL   H29810230   2.041   2.590   4.634 -1.6121  0.6278 -3.2123
   27MOL   H29910231   2.131   2.767   4.781 -0.1651 -0.1418  1.0093
   27MOL   H30010232   2.306   2.841   4.618 -0.2850  1.2311  1.5606
   27MOL   H30110233   2.397   2.697   4.669  0.3960 -0.9442  1.4887
   27MOL   H30210234   2.367   2.824   4.790  0.0551  2.0701 -1.4085
   27MOL   H30310235   2.260   2.654   4.929  0.0631  2.3414 -1.6637
   27MOL   H30410236   2.126   2.559   4.879 -1.0865 -1.2117 -1.6987
   27MOL   H30510237   2.291   2.521   4.815 -3.1173 -1.1347 -0.2874
   27MOL   C30610238   2.200   2.381   4.390  0.2388  0.4895 -0.0522
   27MOL   C30710239   2.126   2.299   4.502 -0.0029  0.1443 -0.3627
   27MOL   O30810240   1.985   2.292   4.474  0.2912 -0.3186 -0.0107
   27MOL   C30910241   1.896   2.256   4.586  0.8685 -0.1573  0.1239
   27MOL   C31010242   1.756   2.247   4.522  0.0707 -0.1139 -0.4675
   27MOL   C31110243   1.659   2.178   4.612 -0.1630  0.3627 -0.4969
   27MOL   C31210244   1.760   2.182   4.385  0.8682 -0.4978  1.0465
   27MOL   H31310245   2.307   2.376   4.407  1.0283 -1.3091 -4.7789
   27MOL   H31410246   2.178   2.326   4.299  0.6718 -2.2935  1.4787
   27MOL   H31510247   2.151   2.350   4.595 -0.5517 -2.1584  1.0715
   27MOL   H31610248   1.900   2.343   4.652  1.8903 -0.1788  0.1042
   27MOL   H31710249   1.922   2.164   4.638 -0.7277  0.2703  1.7376
   27MOL   H31810250   1.721   2.350   4.512 -1.6285 -0.4913  1.3088
   27MOL   H31910251   1.560   2.213   4.585 -0.0189  0.6084 -0.7137
   27MOL   H32010252   1.671   2.202   4.718 -0.9688 -0.1684 -0.2816
   27MOL   H32110253   1.659   2.070   4.605 -0.2972  0.4220 -1.3735
   27MOL   H32210254   1.801   2.252   4.312  3.3855 -1.5309  1.4382
   27MOL   H32310255   1.658   2.174   4.346  0.9444  2.0770  0.2156
   27MOL   H32410256   1.815   2.088   4.391 -0.2531 -1.2020  0.5977
   27MOL   C32510257   2.176   2.150   4.513  0.0889 -0.0591  0.5898
   27MOL   C32610258   2.298   2.120   4.600 -0.1350  0.5223 -0.5188
   27MOL   O32710259   2.242   2.119   4.737  0.1110  0.1620 -0.3314
   27MOL   C32810260   2.326   2.165   4.843 -0.0114  0.5274  0.1477
   27MOL   C32910261   2.273   2.144   4.983  0.1400  0.0389  1.4693
   27MOL   C33010262   2.145   2.239   5.004 -0.1971 -0.1201  0.6882
   27MOL   C33110263   2.244   1.993   5.001  0.6501 -0.2330  0.5671
   27MOL   H33210264   2.183   2.108   4.412  2.0805  2.5796 -0.4259
   27MOL   H33310265   2.093   2.087   4.548 -1.2438  1.9760  1.1613
   27MOL   H33410266   2.367   2.203   4.584  0.5359 -0.6014 -3.9148
   27MOL   H33510267   2.424   2.119   4.831 -0.3043 -0.0442 -0.0852
   27MOL   H33610268   2.344   2.273   4.837  0.8001  0.4601  1.3395
   27MOL   H33710269   2.347   2.160   5.062 -0.0060  1.8847  1.2666
   27MOL   H33810270   2.089   2.208   5.092 -0.5689  0.7370  0.7629
   27MOL   H33910271   2.192   2.335   5.027 -0.5893  0.9798 -2.8790
   27MOL   H34010272   2.070   2.242   4.926  2.8625  1.0930 -2.3654
   27MOL   H34110273   2.199   1.962   5.095  0.1022  0.7861  0.6539
   27MOL   H34210274   2.184   1.952   4.920  0.4399 -0.4665  0.8452
   27MOL   H34310275   2.334   1.932   5.001  1.3140  0.6806 -1.7169
   27MOL   C34410276   2.374   1.981   4.586  0.4446  0.0500  0.4716
   27MOL   C34510277   2.455   1.967   4.456  0.8133 -0.5250  0.6523
   27MOL   O34610278   2.549   2.078   4.440 -0.4410  0.4909  0.3056
   27MOL   C34710279   2.599   2.088   4.305 -0.1877  0.5979 -0.3007
   27MOL   C34810280   2.687   2.216   4.300 -0.0616 -0.3776 -0.2334
   27MOL   C34910281   2.604   2.345   4.304  0.0661 -0.3838 -0.6878
   27MOL   C35010282   2.780   2.210   4.175  0.2242  0.5014  0.2469
   27MOL   H35110283   2.292   1.909   4.592  1.9583 -1.6582  1.4421
   27MOL   H35210284   2.439   1.971   4.674 -0.6017  1.0052  1.3675
   27MOL   H35310285   2.387   1.962   4.372 -0.7147 -1.4006  1.9216
   27MOL   H35410286   2.514   2.091   4.238 -0.1204 -1.2512 -0.4948
   27MOL   H35510287   2.659   2.002   4.274 -0.7645  0.7365 -1.8170
   27MOL   H35610288   2.750   2.213   4.389 -1.2031  1.8821  0.7052
   27MOL   H35710289   2.515   2.341   4.242  0.7784 -1.2613 -1.6807
   27MOL   H35810290   2.654   2.440   4.284 -0.6993 -0.0439 -0.9813
   27MOL   H35910291   2.574   2.343   4.409 -0.6333 -2.7066 -0.8974
   27MOL   H36010292   2.839   2.119   4.165 -0.1466  0.4298 -1.3243
   27MOL   H36110293   2.735   2.199   4.076 -1.8805  0.1230  1.2257
   27MOL   H36210294   2.837   2.303   4.172 -0.5316  0.9722  0.3715
   27MOL   C36310295   2.530   1.824   4.451 -0.0109 -0.7427 -0.5377
   27MOL   C36410296   2.446   1.695   4.435 -0.4192 -0.3260 -0.3389
   27MOL   O36510297   2.338   1.725   4.349 -0.2007  0.3931  0.1400
   27MOL   C36610298   2.251   1.613   4.325 -0.3037 -0.0495 -0.8180
   27MOL   C36710299   2.134   1.683   4.259  0.4579 -0.5361 -0.1090
   27MOL   C36810300   2.058   1.780   4.348 -0.5465 -0.2948  0.0376
   27MOL   C36910301   2.037   1.569   4.206  0.9335 -0.3250 -0.3228
   27MOL   H37010302   2.608   1.821   4.374 -0.4717 -1.1068 -0.9925
   27MOL   H37110303   2.588   1.815   4.543 -1.2191  0.6337  0.3881
   27MOL   H37210304   2.416   1.648   4.529 -1.5651  1.6439  0.3351
   27MOL   H37310305   2.302   1.539   4.263  0.5153 -0.5259  0.4133
   27MOL   H37410306   2.225   1.572   4.422 -0.1332 -0.6581 -1.0299
   27MOL   H37510307   2.170   1.726   4.166 -1.0152  0.6865 -0.1280
   27MOL   H37610308   1.968   1.815   4.297 -0.9913 -1.1469  0.2205
   27MOL   H37710309   2.114   1.866   4.385  0.3073 -0.9147  0.1886
   27MOL   H37810310   2.029   1.732   4.441 -1.0588  3.6468  2.0215
   27MOL   H37910311   2.084   1.507   4.130 -0.9506 -1.2671 -0.7417
   27MOL   H38010312   1.945   1.609   4.164  0.2264 -0.7138  0.8467
   27MOL   H38110313   2.001   1.505   4.287  2.8836 -0.3758  0.5369
   27MOL   H38210314   2.521   1.628   4.394 -0.7582 -0.0241 -1.4634
   28MOL     C110315   6.269   0.450   4.988 -0.9829 -0.3136 -0.1830
   28MOL     C210316   6.132   0.414   4.952 -0.0573 -0.0877  0.0246
   28MOL     O310317   6.036   0.506   5.004 -0.1824  0.3743 -0.1753
   28MOL     C410318   6.028   0.506   5.151  0.8106 -0.3366  0.2783
   28MOL     C510319   5.906   0.595   5.188  0.0957  0.2372 -0.2520
   28MOL     C610320   5.901   0.624   5.338 -0.8977  0.6384  0.3711
   28MOL     C710321   5.779   0.508   5.158  1.0871  0.8830  0.0064
   28MOL     H810322   6.284   0.554   4.962 -1.2853  0.4568  2.5373
   28MOL     H910323   6.276   0.438   5.097 -1.4418  0.0824 -0.1073
   28MOL    H1010324   6.112   0.318   4.999 -1.0050  0.7219  1.3252
   28MOL    H1110325   6.114   0.552   5.199 -0.0857  2.5086 -0.7474
   28MOL    H1210326   6.016   0.406   5.193  0.4127 -0.1597  0.5872
   28MOL    H1310327   5.905   0.676   5.115  0.6545  1.5609  1.1890
   28MOL    H1410328   5.985   0.682   5.376  1.0152 -0.4582 -2.1040
   28MOL    H1510329   5.824   0.699   5.359 -0.7842  0.6562  0.7357
   28MOL    H1610330   5.898   0.541   5.409 -1.5123  0.5786  0.2744
   28MOL    H1710331   5.697   0.578   5.169 -0.1576 -0.4859 -0.5106
   28MOL    H1810332   5.774   0.463   5.059  2.8247 -0.5755  0.5465
   28MOL    H1910333   5.761   0.429   5.231  0.3158  1.9047  0.9425
   28MOL    H2010334   6.343   0.394   4.930 -2.3294  0.5075 -2.7508
   28MOL    C2110335   6.103   0.419   4.803 -0.6889 -0.0956 -0.6928
   28MOL    C2210336   5.962   0.379   4.764  0.9137  0.1735 -0.4311
   28MOL    O2310337   5.955   0.413   4.624  0.4495  0.6548 -0.5626
   28MOL    C2410338   5.870   0.514   4.579 -0.2613  0.3571  0.5217
   28MOL    C2510339   5.896   0.548   4.436 -0.2963 -0.2126  0.3573
   28MOL    C2610340   6.043   0.616   4.420 -0.0100 -0.5173 -0.6164
   28MOL    C2710341   5.894   0.427   4.341 -0.7839 -0.4364 -0.3143
   28MOL    H2810342   6.115   0.521   4.765  1.3395  0.0698  0.3291
   28MOL    H2910343   6.173   0.357   4.747 -3.3438 -3.5019 -0.3732
   28MOL    H3010344   5.896   0.440   4.826 -1.9397 -2.6091 -0.6586
   28MOL    H3110345   5.882   0.601   4.644 -1.4405 -0.4266  1.8158
   28MOL    H3210346   5.765   0.484   4.576  0.7051 -3.2308  0.7221
   28MOL    H3310347   5.820   0.619   4.403 -0.3538 -0.1509  0.6275
   28MOL    H3410348   6.121   0.550   4.458 -0.7319 -0.1699  1.5289
   28MOL    H3510349   6.053   0.710   4.474 -0.1006  1.9193 -4.6092
   28MOL    H3610350   6.071   0.634   4.316 -0.1266 -1.1179 -0.7495
   28MOL    H3710351   5.984   0.369   4.361 -0.0629 -0.2098 -2.7657
   28MOL    H3810352   5.809   0.361   4.360 -1.8192  1.1730  0.7671
   28MOL    H3910353   5.896   0.461   4.238 -1.2555  0.7097  0.0426
   28MOL    C4010354   5.933   0.231   4.785  0.1573  0.6333  0.2176
   28MOL    C4110355   5.787   0.185   4.754 -0.0844 -0.1722  0.0851
   28MOL    O4210356   5.711   0.174   4.867  0.6803 -0.5772 -0.0564
   28MOL    C4310357   5.594   0.250   4.864  0.0694 -0.3420 -0.7511
   28MOL    C4410358   5.526   0.238   5.000  0.2696 -0.4323 -0.6096
   28MOL    C4510359   5.407   0.337   5.014  0.1099  0.1348  0.0911
   28MOL    C4610360   5.484   0.094   5.027 -0.2378 -0.1450  0.3524
   28MOL    H4710361   5.961   0.206   4.887 -0.3292 -0.1086  0.1705
   28MOL    H4810362   6.000   0.165   4.729 -1.3084  0.5047 -1.4481
   28MOL    H4910363   5.745   0.260   4.687  0.1456 -0.1676 -0.0527
   28MOL    H5010364   5.521   0.211   4.793 -0.7601 -0.4504  0.1588
   28MOL    H5110365   5.614   0.351   4.828 -0.1975 -0.5493 -1.5049
   28MOL    H5210366   5.594   0.268   5.080 -0.8834  0.8151 -0.0616
   28MOL    H5310367   5.324   0.335   4.943  0.5364  1.6600 -0.4790
   28MOL    H5410368   5.363   0.323   5.113 -2.0590 -2.9462 -1.2154
   28MOL    H5510369   5.447   0.439   5.012 -0.6322  0.4747  1.4660
   28MOL    H5610370   5.423   0.082   5.116 -0.7491 -1.2037 -0.1281
   28MOL    H5710371   5.576   0.036   5.024 -0.1209  0.0869 -1.0560
   28MOL    H5810372   5.423   0.054   4.945  0.8670 -3.6006  1.1298
   28MOL    C5910373   5.781   0.059   4.682 -0.2605  0.4617  0.7246
   28MOL    C6010374   5.642   0.004   4.643 -0.2904  0.2841  0.3792
   28MOL    O6110375   5.666   7.693   4.602  0.6670 -0.4588  0.8788
   28MOL    C6210376   5.637   7.598   4.700 -1.0463 -0.3373  0.1315
   28MOL    C6310377   5.720   7.470   4.680 -0.2260 -0.0218 -0.3731
   28MOL    C6410378   5.711   7.411   4.537 -0.0670  0.2118  1.0765
   28MOL    C6510379   5.865   7.487   4.731  0.3723  0.1637  0.9347
   28MOL    H6610380   5.822   7.804   4.744 -0.1088  0.3881  0.5271
   28MOL    H6710381   5.836   0.056   4.589  1.1964  1.9731  1.5128
   28MOL    H6810382   5.591   0.001   4.739  2.1204 -1.2699  1.6805
   28MOL    H6910383   5.676   7.637   4.795  1.3618 -1.0170 -0.5407
   28MOL    H7010384   5.535   7.571   4.726 -0.8033 -0.3627  1.1068
   28MOL    H7110385   5.681   7.396   4.750 -2.2320  1.1676 -0.2016
   28MOL    H7210386   5.607   7.402   4.506  0.6016  0.6881 -1.3947
   28MOL    H7310387   5.765   7.316   4.534  1.7326  1.2695 -0.6940
   28MOL    H7410388   5.768   7.483   4.478 -0.4241 -1.3202 -1.2080
   28MOL    H7510389   5.878   7.527   4.831  0.9056 -1.3038  1.4613
   28MOL    H7610390   5.921   7.394   4.739  0.1957 -0.0796 -0.3792
   28MOL    H7710391   5.923   7.548   4.662  0.3118  2.1867  2.6244
   28MOL    C7810392   5.576   0.087   4.536  0.4502  0.5708  0.8986
   28MOL    C7910393   5.436   0.054   4.494 -0.7853  0.1260 -0.2081
   28MOL    O8010394   5.358   0.088   4.602  0.1208  0.3014 -0.2557
   28MOL    C8110395   5.234   0.022   4.615 -1.0648  0.4853  0.1439
   28MOL    C8210396   5.154   0.078   4.737 -0.6082 -0.2470  0.2144
   28MOL    C8310397   5.032   7.818   4.762  0.2677  0.1319 -0.2899
   28MOL    C8410398   5.135   0.231   4.747 -0.0341  0.1737 -1.0373
   28MOL    H8510399   5.637   0.076   4.446 -1.4582  1.2038 -0.5100
   28MOL    H8610400   5.576   0.192   4.566 -2.4335 -0.1254  3.5400
   28MOL    H8710401   5.423   7.772   4.473 -0.2023 -0.0832  0.4795
   28MOL    H8810402   5.170   0.029   4.527 -0.9404  0.3309  0.0410
   28MOL    H8910403   5.255   7.740   4.625  0.9866  0.8406 -0.2836
   28MOL    H9010404   5.215   0.049   4.822  0.1496  0.7702  0.0295
   28MOL    H9110405   4.994   0.008   4.864 -1.1318 -1.0410 -0.6394
   28MOL    H9210406   5.058   7.713   4.750  1.0913  0.2362  0.5273
   28MOL    H9310407   4.961   0.018   4.683 -1.2616  1.2238  1.3547
   28MOL    H9410408   5.134   0.261   4.852 -0.7011  0.1255 -1.0273
   28MOL    H9510409   5.054   0.271   4.685 -0.6928  0.4020 -0.0460
   28MOL    H9610410   5.226   0.275   4.707  1.6748 -1.3325  1.0683
   28MOL    C9710411   5.393   0.150   4.373  1.1308  0.4101  0.2084
   28MOL    C9810412   5.455   0.118   4.236  0.6369  0.0606 -0.3184
   28MOL    O9910413   5.450   0.233   4.147  0.2335 -0.2176  0.0395
   28MOL   C10010414   5.561   0.320   4.147  0.1032 -0.4252  0.5797
   28MOL   C10110415   5.549   0.415   4.029  0.1414  0.2741  0.2079
   28MOL   C10210416   5.443   0.517   4.044 -0.2084 -0.4827  0.4846
   28MOL   C10310417   5.685   0.485   4.009 -0.5205 -0.2486 -0.0494
   28MOL   H10410418   5.411   0.254   4.401 -1.2193  0.8412  0.1630
   28MOL   H10510419   5.285   0.164   4.369  1.0882  0.7467  1.9550
   28MOL   H10610420   5.561   0.113   4.258  0.9268  1.2733 -1.3572
   28MOL   H10710421   5.652   0.264   4.128 -0.3275 -0.7923 -0.4532
   28MOL   H10810422   5.567   0.374   4.242 -4.2540 -1.1267  1.3476
   28MOL   H10910423   5.539   0.342   3.948  0.8425  0.7405 -0.3043
   28MOL   H11010424   5.432   0.564   3.947  0.4116  3.1273  2.0847
   28MOL   H11110425   5.351   0.462   4.065 -1.0591  1.4731  2.0054
   28MOL   H11210426   5.460   0.589   4.125 -1.3119  0.4662 -0.1251
   28MOL   H11310427   5.683   0.570   3.941 -1.0494 -1.5591 -1.6994
   28MOL   H11410428   5.706   0.525   4.108  0.5636  0.5653 -0.5989
   28MOL   H11510429   5.754   0.408   3.977 -0.9639 -1.7997  2.5476
   28MOL   C11610430   5.391   7.808   4.176 -0.5883 -0.0800  0.0555
   28MOL   C11710431   5.429   7.773   4.032 -0.4151 -0.0054 -0.5158
   28MOL   O11810432   5.570   7.733   4.034 -0.3043  0.6992  0.0592
   28MOL   C11910433   5.644   7.745   3.910  0.2782  0.2396  0.0279
   28MOL   C12010434   5.772   7.659   3.923  0.1677 -0.5590  0.2625
   28MOL   C12110435   5.737   7.510   3.942  0.2436  0.7094 -0.6232
   28MOL   C12210436   5.881   7.684   3.821 -0.6943 -0.4842  0.4188
   28MOL   H12310437   5.428   7.722   4.232 -0.0464 -1.7351 -2.7221
   28MOL   H12410438   5.284   7.800   4.193 -0.3126 -0.0478  1.8321
   28MOL   H12510439   5.424   0.037   3.969 -0.4302  1.3417  1.3354
   28MOL   H12610440   5.671   0.025   3.893 -2.5541  1.2232  1.3903
   28MOL   H12710441   5.589   7.713   3.821  0.3737  0.2678 -0.0417
   28MOL   H12810442   5.817   7.688   4.018 -1.5243 -1.3391  1.3264
   28MOL   H12910443   5.698   7.452   3.858 -0.0511 -2.1137  1.3703
   28MOL   H13010444   5.663   7.492   4.020  0.8556 -0.1743 -0.2439
   28MOL   H13110445   5.823   7.448   3.968  0.1380  0.2555 -1.3394
   28MOL   H13210446   5.849   7.675   3.717  2.6220  0.1668 -0.7006
   28MOL   H13310447   5.902   7.789   3.844 -0.9080 -0.5202  0.7885
   28MOL   H13410448   5.967   7.628   3.856  0.0481 -0.6311 -1.5656
   28MOL   C13510449   5.349   7.662   3.962 -0.0613 -0.4025 -0.0337
   28MOL   C13610450   5.197   7.687   3.960 -0.0722 -0.3801  0.2096
   28MOL   O13710451   5.180   7.798   3.870 -0.2398  0.3803 -0.4209
   28MOL   C13810452   5.072   0.053   3.915  0.1077  0.5611  0.5689
   28MOL   C13910453   5.082   0.192   3.857 -0.7126 -0.2935 -0.5628
   28MOL   C14010454   4.945   0.270   3.871  0.5530  0.6293 -0.5839
   28MOL   C14110455   5.201   0.271   3.909 -0.4665  0.1370 -0.0515
   28MOL   H14210456   5.401   7.638   3.869 -0.1976  1.1828 -0.5287
   28MOL   H14310457   5.373   7.582   4.032  0.6369 -0.8366 -0.7617
   28MOL   H14410458   5.160   7.700   4.061 -1.5782 -1.6696 -0.1639
   28MOL   H14510459   5.086   0.068   4.022  0.7129 -0.4811  0.6424
   28MOL   H14610460   4.977   0.004   3.896  1.1526 -0.7336 -1.4317
   28MOL   H14710461   5.100   0.181   3.750  2.4527 -1.5836  0.0609
   28MOL   H14810462   4.893   0.254   3.966  0.3136  1.1537 -0.6294
   28MOL   H14910463   4.880   0.255   3.785  0.1585 -0.7472 -0.0531
   28MOL   H15010464   4.963   0.377   3.871 -0.8844  0.8671 -0.7236
   28MOL   H15110465   5.183   0.291   4.015 -0.3671  0.4946 -0.1019
   28MOL   H15210466   5.294   0.216   3.893 -0.2557 -0.5074  3.0164
   28MOL   H15310467   5.215   0.370   3.866  0.9042  0.3617  0.8794
   28MOL   C15410468   5.119   7.570   3.895  0.3758  0.2178 -0.4910
   28MOL   C15510469   5.102   7.450   3.988 -0.5974  0.1324  0.5045
   28MOL   O15610470   5.021   7.507   4.089 -0.9917 -0.4136 -0.4614
   28MOL   C15710471   5.021   7.423   4.204 -0.1870  1.3830 -0.3905
   28MOL   C15810472   4.945   7.480   4.311  0.1877  0.0404  0.3345
   28MOL   C15910473   4.921   7.376   4.426  0.5358  0.0428 -0.0798
   28MOL   C16010474   5.007   7.609   4.359 -1.0824 -0.2678  0.1166
   28MOL   H16110475   5.177   7.528   3.813  0.7523 -0.9182  0.3400
   28MOL   H16210476   5.023   7.608   3.859  0.2509  1.3761  1.0416
   28MOL   H16310477   5.203   7.422   4.020  0.4237  0.7436 -2.0445
   28MOL   H16410478   5.127   7.408   4.226 -0.1015 -2.0246 -2.7110
   28MOL   H16510479   4.981   7.326   4.175  1.7448  1.0220 -1.9964
   28MOL   H16610480   4.851   7.500   4.260  1.0264  0.5479 -1.0463
   28MOL   H16710481   5.014   7.342   4.472 -0.4957 -1.5342  0.8818
   28MOL   H16810482   4.860   7.293   4.392 -1.2035  1.4103 -0.3745
   28MOL   H16910483   4.865   7.422   4.508 -0.8042 -2.9642  0.7516
   28MOL   H17010484   5.085   7.594   4.434  0.1938  1.0527 -0.9302
   28MOL   H17110485   5.060   7.666   4.283 -1.4661 -0.3199 -0.1925
   28MOL   H17210486   4.926   7.677   4.389  1.3658  3.2515 -0.9838
   28MOL   C17310487   5.019   7.345   3.904  0.2856 -0.4776  0.7347
   28MOL   C17410488   5.111   7.264   3.801  0.3542 -0.1047  0.1722
   28MOL   O17510489   5.214   7.212   3.879  0.0853 -0.0146  0.1153
   28MOL   C17610490   5.335   7.207   3.812  0.7368 -0.0500  0.3540
   28MOL   C17710491   5.442   7.117   3.883  0.7737 -0.2583  0.3510
   28MOL   C17810492   5.382   6.980   3.932  0.4400 -0.7417  0.1049
   28MOL   C17910493   5.564   7.090   3.795 -0.6212  0.0251 -0.6614
   28MOL   H18010494   4.980   7.280   3.982 -1.2978 -1.2125 -0.6200
   28MOL   H18110495   4.926   7.390   3.868  0.3651 -0.9575 -0.0931
   28MOL   H18210496   5.151   7.338   3.731 -0.9837  0.3943 -0.0830
   28MOL   H18310497   5.377   7.307   3.801  2.3565 -0.5910  1.4928
   28MOL   H18410498   5.324   7.162   3.713 -0.2031  1.1294 -0.0980
   28MOL   H18510499   5.477   7.161   3.976  1.0959 -2.4764  1.3101
   28MOL   H18610500   5.446   6.925   4.002 -0.5389 -2.8591 -0.6123
   28MOL   H18710501   5.288   7.005   3.980  1.3389  2.4663  0.3200
   28MOL   H18810502   5.362   6.925   3.840 -0.8873 -2.7257  1.5378
   28MOL   H18910503   5.603   7.187   3.766 -0.9024  0.1586 -0.5985
   28MOL   H19010504   5.533   7.030   3.708 -1.1198 -0.1148 -0.3923
   28MOL   H19110505   5.635   7.033   3.855 -1.9232  2.4370  3.3342
   28MOL   C19210506   5.042   7.158   3.726  0.1740 -0.1345  0.5334
   28MOL   C19310507   4.944   7.196   3.612 -0.1531 -0.0008 -0.1726
   28MOL   O19410508   4.891   7.079   3.570  0.1922 -0.5269  1.0374
   28MOL   C19510509   4.748   7.077   3.578 -0.1372 -0.6705 -0.3074
   28MOL   C19610510   4.707   6.948   3.513 -0.0563  0.4185 -0.0140
   28MOL   C19710511   4.545   6.935   3.531  0.2015  0.6477  1.0402
   28MOL   C19810512   4.776   6.827   3.575  0.4015  0.6411  0.0721
   28MOL   H19910513   5.000   7.080   3.791 -1.1332  0.5521  0.5341
   28MOL   H20010514   5.115   7.102   3.668 -1.3027 -0.4052 -1.0996
   28MOL   H20110515   4.869   7.258   3.662 -0.6013 -0.4775 -0.2580
   28MOL   H20210516   4.712   7.164   3.523  0.2193 -0.2179  0.1673
   28MOL   H20310517   4.726   7.094   3.683  1.8006 -1.5199  0.2528
   28MOL   H20410518   4.730   6.945   3.407 -0.3022 -2.6713 -0.0173
   28MOL   H20510519   4.486   6.999   3.465  1.2393 -0.6939 -1.2838
   28MOL   H20610520   4.529   6.828   3.517  3.0765  0.2799  0.1550
   28MOL   H20710521   4.516   6.958   3.633 -1.8608  1.6193  0.2713
   28MOL   H20810522   4.884   6.831   3.561  0.7666 -1.2376  2.1123
   28MOL   H20910523   4.758   6.825   3.682  0.3197 -0.1367  0.0460
   28MOL   H21010524   4.744   6.733   3.530 -0.5436 -0.2791  2.5819
   28MOL   C21110525   5.007   7.277   3.496 -0.2160  0.3850 -0.5960
   28MOL   C21210526   4.908   7.343   3.403 -0.1999  0.4133  0.6129
   28MOL   O21310527   4.842   7.433   3.486  0.3486  0.1656 -0.3193
   28MOL   C21410528   4.717   7.467   3.435  0.8647 -0.4359  1.1871
   28MOL   C21510529   4.645   7.555   3.538  0.8084 -0.1469 -0.3285
   28MOL   C21610530   4.710   7.691   3.563 -0.1880  0.0626  0.2759
   28MOL   C21710531   4.495   7.574   3.528 -0.2468  0.4743  0.4437
   28MOL   H21810532   5.078   7.211   3.445  0.3939 -1.0713  2.0098
   28MOL   H21910533   5.065   7.358   3.540  2.1982 -1.3239 -0.5462
   28MOL   H22010534   4.843   7.260   3.374  1.0516 -0.7572  1.1063
   28MOL   H22110535   4.657   7.381   3.405 -0.9815  1.1330  0.1739
   28MOL   H22210536   4.729   7.523   3.342 -1.2194  2.2217  2.4288
   28MOL   H22310537   4.654   7.497   3.630 -1.4837 -2.0357 -1.2288
   28MOL   H22410538   4.814   7.681   3.592 -0.4508 -0.8071  0.9394
   28MOL   H22510539   4.715   7.746   3.469 -1.7158 -0.6064 -0.2115
   28MOL   H22610540   4.664   7.764   3.630 -0.8953 -0.3892  0.2875
   28MOL   H22710541   4.434   7.484   3.530 -0.8268  0.8062 -1.0362
   28MOL   H22810542   4.455   7.632   3.444 -2.0269 -0.7738  0.4034
   28MOL   H22910543   4.448   7.631   3.608 -0.9788  2.6036 -1.4408
   28MOL   C23010544   4.978   7.413   3.283  0.1954  0.1181  0.5740
   28MOL   C23110545   5.034   7.325   3.178 -0.0061  0.1533 -0.0368
   28MOL   O23210546   4.923   7.278   3.109  0.1903 -0.1637  0.1204
   28MOL   C23310547   4.922   7.140   3.076 -0.4904  0.7096  0.0811
   28MOL   C23410548   4.789   7.113   3.000  0.2357  0.3375  0.4758
   28MOL   C23510549   4.664   7.147   3.081  0.1842  0.3298 -0.0881
   28MOL   C23610550   4.775   7.196   2.867 -0.0877 -0.2805 -0.5185
   28MOL   H23710551   5.058   7.464   3.336  0.8071 -1.6037  1.3683
   28MOL   H23810552   4.916   7.492   3.242  0.4229  0.9178  1.7424
   28MOL   H23910553   5.092   7.244   3.223 -0.4122  0.4795  1.0710
   28MOL   H24010554   5.011   7.119   3.016  0.8451  0.2673  2.1778
   28MOL   H24110555   4.926   7.071   3.160  0.5246 -0.9212 -1.2704
   28MOL   H24210556   4.779   7.007   2.979  1.9145  0.0247  1.2122
   28MOL   H24310557   4.575   7.134   3.020 -0.0175  0.3475  0.2026
   28MOL   H24410558   4.658   7.250   3.114  1.0365 -0.0753  1.3625
   28MOL   H24510559   4.658   7.087   3.172 -2.5317  2.3659  1.1263
   28MOL   H24610560   4.742   7.296   2.894 -0.3573 -0.4572 -0.1885
   28MOL   H24710561   4.864   7.197   2.805  1.2259 -0.6097  1.3178
   28MOL   H24810562   4.698   7.160   2.799 -1.5680  1.7682  0.0471
   28MOL   C24910563   5.130   7.385   3.063  0.2271  0.8288 -0.4561
   28MOL   C25010564   5.251   7.462   3.114  0.3438 -0.0981  0.9080
   28MOL   O25110565   5.301   7.389   3.223  0.1731 -0.3502  0.7026
   28MOL   C25210566   5.355   7.473   3.331  0.6345  0.5426  0.4887
   28MOL   C25310567   5.435   7.375   3.427 -0.0177 -0.2988  0.0238
   28MOL   C25410568   5.466   7.449   3.559  0.2694 -0.1038 -0.0986
   28MOL   C25510569   5.558   7.319   3.363  0.6711  0.1526 -0.0674
   28MOL   H25610570   5.070   7.441   2.991 -1.6121 -0.6602 -0.1123
   28MOL   H25710571   5.151   7.301   2.997 -0.2076  0.4778 -0.1565
   28MOL   H25810572   5.208   7.556   3.149  1.3018  1.0441 -0.8912
   28MOL   H25910573   5.416   7.555   3.293  0.6657 -0.3380 -1.4018
   28MOL   H26010574   5.271   7.526   3.375 -0.4016 -1.3434  0.8381
   28MOL   H26110575   5.364   7.295   3.448 -0.7605  0.4294  0.3568
   28MOL   H26210576   5.538   7.525   3.530  0.9532 -0.8867 -0.4836
   28MOL   H26310577   5.517   7.387   3.633  3.3085  0.5645 -1.5639
   28MOL   H26410578   5.372   7.490   3.596 -0.0726 -2.0549  1.2900
   28MOL   H26510579   5.641   7.386   3.340  2.0104 -1.3589  0.3297
   28MOL   H26610580   5.585   7.233   3.423 -1.6877  0.4066  1.4185
   28MOL   H26710581   5.529   7.291   3.261  0.4061  1.8095 -0.4667
   28MOL   C26810582   5.357   7.498   3.006 -0.4995  0.2518 -0.0395
   28MOL   C26910583   5.324   7.607   2.896  0.3673  0.1062 -0.0549
   28MOL   O27010584   5.222   7.545   2.822  0.1115  0.2002 -1.1253
   28MOL   C27110585   5.134   7.626   2.751  0.1524 -0.2681 -0.1574
   28MOL   C27210586   5.086   7.545   2.628 -0.4409  0.5990  0.5052
   28MOL   C27310587   5.201   7.472   2.553 -0.2650  0.5054  0.0158
   28MOL   C27410588   4.980   7.443   2.667  0.2807 -0.2385  0.2337
   28MOL   H27510589   5.386   7.410   2.949  0.0779  1.0742 -1.0325
   28MOL   H27610590   5.446   7.533   3.058 -0.6695  2.9956 -1.5163
   28MOL   H27710591   5.282   7.695   2.944  0.1893  0.8576 -1.5775
   28MOL   H27810592   5.055   7.672   2.811  0.7189 -1.8683  1.8682
   28MOL   H27910593   5.191   7.707   2.707 -0.3137  0.5175  0.6778
   28MOL   H28010594   5.042   7.619   2.560  0.4059  0.0366 -0.6781
   28MOL   H28110595   5.271   7.543   2.510  0.4306 -0.5458 -0.5940
   28MOL   H28210596   5.176   7.427   2.457  1.6018 -0.3823 -0.0763
   28MOL   H28310597   5.248   7.391   2.609 -0.1889  0.9106  0.5462
   28MOL   H28410598   4.930   7.410   2.575  1.4710 -2.5823  0.3966
   28MOL   H28510599   4.899   7.477   2.732 -1.0581  0.7577 -1.8859
   28MOL   H28610600   5.015   7.352   2.716  0.1000 -0.1525  0.5235
   28MOL   C28710601   5.451   7.632   2.810  0.5840 -0.1828 -0.0208
   28MOL   C28810602   5.567   7.714   2.875 -0.5936 -0.0275 -0.3375
   28MOL   O28910603   5.618   7.805   2.774  0.6096 -0.3378 -0.2001
   28MOL   C29010604   5.573   0.114   2.781 -0.3504  0.4144 -0.2495
   28MOL   C29110605   5.593   0.192   2.651  0.7615  0.3620 -0.2919
   28MOL   C29210606   5.514   0.141   2.530 -0.1265  0.4608 -0.3941
   28MOL   C29310607   5.745   0.210   2.620  0.0561  0.2433  0.3370
   28MOL   H29410608   5.423   7.679   2.716 -1.4113  0.6511  0.9667
   28MOL   H29510609   5.489   7.536   2.775 -1.3826 -2.0647  2.8558
   28MOL   H29610610   5.522   7.770   2.957  0.0948  0.9307 -0.5926
   28MOL   H29710611   5.467   0.096   2.799  0.1185  0.1438  2.3226
   28MOL   H29810612   5.617   0.164   2.867  0.6374 -0.6871 -0.1075
   28MOL   H29910613   5.561   0.294   2.674 -0.1290  0.0372 -0.0644
   28MOL   H30010614   5.555   0.047   2.496 -0.8755 -0.1067  0.2381
   28MOL   H30110615   5.523   0.213   2.449 -3.3275  1.2574 -0.1131
   28MOL   H30210616   5.413   0.121   2.568 -0.2174 -2.4683 -2.0699
   28MOL   H30310617   5.785   0.112   2.595 -0.9801  0.0510 -0.6285
   28MOL   H30410618   5.758   0.273   2.532 -0.1307  1.3176  1.0705
   28MOL   H30510619   5.797   0.256   2.704  1.1658 -0.9323  0.3015
   28MOL   C30610620   5.690   7.633   2.921  0.2014  0.1385 -0.3047
   28MOL   C30710621   5.789   7.722   2.998 -0.0615  0.1216 -0.4574
   28MOL   O30810622   5.719   7.757   3.123 -0.1526 -0.2194  0.6941
   28MOL   C30910623   5.756   0.056   3.184  0.6887 -0.2328 -0.1602
   28MOL   C31010624   5.662   0.082   3.304 -0.3687  0.0565 -0.5824
   28MOL   C31110625   5.674   7.792   3.407  0.2066  0.0694 -0.1016
   28MOL   C31210626   5.523   0.103   3.266  0.0380  0.3247 -0.3375
   28MOL   H31310627   5.738   7.594   2.831  0.2831 -1.4563  0.4176
   28MOL   H31410628   5.667   7.550   2.988  0.6699 -0.3830 -0.7864
   28MOL   H31510629   5.784   7.813   2.938  0.7651 -0.3051 -1.1760
   28MOL   H31610630   5.747   0.140   3.116 -3.1842 -0.9132 -0.6156
   28MOL   H31710631   5.860   0.053   3.217  1.1278  1.1837 -1.3893
   28MOL   H31810632   5.699   0.173   3.351 -0.0381 -1.9996  3.3492
   28MOL   H31910633   5.666   7.688   3.374  3.4085 -0.0534 -0.6761
   28MOL   H32010634   5.602   7.815   3.485 -1.8972 -1.8462 -1.4215
   28MOL   H32110635   5.771   7.801   3.456 -0.0335 -1.2097  0.6067
   28MOL   H32210636   5.480   0.020   3.210 -1.6242  3.2328 -3.5992
   28MOL   H32310637   5.513   0.194   3.207 -2.0963  1.2173  1.3577
   28MOL   H32410638   5.448   0.112   3.344  0.0365 -0.9874 -0.1732
   28MOL   C32510639   5.928   7.664   3.033  0.0457  1.0088 -0.8972
   28MOL   C32610640   6.031   7.684   2.924  0.6895 -0.7955 -0.3850
   28MOL   O32710641   6.076   7.819   2.920 -0.5258 -0.4882 -0.2688
   28MOL   C32810642   6.060   0.056   2.797 -0.1859 -0.7501 -0.0730
   28MOL   C32910643   6.118   0.197   2.814  0.0050 -0.7921 -0.5051
   28MOL   C33010644   6.113   0.290   2.687  0.4367  0.2401  0.5136
   28MOL   C33110645   6.052   0.285   2.930 -0.2435  0.3616 -1.1917
   28MOL   H33210646   5.920   7.556   3.043  1.2988  1.0779  1.0874
   28MOL   H33310647   5.965   7.713   3.124 -0.3535 -1.5887  0.6980
   28MOL   H33410648   5.987   7.656   2.828  2.9354  0.0428 -1.6778
   28MOL   H33510649   6.115   0.006   2.717  2.2240 -1.7593  2.1630
   28MOL   H33610650   5.954   0.060   2.771 -0.3892 -0.2925  0.8186
   28MOL   H33710651   6.224   0.177   2.823  0.3293  0.8916 -0.4681
   28MOL   H33810652   6.016   0.306   2.641 -0.4903 -1.5484  1.8018
   28MOL   H33910653   6.156   0.390   2.695  0.2478  0.6101 -2.4999
   28MOL   H34010654   6.168   0.232   2.612 -0.7557 -0.7494  0.3940
   28MOL   H34110655   6.050   0.225   3.021  2.7727  0.7398 -0.8239
   28MOL   H34210656   6.112   0.373   2.954 -0.9523  1.5541 -3.6801
   28MOL   H34310657   5.950   0.308   2.901 -1.8118  0.0758  3.6204
   28MOL   C34410658   6.159   7.591   2.966 -0.2362  0.1768 -0.4780
   28MOL   C34510659   6.283   7.613   2.882 -0.7651 -0.5927 -0.2082
   28MOL   O34610660   6.391   7.537   2.947  0.2908 -0.2666 -0.2933
   28MOL   C34710661   6.513   7.601   2.925 -0.1564 -0.0458 -0.6744
   28MOL   C34810662   6.630   7.512   2.980  0.0544 -0.1075 -0.1012
   28MOL   C34910663   6.769   7.558   2.930  0.0879 -0.4460  0.2219
   28MOL   C35010664   6.605   7.366   2.934 -0.3197  0.0227 -1.1031
   28MOL   H35110665   6.115   7.492   2.958  1.2560 -0.5325 -0.2135
   28MOL   H35210666   6.185   7.605   3.071 -1.1021 -0.0503 -0.2364
   28MOL   H35310667   6.305   7.720   2.892 -0.0336 -0.8486  1.0572
   28MOL   H35410668   6.523   7.697   2.977  0.3089 -1.3528  1.7029
   28MOL   H35510669   6.525   7.618   2.818  1.3865  0.3424 -0.4478
   28MOL   H35610670   6.626   7.519   3.089  2.6828 -2.1370  0.1715
   28MOL   H35710671   6.770   7.547   2.822 -0.3430  2.2933 -0.0937
   28MOL   H35810672   6.856   7.505   2.969  1.4957  1.9356  0.4010
   28MOL   H35910673   6.790   7.661   2.958  2.5933 -0.9237  0.2313
   28MOL   H36010674   6.674   7.294   2.980 -0.8375  0.7339  0.8627
   28MOL   H36110675   6.506   7.332   2.962 -0.9103 -0.2831 -3.4884
   28MOL   H36210676   6.616   7.367   2.826 -1.1875  1.8098 -1.1934
   28MOL   C36310677   6.270   7.581   2.733  0.0408 -0.0099  0.0558
   28MOL   C36410678   6.258   7.439   2.698 -0.2911 -0.5078 -0.0641
   28MOL   O36510679   6.286   7.408   2.557  0.2989  0.1642  0.2179
   28MOL   C36610680   6.189   7.451   2.458 -0.1982 -0.4265 -0.2552
   28MOL   C36710681   6.264   7.478   2.329  0.0504  1.4125  0.0419
   28MOL   C36810682   6.302   7.346   2.254 -0.0919 -0.2636  0.5651
   28MOL   C36910683   6.369   7.579   2.347 -0.4605  0.0703  0.8482
   28MOL   H37010684   6.174   7.623   2.701 -0.0239  0.2426  0.5806
   28MOL   H37110685   6.336   7.644   2.674 -0.9797 -0.7463 -1.9451
   28MOL   H37210686   6.159   7.396   2.715 -0.6070  0.4402  0.5303
   28MOL   H37310687   6.109   7.378   2.455  0.1404 -0.7560 -1.7585
   28MOL   H37410688   6.152   7.549   2.490  0.8749 -0.6644  1.8183
   28MOL   H37510689   6.184   7.515   2.265 -0.5549 -0.8141 -0.5437
   28MOL   H37610690   6.213   7.288   2.228 -1.3953  0.8841  2.3985
   28MOL   H37710691   6.363   7.277   2.313 -0.3268 -1.1363 -0.1942
   28MOL   H37810692   6.348   7.364   2.157 -0.8752  1.3616  0.4659
   28MOL   H37910693   6.415   7.593   2.249  0.5451 -1.1802  1.1295
   28MOL   H38010694   6.449   7.538   2.409 -0.6912 -1.8710 -0.1263
   28MOL   H38110695   6.330   7.670   2.393 -2.2182  0.7635 -1.9025
   28MOL   H38210696   6.329   7.381   2.756  0.7756 -0.1774 -1.0223
   29MOL     C110697   3.196   6.458   0.102  0.2496 -0.1986 -0.6572
   29MOL     C210698   3.069   6.380   0.074  0.4143 -0.0354  0.9223
   29MOL     O310699   2.968   6.480   0.079 -0.4740 -0.1630 -0.4962
   29MOL     C410700   2.842   6.427   0.114 -0.5825 -0.6129 -0.3127
   29MOL     C510701   2.736   6.517   0.051 -1.1456  0.4432 -0.0132
   29MOL     C610702   2.597   6.502   0.114  0.2175  0.7692  0.2724
   29MOL     C710703   2.724   6.497   7.722 -0.4828  0.4215  1.0261
   29MOL     H810704   3.281   6.393   0.121  1.7532  1.3901 -1.7719
   29MOL     H910705   3.225   6.517   0.015  0.8371 -1.5070 -1.3777
   29MOL    H1010706   3.046   6.309   0.153  1.8307 -2.2486 -0.5898
   29MOL    H1110707   2.839   6.404   0.221  0.6589 -0.5917 -0.2601
   29MOL    H1210708   2.839   6.330   0.064 -0.6394 -0.6462 -0.2447
   29MOL    H1310709   2.774   6.616   0.078  1.4289 -0.5862  0.3231
   29MOL    H1410710   2.541   6.411   0.094 -0.5378  1.2373  0.2451
   29MOL    H1510711   2.611   6.518   0.221  0.6973 -1.3866  0.5633
   29MOL    H1610712   2.538   6.580   0.066 -0.1154  0.1829 -0.2754
   29MOL    H1710713   2.714   6.390   7.703 -1.9067  0.5592  0.9642
   29MOL    H1810714   2.642   6.555   7.680  1.6111  1.4950 -1.7836
   29MOL    H1910715   2.821   6.523   7.680 -0.6166  0.2435  0.6042
   29MOL    H2010716   3.187   6.513   0.196  0.1219 -0.9345 -0.2339
   29MOL    C2110717   3.082   6.305   7.763 -0.2218  0.4488  0.0949
   29MOL    C2210718   2.986   6.193   7.711 -0.2582 -0.4439  0.0153
   29MOL    O2310719   3.026   6.157   7.575  0.2052  0.3410  0.3149
   29MOL    C2410720   2.979   6.228   7.456  0.2083  0.4683 -0.0791
   29MOL    C2510721   3.013   6.136   7.340 -0.5605 -0.5799  0.6649
   29MOL    C2610722   2.970   5.988   7.369 -0.1050 -0.5686  0.0566
   29MOL    C2710723   2.963   6.187   7.204 -0.0510 -0.5468 -0.6616
   29MOL    H2810724   3.089   6.374   7.679  0.6867 -0.2612 -0.4256
   29MOL    H2910725   3.184   6.267   7.769  0.6863  2.4373 -2.0355
   29MOL    H3010726   2.887   6.239   7.709  0.3731  1.1183  2.5096
   29MOL    H3110727   3.038   6.320   7.452 -0.8669  1.1453 -0.5079
   29MOL    H3210728   2.873   6.251   7.454  0.2659  0.5977 -1.4724
   29MOL    H3310729   3.122   6.142   7.334 -0.6592  0.8308 -0.1540
   29MOL    H3410730   2.865   5.959   7.361 -0.2754 -0.2158  0.9718
   29MOL    H3510731   3.016   5.959   7.464 -0.6605  0.5686  0.6868
   29MOL    H3610732   3.013   5.920   7.295 -0.1287 -0.0995 -0.3929
   29MOL    H3710733   2.995   6.126   7.120  2.3717 -4.2213  2.7164
   29MOL    H3810734   2.855   6.183   7.198  0.0108 -0.4836 -1.9560
   29MOL    H3910735   2.996   6.291   7.199  2.6557 -1.3014  0.5146
   29MOL    C4010736   2.970   6.077   7.805  0.1921  0.1748 -0.1416
   29MOL    C4110737   2.876   5.963   7.746 -0.6537 -0.4506  0.7927
   29MOL    O4210738   2.743   5.998   7.775  0.1262  0.2938 -0.5582
   29MOL    C4310739   2.665   6.056   7.668 -0.3993  0.2035 -0.1970
   29MOL    C4410740   2.515   6.063   7.702  0.2087 -0.1090  0.2162
   29MOL    C4510741   2.450   5.929   7.739 -0.0827 -0.0089 -0.3021
   29MOL    C4610742   2.475   6.181   7.796  0.0543  0.1460  0.0192
   29MOL    H4710743   2.929   6.107   0.077  0.4970  0.5915 -0.1387
   29MOL    H4810744   3.069   6.034   7.815  0.9091  0.7226 -4.1246
   29MOL    H4910745   2.894   5.958   7.639 -0.8546 -1.7238  0.8107
   29MOL    H5010746   2.688   6.007   7.573 -1.1298 -1.3461  0.4089
   29MOL    H5110747   2.700   6.159   7.663  1.7283 -0.4777  0.1446
   29MOL    H5210748   2.464   6.082   7.608 -2.0545 -0.0751  1.4198
   29MOL    H5310749   2.499   5.900   0.007 -3.0126 -0.7005  1.0762
   29MOL    H5410750   2.342   5.939   7.754 -0.0314  0.8938 -0.4886
   29MOL    H5510751   2.469   5.853   7.662  1.8081  3.1303 -3.0737
   29MOL    H5610752   2.368   6.177   7.813  0.3185 -0.7965  1.6562
   29MOL    H5710753   2.496   6.276   7.746  0.7321 -0.5014 -0.9511
   29MOL    H5810754   2.516   6.173   0.073 -1.7254 -0.7892  0.6789
   29MOL    C5910755   2.897   5.811   7.799 -0.1340  0.2222 -0.3978
   29MOL    C6010756   2.821   5.704   7.731 -0.2581  0.2491 -0.1090
   29MOL    O6110757   2.796   5.596   7.814 -0.3409 -0.3221  0.3395
   29MOL    C6210758   2.673   5.607   0.059 -0.0867 -0.2120 -0.2099
   29MOL    C6310759   2.668   5.501   0.171 -0.4581  0.0222  0.2546
   29MOL    C6410760   2.572   5.525   0.288 -0.6561  0.0846 -0.0885
   29MOL    C6510761   2.648   5.364   0.108  0.1689  0.1742 -0.4561
   29MOL    H6610762   2.873   5.819   0.081 -0.8672  0.6100 -0.5833
   29MOL    H6710763   2.998   5.771   7.791 -1.0594 -2.1594 -0.6188
   29MOL    H6810764   2.729   5.756   7.703 -0.7924 -0.1788  0.8337
   29MOL    H6910765   2.669   5.701   0.114 -2.1759 -0.9926  1.0456
   29MOL    H7010766   2.584   5.605   7.820  0.1670 -0.5571 -0.5524
   29MOL    H7110767   2.767   5.502   0.217 -1.2795 -2.9272  2.1716
   29MOL    H7210768   2.624   5.611   0.330  1.2932 -1.2855  0.3739
   29MOL    H7310769   2.569   5.440   0.357  1.6795 -0.3886 -0.5106
   29MOL    H7410770   2.472   5.544   0.250 -0.4818  0.6522 -0.2633
   29MOL    H7510771   2.662   5.281   0.178 -0.2507 -0.4280 -1.0707
   29MOL    H7610772   2.545   5.342   0.079  1.1160 -1.0419 -3.1324
   29MOL    H7710773   2.712   5.332   0.025  1.5072 -0.9676  0.9882
   29MOL    C7810774   2.901   5.650   7.614  0.7823 -0.1366 -0.0919
   29MOL    C7910775   2.807   5.575   7.515 -0.2186  0.3364  0.1764
   29MOL    O8010776   2.753   5.681   7.427  0.0147 -0.1276 -0.3917
   29MOL    C8110777   2.623   5.640   7.374  0.5287  0.4598  0.1638
   29MOL    C8210778   2.609   5.743   7.261 -0.4272  0.6477 -0.7498
   29MOL    C8310779   2.727   5.739   7.167 -0.5996 -0.0754  0.0502
   29MOL    C8410780   2.570   5.879   7.316  0.2421 -0.0591  0.4055
   29MOL    H8510781   2.976   5.581   7.653  1.1621  0.3362  0.0224
   29MOL    H8610782   2.949   5.734   7.563 -2.1427  1.0468 -0.9596
   29MOL    H8710783   2.729   5.528   7.575 -0.1719  2.8359  2.2807
   29MOL    H8810784   2.632   5.536   7.344 -1.0443 -0.3993  2.5551
   29MOL    H8910785   2.534   5.644   7.437  0.5409 -0.6346  0.2528
   29MOL    H9010786   2.524   5.708   7.204  0.5333 -1.4543 -0.9607
   29MOL    H9110787   2.711   5.812   7.088  2.0280 -2.1094 -2.4502
   29MOL    H9210788   2.739   5.638   7.128 -0.1726 -0.5119  1.2784
   29MOL    H9310789   2.818   5.767   7.220 -1.0128 -1.8789  1.7838
   29MOL    H9410790   2.654   5.938   7.351  0.1710  1.4060 -1.8060
   29MOL    H9510791   2.501   5.874   7.400  0.3412 -0.8820  0.4413
   29MOL    H9610792   2.522   5.937   7.237 -2.8686 -3.0673 -0.0712
   29MOL    C9710793   2.875   5.459   7.435 -1.1565 -0.3454  0.0134
   29MOL    C9810794   2.921   5.330   7.513  0.0648 -0.8058 -0.0344
   29MOL    O9910795   3.007   5.247   7.433  0.5638  0.0140  0.0892
   29MOL   C10010796   3.143   5.281   7.447 -1.0306  0.5896 -0.0145
   29MOL   C10110797   3.231   5.204   7.341 -0.2525  0.7874  0.2878
   29MOL   C10210798   3.374   5.240   7.359  0.4910  0.4474  1.2386
   29MOL   C10310799   3.210   5.056   7.358 -0.1076 -0.5697 -0.3959
   29MOL   H10410800   2.968   5.497   7.394 -1.5683 -0.7991 -1.3736
   29MOL   H10510801   2.807   5.428   7.355 -3.2607  1.1122  1.1864
   29MOL   H10610802   2.970   5.368   7.603  1.6789  0.3382 -1.3475
   29MOL   H10710803   3.162   5.258   7.552 -1.8829  0.1977  0.0603
   29MOL   H10810804   3.150   5.390   7.446  2.6336  0.4320  1.9102
   29MOL   H10910805   3.193   5.230   7.243  1.3252  1.7607 -0.0783
   29MOL   H11010806   3.397   5.343   7.331  0.4016  0.6019  1.7200
   29MOL   H11110807   3.410   5.241   7.462 -0.8432 -1.3043  1.7541
   29MOL   H11210808   3.435   5.169   7.303 -1.7393  1.5264 -2.7669
   29MOL   H11310809   3.235   5.018   7.457  0.6717 -0.3615 -0.5095
   29MOL   H11410810   3.107   5.032   7.330 -0.4648  0.4069  0.0672
   29MOL   H11510811   3.271   5.000   7.288  2.6546  0.0946  1.4183
   29MOL   C11610812   2.797   5.241   7.553 -0.0346 -0.4064  0.6720
   29MOL   C11710813   2.823   5.118   7.643 -0.4150  0.8124 -0.6520
   29MOL   O11810814   2.897   5.163   7.764  0.2794 -0.5468 -0.8350
   29MOL   C11910815   3.035   5.130   7.784  0.2083 -0.8387  0.8942
   29MOL   C12010816   3.115   5.247   0.014  0.9072 -0.5607 -0.2372
   29MOL   C12110817   3.044   5.279   0.148  0.2202  0.1838 -0.0023
   29MOL   C12210818   3.271   5.236   0.012 -0.5143  0.0662  0.5041
   29MOL   H12310819   2.725   5.309   7.599 -0.9049 -0.7070 -0.2182
   29MOL   H12410820   2.743   5.203   7.466 -1.4197  2.7282  0.0941
   29MOL   H12510821   2.880   5.038   7.595 -1.3903 -1.2426  1.5060
   29MOL   H12610822   3.074   5.099   7.687  1.5082  0.5188  0.9611
   29MOL   H12710823   3.055   5.049   0.029  0.0674  0.5344  2.5713
   29MOL   H12810824   3.083   5.331   7.778 -2.7840 -2.2821 -0.8405
   29MOL   H12910825   3.046   5.188   0.208  1.7942  1.2222  1.5507
   29MOL   H13010826   2.940   5.312   0.142 -0.6795 -2.0648  1.9840
   29MOL   H13110827   3.093   5.359   0.203  3.1398  0.3840 -2.7604
   29MOL   H13210828   3.302   5.222   7.733  1.3787  2.2811  0.7332
   29MOL   H13310829   3.318   5.328   0.045 -0.4132  0.7433 -1.4381
   29MOL   H13410830   3.315   5.163   0.079  2.1927 -0.0046 -1.2620
   29MOL   C13510831   2.684   5.056   7.686 -0.3592 -0.1321 -0.0772
   29MOL   C13610832   2.607   4.975   7.579 -0.1518  0.5700  0.1307
   29MOL   O13710833   2.700   4.884   7.518  0.4736 -0.0697 -0.5650
   29MOL   C13810834   2.653   4.798   7.417  0.7400  0.3539  0.0190
   29MOL   C13910835   2.777   4.718   7.378  0.0761 -0.0022 -0.0746
   29MOL   C14010836   2.855   4.662   7.500  0.0950  0.7586 -0.4195
   29MOL   C14110837   2.750   4.602   7.282  0.1075 -0.2874 -0.5910
   29MOL   H14210838   2.700   4.981   7.764 -1.3194 -1.4387 -1.1117
   29MOL   H14310839   2.613   5.131   7.722  0.4717  1.0922 -0.9535
   29MOL   H14410840   2.562   5.040   7.504 -0.4281  1.7998  1.3283
   29MOL   H14510841   2.620   4.864   7.336 -2.1226 -2.4041 -1.1749
   29MOL   H14610842   2.575   4.725   7.436  1.2544 -0.5517 -1.2780
   29MOL   H14710843   2.839   4.797   7.335 -0.9593  1.4591  1.0447
   29MOL   H14810844   2.790   4.596   7.557 -1.0996  1.8471 -0.4982
   29MOL   H14910845   2.886   4.746   7.562  0.4591  0.1803  0.1813
   29MOL   H15010846   2.944   4.606   7.473  0.8432  2.2264 -1.0611
   29MOL   H15110847   2.837   4.536   7.273  0.5896  0.2789 -0.0982
   29MOL   H15210848   2.664   4.539   7.308  1.2346 -1.4107  0.5138
   29MOL   H15310849   2.723   4.648   7.187  1.8651  1.1927 -0.4080
   29MOL   C15410850   2.485   4.891   7.641  0.0729 -0.1354  0.2130
   29MOL   C15510851   2.390   4.976   7.729  1.2071 -0.1528 -0.1326
   29MOL   O15610852   2.331   5.078   7.648  0.4570 -0.0094  0.0712
   29MOL   C15710853   2.292   5.202   7.714 -0.0006  0.0944  0.2332
   29MOL   C15810854   2.239   5.298   7.610 -0.5711  0.5515  0.5198
   29MOL   C15910855   2.347   5.348   7.510 -0.0371 -0.7570  0.6386
   29MOL   C16010856   2.111   5.240   7.546  0.1687 -0.1760 -0.0219
   29MOL   H16110857   2.521   4.799   7.686 -0.3361  0.3641  1.5825
   29MOL   H16210858   2.423   4.861   7.556 -0.8646 -1.0137  1.1992
   29MOL   H16310859   2.446   5.015   7.814  0.4474 -1.0290  0.7939
   29MOL   H16410860   2.373   5.251   7.768 -0.8552  0.0870  1.5432
   29MOL   H16510861   2.224   5.178   7.795  0.0903 -1.3322 -0.1060
   29MOL   H16610862   2.207   5.390   7.660  0.7878  0.4039  1.7180
   29MOL   H16710863   2.300   5.388   7.420  0.0498  0.0231  0.9343
   29MOL   H16810864   2.415   5.267   7.485  1.9798  0.8022  0.9226
   29MOL   H16910865   2.411   5.420   7.561  0.2348 -0.0002 -0.7303
   29MOL   H17010866   2.101   5.257   7.439 -0.9407  0.8731  0.2440
   29MOL   H17110867   2.103   5.133   7.570  1.4832 -0.2295  0.2438
   29MOL   H17210868   2.022   5.283   7.591 -0.6128  0.5483 -2.1906
   29MOL   C17310869   2.284   4.886   7.803  0.4283  0.1521  0.3019
   29MOL   C17410870   2.329   4.805   0.096  0.0518  0.4039 -0.2470
   29MOL   O17510871   2.281   4.865   0.212  0.8771 -1.0179 -0.1975
   29MOL   C17610872   2.388   4.915   0.297 -0.5539  0.6818  0.4346
   29MOL   C17710873   2.322   5.028   0.377 -0.1075  0.2182  0.7634
   29MOL   C17810874   2.274   5.139   0.284 -0.4136 -0.7603  0.5169
   29MOL   C17910875   2.202   5.001   0.466  0.1595 -0.2717 -0.5242
   29MOL   H18010876   2.201   4.951   0.008 -1.2276 -1.3172 -1.0195
   29MOL   H18110877   2.234   4.815   7.737 -1.7394 -0.9247  3.0026
   29MOL   H18210878   2.437   4.796   0.088  0.0798 -1.2562  1.4101
   29MOL   H18310879   2.463   4.945   0.224 -1.0094 -0.2549 -0.4275
   29MOL   H18410880   2.417   4.838   0.368 -0.5130  0.2775 -0.0195
   29MOL   H18510881   2.404   5.067   0.437 -2.1811  3.7535  1.4583
   29MOL   H18610882   2.222   5.225   0.326  0.2439  0.9864 -2.1667
   29MOL   H18710883   2.357   5.170   0.221 -1.2001  1.8044  0.7044
   29MOL   H18810884   2.196   5.089   0.227  0.6752 -2.7270  0.7052
   29MOL   H18910885   2.218   4.928   0.545 -1.3836 -0.2885 -0.2123
   29MOL   H19010886   2.112   4.968   0.413  0.2445  0.4301 -1.1121
   29MOL   H19110887   2.172   5.091   0.519 -0.4825  0.4927 -2.1476
   29MOL   C19210888   2.275   4.653   0.084 -0.3164 -1.1758 -0.4146
   29MOL   C19310889   2.363   4.564   0.164  0.3875 -0.1368  0.1642
   29MOL   O19410890   2.392   4.441   0.102 -0.2140  0.0581 -0.6422
   29MOL   C19510891   2.484   4.444   7.811 -0.4781  1.3271 -0.7600
   29MOL   C19610892   2.575   4.319   7.809 -0.2625 -0.2251 -0.5285
   29MOL   C19710893   2.688   4.327   7.703  0.8892  0.3854  0.2680
   29MOL   C19810894   2.481   4.203   7.783 -0.1361  0.3247  0.3678
   29MOL   H19910895   2.278   4.623   7.804  0.8999 -0.6475 -0.5368
   29MOL   H20010896   2.172   4.633   0.113  0.0391 -0.9803  1.0569
   29MOL   H20110897   2.456   4.614   0.191  1.6571 -1.8857 -0.8815
   29MOL   H20210898   2.550   4.529   7.821  1.0498  0.0632  0.1505
   29MOL   H20310899   2.430   4.461   7.718 -1.9716  0.5771 -0.0562
   29MOL   H20410900   2.626   4.286   0.075 -1.7376 -0.2943  0.2818
   29MOL   H20510901   2.642   4.362   7.611 -1.4842  0.2401  1.3546
   29MOL   H20610902   2.774   4.385   7.737  1.1904  0.2712 -0.3019
   29MOL   H20710903   2.724   4.227   7.681 -0.8330 -0.8323  2.7012
   29MOL   H20810904   2.536   4.110   7.764  0.4182 -0.0617  3.6514
   29MOL   H20910905   2.413   4.189   0.042 -2.0225  2.1195 -0.8329
   29MOL   H21010906   2.406   4.218   7.705 -1.3350  0.5238  1.5486
   29MOL   C21110907   2.296   4.517   0.296  0.5927 -0.3852  0.1716
   29MOL   C21210908   2.390   4.446   0.404  0.4864  0.1810  0.0756
   29MOL   O21310909   2.466   4.550   0.466 -0.2447 -0.1929 -0.0202
   29MOL   C21410910   2.586   4.505   0.526 -0.1847 -0.9966  0.4194
   29MOL   C21510911   2.642   4.619   0.612 -0.4992  0.6999 -0.2603
   29MOL   C21610912   2.560   4.629   0.743  0.6164  0.6032  0.2032
   29MOL   C21710913   2.786   4.594   0.645 -0.5575 -0.0489  0.1068
   29MOL   H21810914   2.215   4.448   0.273 -1.4741  1.6531  1.0957
   29MOL   H21910915   2.243   4.601   0.340 -0.9102 -0.5300 -1.3021
   29MOL   H22010916   2.455   4.375   0.351 -0.9639  0.5300 -2.2249
   29MOL   H22110917   2.656   4.478   0.447  0.4897 -0.7541  0.9294
   29MOL   H22210918   2.577   4.419   0.591 -1.2359 -2.5808 -1.7615
   29MOL   H22310919   2.641   4.711   0.553  1.9566  0.3329 -0.9148
   29MOL   H22410920   2.597   4.559   0.818  0.7364  1.2208  0.7205
   29MOL   H22510921   2.561   4.730   0.782  1.6978  0.8733 -0.4830
   29MOL   H22610922   2.456   4.604   0.725  0.4477  1.0500  0.5543
   29MOL   H22710923   2.798   4.507   0.709  0.4743  0.7140  0.9708
   29MOL   H22810924   2.823   4.688   0.687 -1.4228  0.9527 -1.3189
   29MOL   H22910925   2.833   4.588   0.547 -0.7282  1.3492 -0.0710
   29MOL   C23010926   2.302   4.374   0.507 -0.4038  0.6071 -0.4722
   29MOL   C23110927   2.245   4.246   0.459 -0.3567  0.1416  0.1369
   29MOL   O23210928   2.355   4.159   0.468 -0.3472 -0.4585  0.2217
   29MOL   C23310929   2.376   4.070   0.358 -0.4764 -0.1766  0.6132
   29MOL   C23410930   2.513   4.010   0.385  0.3502  0.1746  0.1918
   29MOL   C23510931   2.536   3.899   0.293 -0.1870 -0.1204 -0.8876
   29MOL   C23610932   2.622   4.124   0.372  0.9174  0.1835 -0.8625
   29MOL   H23710933   2.219   4.438   0.536 -0.8263  0.0987 -0.5616
   29MOL   H23810934   2.362   4.355   0.596 -1.7153  0.5444  0.4052
   29MOL   H23910935   2.209   4.250   0.356  0.8757  0.8559 -0.2782
   29MOL   H24010936   2.301   3.993   0.337  1.2966 -1.5707 -0.7911
   29MOL   H24110937   2.374   4.140   0.275 -3.3222 -3.0591 -1.8930
   29MOL   H24210938   2.504   3.977   0.489 -3.8399 -2.3791 -0.8677
   29MOL   H24310939   2.455   3.827   0.305  1.0731 -1.3134  0.5817
   29MOL   H24410940   2.629   3.842   0.300 -1.1788 -1.7367 -0.6167
   29MOL   H24510941   2.538   3.932   0.189 -1.9317  2.2161 -0.2050
   29MOL   H24610942   2.708   4.078   0.422  0.1097  0.8959  1.2507
   29MOL   H24710943   2.642   4.154   0.270  0.1635  2.1599 -0.4477
   29MOL   H24810944   2.597   4.214   0.428  0.5311 -0.2536 -0.3197
   29MOL   C24910945   2.135   4.193   0.555  0.3533  0.6896 -0.0955
   29MOL   C25010946   1.994   4.255   0.513 -0.1193  0.4500  0.0927
   29MOL   O25110947   1.955   4.200   0.391  0.1530 -0.1152  0.6903
   29MOL   C25210948   1.923   4.295   0.287  0.2790 -0.1587  0.1311
   29MOL   C25310949   1.866   4.224   0.162 -0.1397  0.3010 -0.6481
   29MOL   C25410950   1.834   4.322   0.041  0.0142 -0.4096  0.4776
   29MOL   C25510951   1.737   4.146   0.197 -0.5735  0.0149 -0.4544
   29MOL   H25610952   2.160   4.204   0.660  0.4361 -0.2291 -0.0177
   29MOL   H25710953   2.125   4.085   0.568  1.5099  0.3298 -2.0632
   29MOL   H25810954   2.004   4.362   0.494  1.9564 -0.0200 -1.6514
   29MOL   H25910955   1.838   4.356   0.319 -0.3606  0.0896 -1.9600
   29MOL   H26010956   2.002   4.361   0.249 -0.1281  0.0648 -0.3473
   29MOL   H26110957   1.942   4.152   0.130 -0.3436 -0.3282  0.2540
   29MOL   H26210958   1.923   4.360   7.815 -1.1020  1.3218 -0.2037
   29MOL   H26310959   1.765   4.402   0.065 -1.7979 -1.6245 -0.5191
   29MOL   H26410960   1.791   4.262   7.785 -1.0375  0.9439  0.0215
   29MOL   H26510961   1.652   4.212   0.186  0.2544  1.1219 -0.2362
   29MOL   H26610962   1.732   4.068   0.121 -1.7742  1.8550 -2.2794
   29MOL   H26710963   1.732   4.107   0.299 -0.2411 -1.4091 -0.9621
   29MOL   C26810964   1.886   4.212   0.615  0.2374 -0.1902 -1.0024
   29MOL   C26910965   1.748   4.276   0.588  0.1898 -0.2348  0.2558
   29MOL   O27010966   1.763   4.421   0.573 -0.2760  0.1479 -0.1835
   29MOL   C27110967   1.798   4.503   0.680 -0.5746  0.0097 -0.4680
   29MOL   C27210968   1.828   4.651   0.638 -0.2796  0.7864 -0.0819
   29MOL   C27310969   1.843   4.744   0.764 -0.0054 -0.4062  0.4026
   29MOL   C27410970   1.949   4.657   0.541 -0.3820  0.2506 -0.0871
   29MOL   H27510971   1.925   4.244   0.712  1.4917  0.8365 -1.8153
   29MOL   H27610972   1.870   4.105   0.621 -0.4436  0.0083  0.9053
   29MOL   H27710973   1.699   4.251   0.494  1.6878 -0.8393 -0.3834
   29MOL   H27810974   1.716   4.512   0.752 -0.9693 -0.4643 -0.8513
   29MOL   H27910975   1.878   4.472   0.746  0.1122 -1.0342 -1.7618
   29MOL   H28010976   1.745   4.687   0.578 -0.7182  0.8442  0.5610
   29MOL   H28110977   1.943   4.738   0.807  0.0253  2.4229  0.8003
   29MOL   H28210978   1.766   4.723   0.839 -1.1421 -0.4958 -0.7683
   29MOL   H28310979   1.829   4.845   0.725 -3.3611 -0.1055  2.1723
   29MOL   H28410980   1.942   4.757   0.497  0.4671  1.4617  2.3847
   29MOL   H28510981   1.944   4.580   0.465 -0.9948  1.7043 -1.5569
   29MOL   H28610982   2.045   4.644   0.591 -0.5051  0.4949  0.2180
   29MOL   C28710983   1.641   4.241   0.695  0.0287  0.1126 -0.0454
   29MOL   C28810984   1.490   4.279   0.667  0.2742  0.3053  0.5907
   29MOL   O28910985   1.433   4.280   0.796 -0.4387  0.1456  0.2358
   29MOL   C29010986   1.314   4.355   0.811  0.5665 -0.0375  0.6751
   29MOL   C29110987   1.242   4.311   0.939  0.6095  0.3838 -0.3743
   29MOL   C29210988   1.185   4.173   0.934 -0.3036 -0.0834  0.6020
   29MOL   C29310989   1.139   4.405   1.011 -0.4772 -0.1435  0.2542
   29MOL   H29410990   1.672   4.293   0.786 -0.2458  1.0904 -0.5039
   29MOL   H29510991   1.654   4.137   0.724 -1.7102  0.1199  0.8305
   29MOL   H29610992   1.487   4.384   0.636  1.3713  0.1096 -0.2213
   29MOL   H29710993   1.331   4.462   0.812  0.4998 -0.0094 -0.9589
   29MOL   H29810994   1.252   4.339   0.722  1.5494 -2.8764  0.4506
   29MOL   H29910995   1.326   4.297   1.008 -1.0078  0.5662  1.6920
   29MOL   H30010996   1.096   4.171   0.871  0.3447  1.0487 -0.3648
   29MOL   H30110997   1.154   4.128   1.028 -0.7926 -0.7879  0.1133
   29MOL   H30210998   1.251   4.098   0.890 -2.3301 -2.1149  0.8973
   29MOL   H30310999   1.109   4.377   1.112  1.2495 -1.7652  0.3523
   29MOL   H30411000   1.175   4.507   1.028  0.4269 -0.3814 -0.1965
   29MOL   H30511001   1.055   4.423   0.944 -2.1257 -0.6132  2.1432
   29MOL   C30611002   1.420   4.180   0.575  0.1772  0.4232 -0.2679
   29MOL   C30711003   1.323   4.252   0.471  0.3461  0.0213 -0.0637
   29MOL   O30811004   1.416   4.320   0.382  0.2689  0.0401  0.0605
   29MOL   C30911005   1.368   4.446   0.334 -0.7387 -0.4174  0.8015
   29MOL   C31011006   1.460   4.508   0.230  0.7500 -0.5304 -0.0451
   29MOL   C31111007   1.459   4.420   0.098  0.2830 -0.1638 -0.0220
   29MOL   C31211008   1.603   4.530   0.283 -0.2585  0.1899  0.0041
   29MOL   H31311009   1.368   4.117   0.648 -1.3952  2.2757  0.2471
   29MOL   H31411010   1.494   4.113   0.531 -1.4609 -0.6184 -1.5214
   29MOL   H31511011   1.258   4.322   0.523 -0.1370 -0.3743 -0.1333
   29MOL   H31611012   1.360   4.522   0.412  1.3936  2.6448 -1.8033
   29MOL   H31711013   1.266   4.433   0.298 -0.6720 -2.1040  1.1879
   29MOL   H31811014   1.421   4.600   0.187 -0.7115 -0.9559  0.3398
   29MOL   H31911015   1.357   4.410   0.060  0.1070  1.6170 -0.0696
   29MOL   H32011016   1.490   4.319   0.121 -0.8929  0.2462  3.6190
   29MOL   H32111017   1.522   4.470   0.024  1.5802  0.3623  1.4081
   29MOL   H32211018   1.671   4.552   0.201  0.5531 -0.9807  0.3564
   29MOL   H32311019   1.644   4.439   0.326 -0.2736 -0.6965 -1.8397
   29MOL   H32411020   1.610   4.605   0.362 -0.8864 -0.0405  0.2887
   29MOL   C32511021   1.245   4.145   0.382 -0.3699 -0.1867  0.3400
   29MOL   C32611022   1.111   4.090   0.440  0.7776  0.2362  0.3967
   29MOL   O32711023   1.000   4.177   0.405  0.4805  0.5415 -0.2787
   29MOL   C32811024   0.884   4.155   0.488 -0.7236  0.3596  0.5111
   29MOL   C32911025   0.811   4.283   0.543 -0.3836  0.7677  0.3804
   29MOL   C33011026   0.884   4.363   0.656 -0.1423  0.4502 -0.0487
   29MOL   C33111027   0.753   4.373   0.435 -0.0155  0.1966  0.3125
   29MOL   H33211028   1.313   4.068   0.346  0.5401  0.8308 -0.1304
   29MOL   H33311029   1.235   4.198   0.287 -1.0383 -1.4550 -0.3124
   29MOL   H33411030   1.109   4.080   0.548 -3.1364  0.5854  0.4505
   29MOL   H33511031   0.814   4.096   0.429 -1.6443  0.1922  1.7486
   29MOL   H33611032   0.908   4.089   0.571  1.9708  0.7064  0.0522
   29MOL   H33711033   0.726   4.237   0.592 -0.5974 -0.0261 -0.7257
   29MOL   H33811034   0.815   4.430   0.707  0.5460  2.7026 -1.9758
   29MOL   H33911035   0.919   4.304   0.741  0.9756  0.7784 -0.2665
   29MOL   H34011036   0.959   4.432   0.616 -0.3927  1.1802  0.7155
   29MOL   H34111037   0.679   4.445   0.470 -0.3859 -0.0946  0.1284
   29MOL   H34211038   0.831   4.436   0.393  0.2051  0.1012  0.5712
   29MOL   H34311039   0.689   4.326   0.360 -0.0885 -0.1822  0.6070
   29MOL   C34411040   1.082   3.953   0.371 -0.1469  0.4788 -0.6850
   29MOL   C34511041   1.157   3.838   0.441 -0.1770 -0.1347  0.1001
   29MOL   O34611042   1.067   3.803   0.543 -0.0200 -0.3814 -0.3468
   29MOL   C34711043   1.137   3.764   0.657  0.0275  0.1785 -0.5674
   29MOL   C34811044   1.039   3.748   0.776  0.0454  0.0606 -0.1584
   29MOL   C34911045   0.997   3.889   0.828  0.7844  0.1773  0.1302
   29MOL   C35011046   1.076   3.650   0.890  0.2504 -0.2559 -0.1392
   29MOL   H35111047   1.107   3.960   0.265 -0.5590  0.3482 -0.7925
   29MOL   H35211048   0.977   3.926   0.375 -0.1646  0.7420  0.5302
   29MOL   H35311049   1.257   3.874   0.467  0.0068  0.2301 -1.0863
   29MOL   H35411050   1.210   3.838   0.689 -0.1008 -0.3509  0.9602
   29MOL   H35511051   1.172   3.664   0.632  2.1687  0.6411  0.4170
   29MOL   H35611052   0.966   3.682   0.729 -1.6655  0.4269  1.9111
   29MOL   H35711053   0.909   3.895   0.892  1.4339  1.0130  0.9608
   29MOL   H35811054   0.984   3.966   0.752  1.6831  1.0807  0.8610
   29MOL   H35911055   1.079   3.930   0.887 -1.3157  0.6236  2.8488
   29MOL   H36011056   1.154   3.707   0.941  0.5256 -0.8369  0.0974
   29MOL   H36111057   0.993   3.636   0.958  0.6061 -0.3862  0.2728
   29MOL   H36211058   1.104   3.554   0.845  0.8447  0.4908 -1.3918
   29MOL   C36311059   1.186   3.709   0.354 -0.9839 -0.7444  0.1499
   29MOL   C36411060   1.324   3.702   0.284  0.6740 -0.3673  0.2748
   29MOL   O36511061   1.334   3.780   0.165  0.7041  0.4109 -0.1067
   29MOL   C36611062   1.470   3.829   0.147  0.5295 -0.6423  0.3864
   29MOL   C36711063   1.495   3.882   0.003  0.4177 -0.1253 -0.3470
   29MOL   C36811064   1.389   4.000   7.820  0.4823  0.3046 -0.1676
   29MOL   C36911065   1.460   3.779   7.719  0.0391  0.8525 -0.2404
   29MOL   H37011066   1.177   3.615   0.409 -1.6977 -0.0869  1.1609
   29MOL   H37111067   1.104   3.699   0.284 -0.6730  0.7957 -0.4312
   29MOL   H37211068   1.345   3.601   0.250 -1.9015  0.5857 -4.5980
   29MOL   H37311069   1.493   3.899   0.227 -1.4251  1.1767 -0.6083
   29MOL   H37411070   1.541   3.747   0.159  0.2478 -0.9488 -0.0466
   29MOL   H37511071   1.597   3.919   7.816  1.3264 -2.0747  1.1210
   29MOL   H37611072   1.394   4.060   7.729 -1.5743  0.3974 -0.2562
   29MOL   H37711073   1.418   4.072   0.071  3.1175 -2.2832  1.3520
   29MOL   H37811074   1.286   3.970   0.015  1.0746 -0.0249  2.5265
   29MOL   H37911075   1.473   3.827   7.622 -1.5307  1.0859 -0.3483
   29MOL   H38011076   1.362   3.731   7.727 -0.0491  1.0808  0.0351
   29MOL   H38111077   1.523   3.692   7.741  2.0580  3.2310  3.9897
   29MOL   H38211078   1.405   3.728   0.353 -0.3328  0.6866  1.0972
   30MOL     C111079   1.650   0.245   6.009  0.2384 -1.0337 -0.5998
   30MOL     C211080   1.718   0.347   6.101  0.2192 -0.2035  0.3206
   30MOL     O311081   1.758   0.280   6.221  0.3430 -0.2439 -0.0091
   30MOL     C411082   1.688   0.304   6.346 -0.6330 -0.3882  0.1569
   30MOL     C511083   1.731   0.193   6.442 -0.1604  0.5535  0.5767
   30MOL     C611084   1.882   0.200   6.470 -0.1689 -0.0281  0.5192
   30MOL     C711085   1.684   0.052   6.404 -0.5492  1.3590 -0.9850
   30MOL     H811086   1.583   0.298   5.942 -0.6020  0.4745  1.3684
   30MOL     H911087   1.718   0.180   5.954  1.3696 -0.1583 -0.2495
   30MOL    H1011088   1.642   0.422   6.127  2.3422  0.8501  3.9102
   30MOL    H1111089   1.585   0.297   6.310  0.2925  0.4253 -2.7737
   30MOL    H1211090   1.704   0.407   6.379 -2.4860 -0.3082  0.9017
   30MOL    H1311091   1.690   0.221   6.539 -2.1171  3.4456 -1.0398
   30MOL    H1411092   1.904   0.117   6.537  0.1915  0.0841  0.5397
   30MOL    H1511093   1.943   0.181   6.381 -1.3105  0.7267 -0.4464
   30MOL    H1611094   1.910   0.291   6.522 -2.4435  0.0166  1.7082
   30MOL    H1711095   1.733   0.022   6.311 -2.0425  0.2427 -1.4347
   30MOL    H1811096   1.722   7.805   6.477 -0.6124  3.5250  1.2050
   30MOL    H1911097   1.576   0.040   6.394 -0.1523 -1.2809 -2.6147
   30MOL    H2011098   1.585   0.174   6.061 -1.6194  0.8835 -0.2165
   30MOL    C2111099   1.850   0.416   6.044 -0.4157 -0.8763  0.6584
   30MOL    C2211100   1.897   0.549   6.115 -0.0865  0.9359 -0.7158
   30MOL    O2311101   2.032   0.578   6.091  0.0787  0.3423  0.2123
   30MOL    C2411102   2.111   0.503   6.181  0.1725  0.8523 -0.2675
   30MOL    C2511103   2.267   0.521   6.143 -0.4920 -0.0666 -0.3124
   30MOL    C2611104   2.289   0.674   6.125 -0.1348  0.0992 -0.3085
   30MOL    C2711105   2.356   0.472   6.258  0.5704  0.0072 -0.2772
   30MOL    H2811106   1.943   0.359   6.033  1.6057  1.9465  2.3485
   30MOL    H2911107   1.824   0.431   5.940 -0.0085  2.7624  1.0082
   30MOL    H3011108   1.878   0.547   6.222  0.0449  0.2442 -0.7005
   30MOL    H3111109   2.087   0.397   6.190  0.9880  0.4303 -2.7779
   30MOL    H3211110   2.108   0.547   6.281  1.9399  2.4118 -0.8677
   30MOL    H3311111   2.296   0.473   6.049 -0.7265 -0.7511 -0.0356
   30MOL    H3411112   2.234   0.731   6.200 -0.3432 -0.6983  0.1535
   30MOL    H3511113   2.257   0.706   6.026  0.0864  0.7606 -0.1696
   30MOL    H3611114   2.396   0.696   6.126  0.6471 -3.4193 -1.0004
   30MOL    H3711115   2.345   0.367   6.283 -2.0540 -0.2310 -2.1984
   30MOL    H3811116   2.459   0.486   6.227  0.0309 -1.1884 -2.7426
   30MOL    H3911117   2.347   0.542   6.342  0.0084  1.0601 -1.1985
   30MOL    C4011118   1.831   0.678   6.071  0.0778  0.3123 -0.7668
   30MOL    C4111119   1.861   0.805   6.157 -0.1780  0.1796 -0.3672
   30MOL    O4211120   1.774   0.787   6.273 -0.4219 -0.3408 -0.0213
   30MOL    C4311121   1.805   0.870   6.383 -0.9698  0.2153 -0.7707
   30MOL    C4411122   1.722   0.807   6.494  0.3097 -0.9887  0.1670
   30MOL    C4511123   1.748   0.878   6.626 -0.5393  0.4387 -0.8695
   30MOL    C4611124   1.569   0.796   6.464  0.2633  0.0618  0.0169
   30MOL    H4711125   1.723   0.666   6.065 -0.0495  0.9377  0.2776
   30MOL    H4811126   1.873   0.694   5.971 -1.3094  0.4851 -1.3351
   30MOL    H4911127   1.967   0.801   6.183 -0.3532  0.7234  0.4492
   30MOL    H5011128   1.762   0.968   6.361 -0.5712  0.9930  1.7939
   30MOL    H5111129   1.912   0.876   6.403 -0.9972 -1.5400  0.0297
   30MOL    H5211130   1.761   0.709   6.521  1.3101 -1.1272 -1.7498
   30MOL    H5311131   1.693   0.972   6.633 -0.7276  0.0869  3.2793
   30MOL    H5411132   1.717   0.806   6.701  2.1768  0.7463  0.6244
   30MOL    H5511133   1.854   0.893   6.647 -0.3088  1.4510 -2.6396
   30MOL    H5611134   1.519   0.741   6.544  0.4950  1.0197  0.8330
   30MOL    H5711135   1.566   0.730   6.378 -1.4625 -1.2188  1.0336
   30MOL    H5811136   1.524   0.892   6.439  1.1539  0.2131 -1.0635
   30MOL    C5911137   1.833   0.942   6.101 -0.0935  0.1879  0.0860
   30MOL    C6011138   1.686   0.977   6.067  0.1991  0.6932 -0.0364
   30MOL    O6111139   1.652   0.884   5.964 -0.1134  0.1199 -0.4850
   30MOL    C6211140   1.516   0.866   5.953  0.3910 -0.4692  0.3458
   30MOL    C6311141   1.479   0.827   5.807 -0.1146 -0.3392  0.1123
   30MOL    C6411142   1.556   0.717   5.734  0.4780  0.7228  0.2378
   30MOL    C6511143   1.329   0.783   5.799  0.4456 -0.2270 -0.3689
   30MOL    H6611144   1.908   0.957   6.023  0.5673 -0.9158  0.4938
   30MOL    H6711145   1.870   1.010   6.177 -0.6957 -2.3153  2.7356
   30MOL    H6811146   1.636   0.957   6.162  4.5660 -0.7422  2.1055
   30MOL    H6911147   1.489   0.796   6.032 -0.0410  1.3484  1.8392
   30MOL    H7011148   1.464   0.961   5.970 -1.9016 -1.5953 -0.0949
   30MOL    H7111149   1.495   0.919   5.752 -0.7509 -0.0326  0.4450
   30MOL    H7211150   1.661   0.727   5.762  0.7071 -1.4452  0.2510
   30MOL    H7311151   1.545   0.720   5.625  2.1452 -0.3938  0.0054
   30MOL    H7411152   1.524   0.620   5.770 -0.3205  0.4254 -1.2492
   30MOL    H7511153   1.270   0.857   5.852  0.5032 -1.7712  1.9457
   30MOL    H7611154   1.303   0.778   5.694  1.6389 -0.6385 -0.6550
   30MOL    H7711155   1.311   0.686   5.846 -1.5771 -0.8669 -2.4213
   30MOL    C7811156   1.678   1.123   6.017  0.0354 -0.0517 -0.8060
   30MOL    C7911157   1.691   1.226   6.131  0.4981 -0.2479  0.4951
   30MOL    O8011158   1.733   1.356   6.071 -0.0972  0.1160 -0.4237
   30MOL    C8111159   1.875   1.372   6.059 -0.0377  0.0390  0.0068
   30MOL    C8211160   1.912   1.497   5.977  0.5581  1.3748  0.1244
   30MOL    C8311161   1.842   1.614   6.037 -0.3230  0.9057  0.2376
   30MOL    C8411162   1.861   1.491   5.828  0.6312  0.7516  0.0063
   30MOL    H8511163   1.583   1.137   5.964  0.3018  1.0114 -1.0216
   30MOL    H8611164   1.757   1.137   5.943  0.0889 -2.4469 -1.2207
   30MOL    H8711165   1.770   1.206   6.204  1.4053  0.5643 -0.2378
   30MOL    H8811166   1.923   1.361   6.156  0.5173  1.8943 -0.0460
   30MOL    H8911167   1.923   1.292   6.002 -1.7579 -1.0383  0.0165
   30MOL    H9011168   2.020   1.502   5.966  0.7410 -2.1118 -0.2925
   30MOL    H9111169   1.889   1.638   6.133  1.3803 -0.9201 -0.1254
   30MOL    H9211170   1.736   1.593   6.053  0.0630  0.0672  1.8359
   30MOL    H9311171   1.857   1.699   5.970 -0.8028 -0.1808 -1.2582
   30MOL    H9411172   1.927   1.429   5.767  1.1177  0.4869  0.8043
   30MOL    H9511173   1.857   1.592   5.787  0.6639  0.8019  0.1303
   30MOL    H9611174   1.756   1.463   5.826  0.9215 -0.4316  1.0192
   30MOL    C9711175   1.563   1.249   6.211  0.4095 -0.5442  0.4136
   30MOL    C9811176   1.603   1.312   6.350 -0.0854  0.1266 -0.7737
   30MOL    O9911177   1.483   1.308   6.422  0.0363 -0.2569  0.5314
   30MOL   C10011178   1.465   1.197   6.510 -0.4037  0.4599  0.6459
   30MOL   C10111179   1.317   1.196   6.565 -0.2125 -0.7364  0.4206
   30MOL   C10211180   1.284   1.068   6.637  0.5305 -0.6751 -0.3042
   30MOL   C10311181   1.304   1.320   6.655  0.1088  0.5955  0.3149
   30MOL   H10411182   1.506   1.157   6.229 -2.0980  1.1114  1.1348
   30MOL   H10511183   1.496   1.318   6.159  0.3433  0.3654  1.6886
   30MOL   H10611184   1.679   1.243   6.386  0.3245  1.1547  0.3498
   30MOL   H10711185   1.538   1.179   6.589  0.3841 -0.8940 -0.3634
   30MOL   H10811186   1.465   1.108   6.446 -0.6464  0.2191  0.9792
   30MOL   H10911187   1.259   1.213   6.474  0.6441  0.3966  0.0692
   30MOL   H11011188   1.358   1.037   6.712  0.3267 -1.5127 -0.4379
   30MOL   H11111189   1.187   1.079   6.686  0.5506  0.5309 -0.5300
   30MOL   H11211190   1.286   0.981   6.572 -0.1679 -0.9368  0.0225
   30MOL   H11311191   1.376   1.308   6.737 -1.6260  0.5728  1.8699
   30MOL   H11411192   1.342   1.403   6.597 -1.9704  1.1515 -0.2902
   30MOL   H11511193   1.208   1.344   6.701 -0.2478 -1.8140  0.9220
   30MOL   C11611194   1.653   1.457   6.355  0.3503  0.3509 -0.2127
   30MOL   C11711195   1.733   1.495   6.482 -0.0363  0.0272 -0.2730
   30MOL   O11811196   1.777   1.624   6.466 -0.0192 -0.1550 -0.0259
   30MOL   C11911197   1.911   1.639   6.450 -0.0903 -0.2519  0.2436
   30MOL   C12011198   1.948   1.783   6.437 -0.5198  0.1351 -0.3114
   30MOL   C12111199   1.864   1.854   6.330  0.9997  0.1622  0.1370
   30MOL   C12211200   1.931   1.858   6.569 -0.1725 -0.1383  0.4031
   30MOL   H12311201   1.720   1.474   6.271  2.4583  3.4860  2.0326
   30MOL   H12411202   1.571   1.528   6.343  0.6312  0.3762 -2.1719
   30MOL   H12511203   1.815   1.425   6.500 -1.7747 -1.6898  1.2470
   30MOL   H12611204   1.954   1.588   6.364 -1.8331 -0.4171 -0.5474
   30MOL   H12711205   1.972   1.592   6.527 -0.0567 -0.7024 -0.0581
   30MOL   H12811206   2.053   1.776   6.409 -0.1724  0.0230  1.0267
   30MOL   H12911207   1.922   1.937   6.290  0.0530  1.3692  1.2185
   30MOL   H13011208   1.773   1.888   6.381  1.9852  1.4957  1.0573
   30MOL   H13111209   1.823   1.787   6.255 -2.3430 -0.0619  2.0365
   30MOL   H13211210   1.940   1.966   6.553 -0.3460 -0.1504  0.2190
   30MOL   H13311211   1.838   1.836   6.620 -0.3226  0.9077  0.5985
   30MOL   H13411212   2.004   1.832   6.646  0.9331  2.4586  0.2770
   30MOL   C13511213   1.640   1.511   6.605  0.2658 -0.7495  0.1348
   30MOL   C13611214   1.725   1.514   6.734 -0.1160 -0.6465 -1.6564
   30MOL   O13711215   1.640   1.547   6.846 -0.0736 -0.8154  0.2628
   30MOL   C13811216   1.677   1.668   6.911  0.5879 -0.0066 -0.5561
   30MOL   C13911217   1.567   1.694   7.023  0.1001  0.7608 -0.3904
   30MOL   C14011218   1.426   1.716   6.973 -0.0959  0.4768  0.4507
   30MOL   C14111219   1.583   1.583   7.132  0.2271  0.2732  0.0765
   30MOL   H14211220   1.579   1.601   6.607  1.7126  0.2966 -0.8495
   30MOL   H14311221   1.575   1.425   6.615 -2.6193  1.4706  1.1908
   30MOL   H14411222   1.799   1.593   6.717 -0.5888 -0.0290 -0.8883
   30MOL   H14511223   1.679   1.755   6.844 -0.9430  1.5905  1.4038
   30MOL   H14611224   1.775   1.657   6.956 -0.1835  0.6982  1.3218
   30MOL   H14711225   1.594   1.787   7.072 -0.9221  0.8179  0.0903
   30MOL   H14811226   1.394   1.638   6.904  0.7016  0.6737 -0.1572
   30MOL   H14911227   1.422   1.802   6.906  0.2778 -0.4241 -0.7436
   30MOL   H15011228   1.356   1.739   7.054  2.6382  3.1093  2.1793
   30MOL   H15111229   1.680   1.592   7.180 -0.1083  0.2606  0.7631
   30MOL   H15211230   1.509   1.607   7.208  1.6929 -0.1745  1.6773
   30MOL   H15311231   1.578   1.483   7.089 -0.0409  0.6113 -0.6973
   30MOL   C15411232   1.766   1.374   6.774 -0.2780  1.0354  0.4127
   30MOL   C15511233   1.862   1.372   6.899 -0.3197 -0.0712  0.4898
   30MOL   O15611234   1.874   1.239   6.940  0.2795  0.3547 -0.1057
   30MOL   C15711235   1.798   1.198   7.054 -0.4618  0.3227  0.4656
   30MOL   C15811236   1.759   1.055   7.039  0.0399 -0.0754 -0.5462
   30MOL   C15911237   1.759   0.962   7.160 -0.2483  0.4041 -0.2384
   30MOL   C16011238   1.623   1.051   6.969 -0.2758 -0.1610 -0.1387
   30MOL   H16111239   1.808   1.312   6.695 -2.2506 -1.3224  1.1375
   30MOL   H16211240   1.676   1.313   6.789 -1.2692  2.0868 -1.1399
   30MOL   H16311241   1.813   1.435   6.973 -1.3944  0.0943 -0.3337
   30MOL   H16411242   1.740   1.279   7.098  0.7365  0.3278  2.0600
   30MOL   H16511243   1.881   1.187   7.124 -0.7141  0.4164  0.7807
   30MOL   H16611244   1.825   0.999   6.972  0.9723  1.2710 -0.7650
   30MOL   H16711245   1.852   0.967   7.216  0.2450 -2.5604 -0.7149
   30MOL   H16811246   1.744   0.859   7.128  0.0511  0.1909  0.3037
   30MOL   H16911247   1.677   0.994   7.224  1.1165  2.5868  0.4563
   30MOL   H17011248   1.575   0.956   6.991 -1.3163  0.7734  1.7411
   30MOL   H17111249   1.557   1.120   7.021 -0.6578 -1.2204  0.7916
   30MOL   H17211250   1.625   1.070   6.862 -1.8054  0.8762  0.0143
   30MOL   C17311251   2.003   1.426   6.865  0.0250 -0.5352 -0.5710
   30MOL   C17411252   2.122   1.421   6.964 -0.1344 -0.7318  1.1153
   30MOL   O17511253   2.059   1.465   7.087 -0.1397 -0.0533 -0.5542
   30MOL   C17611254   2.146   1.486   7.199  0.1099 -0.1885  0.5157
   30MOL   C17711255   2.085   1.550   7.325  0.3732  0.4330  0.4128
   30MOL   C17811256   2.024   1.694   7.308  0.3746 -0.5733  0.3990
   30MOL   C17911257   1.979   1.445   7.385  0.0503 -0.1588  0.6554
   30MOL   H18011258   2.032   1.389   6.767  0.5502 -0.9437 -0.2616
   30MOL   H18111259   1.989   1.531   6.843  1.5771 -0.1842  0.0833
   30MOL   H18211260   2.188   1.505   6.945 -1.9987  0.6512  0.6137
   30MOL   H18311261   2.225   1.553   7.164 -1.0603  1.0607  0.2044
   30MOL   H18411262   2.196   1.394   7.229 -2.5828 -1.4888  1.1521
   30MOL   H18511263   2.151   1.559   7.412 -2.2741  1.0960  2.4207
   30MOL   H18611264   2.096   1.748   7.246 -0.7638  0.1929 -0.2908
   30MOL   H18711265   1.934   1.674   7.249  0.8227 -0.3093 -0.3925
   30MOL   H18811266   2.006   1.755   7.397 -1.5550 -0.1971 -0.2115
   30MOL   H18911267   1.915   1.407   7.305  0.7472  3.0182 -1.4992
   30MOL   H19011268   1.919   1.478   7.469 -1.3519  2.5367 -1.3473
   30MOL   H19111269   2.034   1.367   7.438 -0.8365 -0.3129  1.3506
   30MOL   C19211270   2.191   1.280   6.988 -0.7844 -0.2840  0.7103
   30MOL   C19311271   2.241   1.220   6.856  0.5515 -0.6434  0.2881
   30MOL   O19411272   2.240   1.081   6.873  0.5358  0.0324  0.4081
   30MOL   C19511273   2.118   1.009   6.845 -0.4032 -0.4970 -0.3926
   30MOL   C19611274   2.132   0.863   6.882 -0.3138  0.0225  0.1663
   30MOL   C19711275   2.047   0.767   6.812  0.6521  0.6710 -0.2166
   30MOL   C19811276   2.116   0.846   7.039  0.5063 -1.1357  0.5219
   30MOL   H19911277   2.115   1.221   7.039 -2.3516  1.9541  1.0695
   30MOL   H20011278   2.274   1.286   7.058  0.0302  0.7918 -0.3215
   30MOL   H20111279   2.172   1.258   6.781 -0.7439 -1.0870  1.2457
   30MOL   H20211280   2.119   1.016   6.737 -0.8223  0.8840 -0.3217
   30MOL   H20311281   2.035   1.058   6.896  1.7975  1.2212  1.6149
   30MOL   H20411282   2.235   0.838   6.855  0.1694  1.9377  0.1960
   30MOL   H20511283   2.050   0.762   6.703 -1.4324 -1.6957 -0.2186
   30MOL   H20611284   2.070   0.662   6.831 -1.4878  0.4600  1.3224
   30MOL   H20711285   1.944   0.786   6.842  0.5198 -1.7207  0.9939
   30MOL   H20811286   2.141   0.745   7.072  0.5473 -1.1781  0.3593
   30MOL   H20911287   2.184   0.906   7.100 -2.7567  1.3400  1.8956
   30MOL   H21011288   2.019   0.876   7.079  1.1130  1.6088  0.0355
   30MOL   C21111289   2.386   1.260   6.832 -0.1985  0.2809  0.6156
   30MOL   C21211290   2.434   1.252   6.686  0.9518 -0.1950 -0.6110
   30MOL   O21311291   2.364   1.350   6.611 -0.2769 -0.0856  0.2123
   30MOL   C21411292   2.319   1.299   6.492 -0.1298 -0.5947 -0.0444
   30MOL   C21511293   2.266   1.423   6.422 -0.4593 -0.6072  0.1029
   30MOL   C21611294   2.364   1.535   6.417  0.0382 -0.2165  0.6113
   30MOL   C21711295   2.223   1.404   6.281 -0.4095  0.3866 -0.2000
   30MOL   H21811296   2.450   1.195   6.891  1.7584  2.7286  1.3006
   30MOL   H21911297   2.400   1.361   6.871  0.2039 -0.2650  1.9015
   30MOL   H22011298   2.393   1.155   6.657 -0.6061  0.4164 -0.5212
   30MOL   H22111299   2.245   1.222   6.513 -0.1672 -0.5608 -0.0515
   30MOL   H22211300   2.408   1.269   6.436 -0.7261 -1.3693 -0.5862
   30MOL   H22311301   2.176   1.459   6.471 -0.7087  2.1889 -2.2648
   30MOL   H22411302   2.382   1.569   6.518  1.0163  0.1415  0.3236
   30MOL   H22511303   2.458   1.509   6.368  1.2044  2.1493  1.5053
   30MOL   H22611304   2.328   1.624   6.366 -0.2809  0.8303  2.6216
   30MOL   H22711305   2.211   1.501   6.232  1.3995  0.5381 -0.3884
   30MOL   H22811306   2.127   1.354   6.289  0.6314 -1.3422  2.3705
   30MOL   H22911307   2.293   1.339   6.227  0.8859  1.2786  0.3688
   30MOL   C23011308   2.588   1.254   6.672 -0.6172 -0.2022  0.5899
   30MOL   C23111309   2.656   1.126   6.700  0.2240 -0.1279  0.5775
   30MOL   O23211310   2.598   1.032   6.615 -0.0302 -0.0436 -0.2811
   30MOL   C23311311   2.596   0.900   6.663 -0.2424  0.1617 -0.0298
   30MOL   C23411312   2.532   0.803   6.568 -1.1809  0.8308 -0.0663
   30MOL   C23511313   2.385   0.842   6.532 -0.1134  0.4957  0.0732
   30MOL   C23611314   2.614   0.784   6.438 -0.6101 -0.2449 -0.1925
   30MOL   H23711315   2.629   1.325   6.743 -2.6918  0.4856  1.1385
   30MOL   H23811316   2.609   1.294   6.573 -4.0798  2.2650  0.7494
   30MOL   H23911317   2.628   1.097   6.801 -0.7723  0.1692  0.3988
   30MOL   H24011318   2.692   0.863   6.700  0.0536  0.4645 -0.4891
   30MOL   H24111319   2.531   0.900   6.750 -0.5041 -0.5450 -0.2206
   30MOL   H24211320   2.527   0.701   6.607 -0.6046  1.0120  0.4895
   30MOL   H24311321   2.382   0.949   6.511 -0.2826  0.2751 -1.0793
   30MOL   H24411322   2.334   0.828   6.627  0.1015 -2.0128 -0.1589
   30MOL   H24511323   2.336   0.787   6.452 -0.2614 -0.4468  0.8033
   30MOL   H24611324   2.573   0.706   6.374 -1.8219  1.0897 -1.0796
   30MOL   H24711325   2.585   0.877   6.389  1.2153  0.7857  0.6278
   30MOL   H24811326   2.720   0.761   6.444 -0.6319 -0.1707  0.4760
   30MOL   C24911327   2.813   1.135   6.680  0.0098  0.7531  0.1143
   30MOL   C25011328   2.895   1.166   6.802 -0.0519 -0.0701 -0.0063
   30MOL   O25111329   2.879   1.059   6.899 -0.1766  0.0507 -0.8217
   30MOL   C25211330   2.809   1.095   7.015 -0.1662 -0.1272 -0.6021
   30MOL   C25311331   2.808   0.968   7.100  0.1248  0.3579  0.2820
   30MOL   C25411332   2.680   0.960   7.188 -0.1048 -0.1293 -0.5857
   30MOL   C25511333   2.940   0.956   7.179  0.0068  0.1756  0.1163
   30MOL   H25611334   2.834   1.205   6.598 -0.9839  1.6843  0.6353
   30MOL   H25711335   2.847   1.036   6.650  1.3555  1.3594 -0.4190
   30MOL   H25811336   2.842   1.255   6.837  0.4093  0.3093 -0.2667
   30MOL   H25911337   2.860   1.169   7.078  0.7203 -1.0551 -0.2194
   30MOL   H26011338   2.709   1.138   7.012  0.4026  1.6588  2.7763
   30MOL   H26111339   2.818   0.879   7.038  1.8652  0.3959  0.4916
   30MOL   H26211340   2.598   0.972   7.118 -1.0016 -0.5216  0.3852
   30MOL   H26311341   2.682   1.041   7.261 -1.7529 -2.1896  1.8377
   30MOL   H26411342   2.650   0.868   7.237 -1.0658 -0.8276 -2.4529
   30MOL   H26511343   2.962   1.035   7.250 -0.0857  1.0220 -0.7918
   30MOL   H26611344   2.949   0.872   7.247  1.0333 -1.0920 -1.5413
   30MOL   H26711345   3.024   0.949   7.110  2.1673  0.7483  2.6546
   30MOL   C26811346   3.049   1.180   6.777  0.2377 -0.4227 -0.2179
   30MOL   C26911347   3.128   1.262   6.890 -0.1523 -0.0006  0.4687
   30MOL   O27011348   3.061   1.388   6.894 -0.4597 -0.1556 -0.6808
   30MOL   C27111349   3.054   1.450   7.025 -0.6187 -0.7659  0.0362
   30MOL   C27211350   2.984   1.585   6.994 -0.5262  0.6520  0.1257
   30MOL   C27311351   3.068   1.656   6.881 -0.1911 -0.2374  0.3739
   30MOL   C27411352   2.837   1.563   6.953  0.8966 -0.2696  0.2674
   30MOL   H27511353   3.059   1.245   6.690 -0.3589  0.6531  0.5137
   30MOL   H27611354   3.092   1.084   6.745 -1.5123 -1.0967 -0.5957
   30MOL   H27711355   3.112   1.216   6.987 -4.3563  1.2111  0.4232
   30MOL   H27811356   2.999   1.384   7.093 -0.4018  0.3249  1.2868
   30MOL   H27911357   3.155   1.482   7.049 -1.1839 -0.0639  1.5346
   30MOL   H28011358   2.988   1.650   7.081  0.5234  1.2475 -0.3518
   30MOL   H28111359   3.175   1.637   6.876  0.2219  1.8487  0.8204
   30MOL   H28211360   3.061   1.764   6.895  2.4099 -0.4015  3.6938
   30MOL   H28311361   3.013   1.637   6.789 -0.3468  0.1268  0.3909
   30MOL   H28411362   2.784   1.504   7.027  1.5020 -0.2213  0.7406
   30MOL   H28511363   2.823   1.520   6.854 -0.1918  1.0806 -0.1889
   30MOL   H28611364   2.789   1.661   6.947  1.1136 -0.1280  0.8221
   30MOL   C28711365   3.277   1.280   6.863 -0.5257 -0.3354  0.7279
   30MOL   C28811366   3.363   1.172   6.914 -0.6663  0.1269 -0.5694
   30MOL   O28911367   3.364   1.177   7.058 -0.1394  0.3427  0.6175
   30MOL   C29011368   3.399   1.050   7.122  0.1671 -0.1047  0.2157
   30MOL   C29111369   3.357   1.050   7.268  0.3505  0.2831  0.5419
   30MOL   C29211370   3.409   1.164   7.348 -0.6653  0.2755 -0.0904
   30MOL   C29311371   3.401   0.918   7.335  0.3635 -0.0910  0.0411
   30MOL   H29411372   3.314   1.374   6.902  0.3630 -0.3477 -0.0853
   30MOL   H29511373   3.281   1.291   6.755 -2.4333  0.4364  0.7140
   30MOL   H29611374   3.319   1.076   6.888  2.3202 -1.4994  0.1784
   30MOL   H29711375   3.351   0.964   7.074  0.8573 -0.5085  0.2375
   30MOL   H29811376   3.507   1.049   7.105  0.0138 -0.9807 -0.7696
   30MOL   H29911377   3.248   1.058   7.278  0.1820  0.4834 -1.2829
   30MOL   H30011378   3.369   1.260   7.316 -0.3414  0.9350  1.4419
   30MOL   H30111379   3.517   1.165   7.332 -0.8041 -2.4918 -1.6046
   30MOL   H30211380   3.391   1.151   7.454 -0.5038 -1.5013 -0.2684
   30MOL   H30311381   3.332   0.839   7.305 -1.2698  0.8241  1.3343
   30MOL   H30411382   3.495   0.888   7.288 -0.4098 -1.3522 -0.7214
   30MOL   H30511383   3.420   0.910   7.442 -1.4293 -4.7878  0.1138
   30MOL   C30611384   3.504   1.191   6.847 -0.3202  0.0123  0.5468
   30MOL   C30711385   3.602   1.071   6.825  0.0941  0.9920 -0.4380
   30MOL   O30811386   3.563   0.986   6.718  0.1277  0.2671 -0.3165
   30MOL   C30911387   3.573   0.843   6.759 -0.0169  0.1330  1.2315
   30MOL   C31011388   3.440   0.786   6.806  0.5898 -0.1143 -0.0809
   30MOL   C31111389   3.455   0.644   6.844 -0.1826  0.4667 -0.9049
   30MOL   C31211390   3.336   0.808   6.694 -0.1575 -0.2215  0.6128
   30MOL   H31311391   3.533   1.281   6.902  1.8829  0.3793 -1.1534
   30MOL   H31411392   3.493   1.220   6.742  1.1139 -0.7574  0.1717
   30MOL   H31511393   3.614   1.037   6.928  1.2383  2.8789  0.0738
   30MOL   H31611394   3.651   0.821   6.832 -1.5291 -1.3994  2.4339
   30MOL   H31711395   3.600   0.807   6.659 -1.2126  1.3201  0.4629
   30MOL   H31811396   3.414   0.852   6.889  0.6421 -0.8690  0.5374
   30MOL   H31911397   3.532   0.642   6.921  0.4035  2.0872 -1.4191
   30MOL   H32011398   3.492   0.579   6.764  2.5458  0.8882 -0.0400
   30MOL   H32111399   3.370   0.593   6.889  1.9052 -2.2084  0.1467
   30MOL   H32211400   3.353   0.750   6.604 -1.5145 -1.8988  1.4074
   30MOL   H32311401   3.325   0.913   6.666 -0.6185 -0.1306  1.1234
   30MOL   H32411402   3.239   0.778   6.733 -0.8058  0.9234 -0.1108
   30MOL   C32511403   3.744   1.114   6.798 -0.2070 -0.5060  0.3195
   30MOL   C32611404   3.815   1.194   6.912  0.5212 -0.0875  0.0029
   30MOL   O32711405   3.845   1.111   7.018 -0.3035 -0.3981 -0.0693
   30MOL   C32811406   3.819   1.164   7.146  1.0893  1.1156 -0.4553
   30MOL   C32911407   3.901   1.103   7.256 -0.4440  0.4763  0.8770
   30MOL   C33011408   3.854   1.163   7.393  0.4219  0.1749  0.5452
   30MOL   C33111409   3.887   0.950   7.256 -1.0219  0.2057  1.0294
   30MOL   H33211410   3.738   1.162   6.700 -0.0190 -0.6983  0.2125
   30MOL   H33311411   3.804   1.026   6.773  0.6140 -0.1483  0.9879
   30MOL   H33411412   3.748   1.273   6.947  0.0968 -1.0513  1.3925
   30MOL   H33511413   3.831   1.272   7.160  0.7568  1.1295 -0.2719
   30MOL   H33611414   3.717   1.138   7.174  0.9416 -0.7820 -2.6524
   30MOL   H33711415   4.007   1.120   7.238 -0.6510  2.4511  1.4451
   30MOL   H33811416   3.758   1.124   7.428  0.1598 -0.3561 -0.7186
   30MOL   H33911417   3.927   1.125   7.465  1.7041 -0.4432 -1.0438
   30MOL   H34011418   3.866   1.270   7.411 -0.3244  0.0535  1.8325
   30MOL   H34111419   3.785   0.919   7.233 -0.9882  0.7892  0.0213
   30MOL   H34211420   3.936   0.912   7.167 -1.2695 -0.7584  1.2976
   30MOL   H34311421   3.935   0.908   7.344 -0.9306  0.4966  1.1178
   30MOL   C34411422   3.942   1.266   6.856  0.2938  0.1599 -0.3544
   30MOL   C34511423   3.962   1.407   6.905  0.0592 -0.2420 -0.5382
   30MOL   O34611424   4.094   1.452   6.888 -0.0633 -0.1410 -0.1997
   30MOL   C34711425   4.180   1.424   7.000 -0.1937 -0.0126 -0.2939
   30MOL   C34811426   4.311   1.501   6.989  0.1797  0.0880  0.0177
   30MOL   C34911427   4.283   1.647   6.950 -0.1744  0.7430 -0.0457
   30MOL   C35011428   4.411   1.441   6.900 -0.1319  0.4326  0.6325
   30MOL   H35111429   3.923   1.275   6.749  0.6253  2.1676 -0.2524
   30MOL   H35211430   4.026   1.199   6.876 -0.2400 -0.9698 -1.8062
   30MOL   H35311431   3.942   1.415   7.011  2.8757 -0.9836  0.1007
   30MOL   H35411432   4.196   1.316   6.993 -1.6693 -0.4254  2.1767
   30MOL   H35511433   4.125   1.455   7.089 -0.8328  2.6687 -1.5547
   30MOL   H35611434   4.345   1.499   7.092  0.4850  3.1283  0.0171
   30MOL   H35711435   4.364   1.708   6.990 -1.3574  3.0369 -1.0458
   30MOL   H35811436   4.188   1.675   6.996 -0.1644 -1.0168  1.0754
   30MOL   H35911437   4.275   1.655   6.842 -1.1789  1.5275  0.0808
   30MOL   H36011438   4.363   1.414   6.806  1.7780 -0.8284 -0.0212
   30MOL   H36111439   4.493   1.510   6.879  0.3300 -0.4599 -0.6028
   30MOL   H36211440   4.445   1.344   6.938  1.7321  1.3929  1.5042
   30MOL   C36311441   3.869   1.513   6.845  0.7056  0.9996 -0.1379
   30MOL   C36411442   3.881   1.655   6.901  0.6673  0.1705 -0.7206
   30MOL   O36511443   3.770   1.726   6.843  0.7998 -0.1638 -0.0545
   30MOL   C36611444   3.768   1.865   6.883 -0.6930 -0.9082 -0.7344
   30MOL   C36711445   3.635   1.915   6.829 -0.5590  0.1520 -0.0801
   30MOL   C36811446   3.645   1.935   6.679  0.6506  0.1356  0.4229
   30MOL   C36911447   3.574   2.048   6.891  0.5815  0.3367  0.4323
   30MOL   H37011448   3.880   1.516   6.737  0.3517 -0.6088 -0.2407
   30MOL   H37111449   3.764   1.487   6.857  0.8140  0.5745 -0.0897
   30MOL   H37211450   3.976   1.696   6.867  1.1281  0.3719  0.7733
   30MOL   H37311451   3.777   1.872   6.991 -2.1602 -0.5764 -0.6192
   30MOL   H37411452   3.855   1.917   6.844 -1.2377  1.5500  1.2380
   30MOL   H37511453   3.559   1.837   6.844 -1.1953  0.4843 -1.4970
   30MOL   H37611454   3.713   2.013   6.643  0.5595  0.2954  0.5944
   30MOL   H37711455   3.549   1.946   6.629  0.0942 -1.2557  1.1683
   30MOL   H37811456   3.684   1.841   6.642 -0.2936 -0.6885  1.5007
   30MOL   H37911457   3.644   2.126   6.861 -1.2498  0.6227 -3.3630
   30MOL   H38011458   3.567   2.020   6.996  0.7285 -0.9504  0.1123
   30MOL   H38111459   3.478   2.085   6.856  0.4182 -0.5286 -0.0468
   30MOL   H38211460   3.866   1.655   7.009  0.0583 -0.5531 -0.8006
   31MOL     C111461   0.812   3.857   4.698 -0.1020 -0.4418 -0.6393
   31MOL     C211462   0.673   3.873   4.632 -0.0635 -0.2884 -0.0860
   31MOL     O311463   0.594   3.763   4.668 -0.0973  0.0035  0.9627
   31MOL     C411464   0.601   3.642   4.593 -0.1418  0.2785 -0.2973
   31MOL     C511465   0.530   3.533   4.675 -0.0425 -0.3161 -0.8777
   31MOL     C611466   0.544   3.399   4.604 -0.1160 -0.6361 -1.3015
   31MOL     C711467   0.392   3.579   4.727  0.6933  0.3250  0.1757
   31MOL     H811468   0.850   3.760   4.668 -0.3161 -0.6608 -0.2074
   31MOL     H911469   0.881   3.930   4.655  0.4284  0.7796  2.1625
   31MOL    H1011470   0.682   3.858   4.524  1.9311 -1.0952  0.1795
   31MOL    H1111471   0.705   3.621   4.568 -0.2346  0.0290 -0.4835
   31MOL    H1211472   0.544   3.657   4.501 -2.6035  0.7190  1.2391
   31MOL    H1311473   0.596   3.520   4.761 -0.3554 -0.4457 -0.6594
   31MOL    H1411474   0.504   3.416   4.504  0.1791 -0.1286 -1.3345
   31MOL    H1511475   0.647   3.363   4.602 -0.5181 -2.2416  2.2903
   31MOL    H1611476   0.491   3.320   4.658 -0.6103  2.2403  2.6419
   31MOL    H1711477   0.397   3.678   4.771 -1.6659  0.7388 -0.4270
   31MOL    H1811478   0.320   3.582   4.645 -0.7514  1.0657  1.4619
   31MOL    H1911479   0.350   3.515   4.805 -0.8226 -0.0775 -0.9552
   31MOL    H2011480   0.806   3.866   4.806  1.1245 -0.9482 -0.5252
   31MOL    C2111481   0.600   3.997   4.667 -0.1438 -0.2323  0.7950
   31MOL    C2211482   0.473   4.034   4.578  0.4208 -0.3862  0.3250
   31MOL    O2311483   0.391   4.131   4.641  0.0840  0.2418 -0.4514
   31MOL    C2411484   0.327   4.105   4.759  0.5102  0.6752  0.5004
   31MOL    C2511485   0.221   3.996   4.749  0.5373  0.4797 -0.0496
   31MOL    C2611486   0.164   3.949   4.889  0.1229  0.6990 -0.0074
   31MOL    C2711487   0.107   4.046   4.657  0.6482  0.0961 -0.0219
   31MOL    H2811488   0.577   4.007   4.773 -0.7845  2.1863  0.4616
   31MOL    H2911489   0.664   4.085   4.666  1.1423 -1.1390 -2.1658
   31MOL    H3011490   0.422   3.939   4.560 -0.0348 -0.3257  1.2818
   31MOL    H3111491   0.276   4.199   4.780 -0.4369  0.1694  0.4667
   31MOL    H3211492   0.392   4.086   4.844  0.4331  2.0254  0.8809
   31MOL    H3311493   0.254   3.908   4.694  0.2392  1.3358 -1.6401
   31MOL    H3411494   0.245   3.901   4.944  0.2684 -0.6152 -1.3090
   31MOL    H3511495   0.085   3.874   4.886  1.4881 -0.7281 -1.4256
   31MOL    H3611496   0.133   4.030   4.955  0.2513  0.2069  0.6590
   31MOL    H3711497   0.039   4.124   4.692 -0.5095 -0.8389 -0.1453
   31MOL    H3811498   0.157   4.074   4.564  1.7114 -3.6272 -0.6588
   31MOL    H3911499   0.038   3.964   4.636  0.0495  0.6147 -0.0738
   31MOL    C4011500   0.518   4.095   4.438  0.2738 -0.9728  0.1455
   31MOL    C4111501   0.433   4.056   4.316 -0.0186 -0.2252 -0.5573
   31MOL    O4211502   0.475   3.921   4.305 -0.3818 -0.1270 -0.0532
   31MOL    C4311503   0.415   3.842   4.196 -0.4494  0.2397 -0.7029
   31MOL    C4411504   0.466   3.697   4.200  0.3521  0.1485 -0.0777
   31MOL    C4511505   0.410   3.615   4.079 -0.7465 -0.6583 -0.3209
   31MOL    C4611506   0.613   3.682   4.196  0.4998 -0.1949 -0.0959
   31MOL    H4711507   0.623   4.070   4.424  0.0040 -1.4637 -1.1031
   31MOL    H4811508   0.506   4.203   4.441 -0.7591 -0.9966 -1.8498
   31MOL    H4911509   0.329   4.064   4.348 -0.4921 -0.6658 -1.9361
   31MOL    H5011510   0.434   3.879   4.096  1.1184 -0.9693 -0.8566
   31MOL    H5111511   0.306   3.849   4.208 -0.2970  2.2133 -0.1649
   31MOL    H5211512   0.422   3.641   4.283  1.2052 -1.8703 -0.9760
   31MOL    H5311513   0.464   3.640   3.987  0.3712  1.2924  0.8182
   31MOL    H5411514   0.450   3.514   4.091 -0.3679 -0.4825 -0.0757
   31MOL    H5511515   0.302   3.618   4.074 -0.7333 -0.7381 -0.7166
   31MOL    H5611516   0.666   3.731   4.279 -2.1837  2.2067  0.2840
   31MOL    H5711517   0.644   3.719   4.099 -2.4087  0.4030 -0.8558
   31MOL    H5811518   0.639   3.577   4.200  1.4891 -0.0426 -2.2056
   31MOL    C5911519   0.475   4.145   4.195 -0.2525 -0.1010  0.5247
   31MOL    C6011520   0.430   4.289   4.198 -0.2457 -0.1996  0.6056
   31MOL    O6111521   0.291   4.282   4.164 -0.1775 -0.2467  0.3346
   31MOL    C6211522   0.212   4.385   4.223 -0.1465  0.1505 -0.1735
   31MOL    C6311523   0.070   4.384   4.173  0.0748 -0.3359 -0.6180
   31MOL    C6411524   0.071   4.428   4.025 -0.3554 -0.2643  0.9777
   31MOL    C6511525   0.001   4.252   4.179 -0.3812 -0.0115  0.4312
   31MOL    H6611526   0.407   4.099   4.123 -2.1035 -1.3347  2.9522
   31MOL    H6711527   0.580   4.125   4.173 -0.2431  1.0134 -0.4793
   31MOL    H6811528   0.445   4.326   4.300 -0.2804  2.5239 -0.3519
   31MOL    H6911529   0.223   4.378   4.332 -0.6033  0.0056 -0.1333
   31MOL    H7011530   0.259   4.481   4.203 -0.2003 -0.0298 -1.1471
   31MOL    H7111531   0.014   4.451   4.238 -0.8887 -1.4389 -0.2873
   31MOL    H7211532   7.793   4.435   3.987  0.0974 -1.9902 -0.6920
   31MOL    H7311533   0.128   4.353   3.970 -1.6178 -0.0790 -0.6278
   31MOL    H7411534   0.101   4.532   4.013  0.5982 -0.8268 -1.7650
   31MOL    H7511535   0.048   4.174   4.119 -0.3478 -0.9766  1.6893
   31MOL    H7611536   7.808   4.218   4.281 -2.0861  1.2269  0.5815
   31MOL    H7711537   7.727   4.265   4.136 -0.1544  1.4233  0.3265
   31MOL    C7811538   0.513   4.387   4.109  1.0975 -0.1817 -0.1354
   31MOL    C7911539   0.510   4.365   3.954 -0.4127  0.5077  0.5041
   31MOL    O8011540   0.415   4.464   3.916 -0.5955  0.1301  0.9992
   31MOL    C8111541   0.355   4.442   3.784 -0.2460  0.2587 -0.5996
   31MOL    C8211542   0.275   4.569   3.740  0.3360 -0.0922 -0.1444
   31MOL    C8311543   0.241   4.560   3.592  0.8754 -0.5512  0.1893
   31MOL    C8411544   0.364   4.691   3.762 -0.2117  0.7389 -0.9311
   31MOL    H8511545   0.617   4.384   4.141  0.7957  2.2795  1.2220
   31MOL    H8611546   0.474   4.487   4.125 -0.3951 -1.0396  1.7080
   31MOL    H8711547   0.469   4.265   3.942  2.2873 -0.7334  1.2001
   31MOL    H8811548   0.433   4.429   3.709 -1.3142 -3.5479 -1.1459
   31MOL    H8911549   0.290   4.355   3.781 -0.7715  0.4424  2.7410
   31MOL    H9011550   0.186   4.578   3.801  1.2922  0.8115  1.1333
   31MOL    H9111551   0.321   4.574   3.520  1.3193 -0.0447  0.7746
   31MOL    H9211552   0.185   4.652   3.572  2.5540  0.2437 -0.9261
   31MOL    H9311553   0.177   4.475   3.565  0.5109 -0.4680  0.7739
   31MOL    H9411554   0.462   4.672   3.717  0.0477  0.0191 -0.0921
   31MOL    H9511555   0.387   4.709   3.867  1.0496 -0.8058 -0.9058
   31MOL    H9611556   0.328   4.785   3.723 -0.9910  1.7249  2.0098
   31MOL    C9711557   0.647   4.384   3.877  0.1709  0.1070  0.2541
   31MOL    C9811558   0.750   4.282   3.909  0.5068 -0.2833  0.1519
   31MOL    O9911559   0.872   4.315   3.839  0.1483  0.0741  0.0690
   31MOL   C10011560   0.935   4.436   3.883  0.6618  1.2170 -0.1428
   31MOL   C10111561   1.079   4.446   3.839  0.0246  0.5241  0.2201
   31MOL   C10211562   1.132   4.595   3.853 -0.3954 -0.0265 -0.0735
   31MOL   C10311563   1.160   4.338   3.906  0.0189  0.1786  0.1145
   31MOL   H10411564   0.677   4.484   3.910 -2.6576  0.8275  0.8605
   31MOL   H10511565   0.631   4.396   3.770 -1.8553 -1.1268  0.3899
   31MOL   H10611566   0.767   4.285   4.017  0.1478  1.6357  0.1842
   31MOL   H10711567   0.924   4.435   3.992 -1.8285  0.6613 -0.3535
   31MOL   H10811568   0.886   4.530   3.857 -1.6921  0.1796  0.4205
   31MOL   H10911569   1.082   4.427   3.732  0.0536 -0.5145  0.4043
   31MOL   H11011570   1.239   4.605   3.835 -0.0387  1.0368  2.4106
   31MOL   H11111571   1.080   4.662   3.785  2.3668  1.5440 -0.7172
   31MOL   H11211572   1.118   4.629   3.955 -2.7594 -0.8617 -0.0916
   31MOL   H11311573   1.123   4.241   3.872 -0.0150  0.7909 -1.6595
   31MOL   H11411574   1.258   4.340   3.858  1.2009  1.9125  2.4414
   31MOL   H11511575   1.156   4.334   4.015 -1.1366 -3.2808  0.0072
   31MOL   C11611576   0.707   4.143   3.862 -0.8100 -0.0625 -0.0093
   31MOL   C11711577   0.819   4.041   3.897 -0.8222 -0.8287 -0.0127
   31MOL   O11811578   0.831   4.050   4.041 -0.6679  0.4884  0.6988
   31MOL   C11911579   0.961   4.042   4.092  0.3679  0.0387 -0.2513
   31MOL   C12011580   0.964   4.074   4.248  0.5623  0.3910  0.0470
   31MOL   C12111581   0.936   4.222   4.281  0.4774  0.1839 -0.0559
   31MOL   C12211582   0.894   3.964   4.326  0.2292  0.0926 -0.1706
   31MOL   H12311583   0.620   4.103   3.914 -1.6175  0.6270 -0.8165
   31MOL   H12411584   0.696   4.133   3.754 -2.7986  1.8718 -0.0056
   31MOL   H12511585   0.911   4.071   3.848 -1.3448 -0.4537 -0.7655
   31MOL   H12611586   1.032   4.105   4.038  1.1328 -1.0006 -0.4619
   31MOL   H12711587   0.989   3.937   4.087 -0.5464 -0.3561  2.1148
   31MOL   H12811588   1.067   4.063   4.283 -0.4162  0.0092  2.9178
   31MOL   H12911589   0.984   4.285   4.206 -0.4096  0.1021 -0.6939
   31MOL   H13011590   0.967   4.250   4.382  2.3425 -2.2974  0.0956
   31MOL   H13111591   0.830   4.240   4.266  0.2018 -1.1314  0.2499
   31MOL   H13211592   0.897   3.990   4.432  4.2194  1.5906 -0.5682
   31MOL   H13311593   0.789   3.952   4.298  0.2986  1.1496 -0.8940
   31MOL   H13411594   0.936   3.864   4.311 -0.7798 -0.7588  2.3635
   31MOL   C13511595   0.791   3.894   3.857 -0.3643 -0.2659  0.0854
   31MOL   C13611596   0.814   3.865   3.703  0.0768  0.1895  0.6761
   31MOL   O13711597   0.951   3.883   3.676  0.5186 -0.3196  0.0336
   31MOL   C13811598   0.990   3.912   3.538 -0.0486  0.6185  0.3002
   31MOL   C13911599   1.143   3.946   3.535 -0.4480  1.1439 -0.1220
   31MOL   C14011600   1.172   4.077   3.604 -0.9348 -0.7873  0.0181
   31MOL   C14111601   1.226   3.824   3.588  0.5732 -0.1697  0.0440
   31MOL   H14211602   0.871   3.842   3.910 -1.6469  0.7638  3.1547
   31MOL   H14311603   0.696   3.847   3.880 -1.4843  2.7464  1.9151
   31MOL   H14411604   0.769   3.944   3.643  2.0859 -0.5592 -1.9138
   31MOL   H14511605   0.939   4.001   3.501  1.1655  1.0504 -0.3353
   31MOL   H14611606   0.970   3.825   3.475  0.1947  0.1304  0.8924
   31MOL   H14711607   1.163   3.959   3.429 -0.0501 -0.6641 -0.2847
   31MOL   H14811608   1.091   4.146   3.580  1.0539  1.3532 -0.7082
   31MOL   H14911609   1.255   4.132   3.560 -0.6755 -1.3583 -0.2022
   31MOL   H15011610   1.178   4.076   3.713  1.4051  0.7369 -0.0583
   31MOL   H15111611   1.189   3.789   3.685  1.2503 -2.2042 -0.4192
   31MOL   H15211612   1.205   3.742   3.520  1.3140  0.6201 -1.1634
   31MOL   H15311613   1.335   3.828   3.597  0.4289  0.0154  1.9984
   31MOL   C15411614   0.743   3.734   3.655 -0.1236  0.0554  0.1349
   31MOL   C15511615   0.808   3.599   3.717  0.0921  0.2790  0.5228
   31MOL   O15611616   0.736   3.481   3.694  0.2055  0.2898 -0.8365
   31MOL   C15711617   0.592   3.481   3.721  0.0519  0.1542 -0.0994
   31MOL   C15811618   0.536   3.338   3.759  0.5008  0.2656  0.1171
   31MOL   C15911619   0.511   3.257   3.629 -0.1276  0.1929  0.7848
   31MOL   C16011620   0.633   3.274   3.861  0.3319 -0.0943  0.0190
   31MOL   H16111621   0.761   3.718   3.549  1.7841  2.4338  0.0698
   31MOL   H16211622   0.635   3.745   3.664 -0.2157 -0.5575 -0.1553
   31MOL   H16311623   0.823   3.617   3.823  2.2762 -1.1799  0.4849
   31MOL   H16411624   0.527   3.527   3.647 -1.4473 -2.1840 -0.2595
   31MOL   H16511625   0.571   3.543   3.809  1.2832  1.3765 -0.6307
   31MOL   H16611626   0.436   3.343   3.802  1.3102  1.6856  1.8726
   31MOL   H16711627   0.431   3.309   3.577 -1.5362 -0.2728  2.4384
   31MOL   H16811628   0.470   3.157   3.647  0.8568 -0.1264  1.3197
   31MOL   H16911629   0.598   3.247   3.564  0.1417  0.1068  1.1557
   31MOL   H17011630   0.662   3.348   3.936  0.8130 -0.9406  0.6648
   31MOL   H17111631   0.599   3.187   3.918  0.9421  0.9015  1.9498
   31MOL   H17211632   0.729   3.270   3.811 -0.0841  1.0939 -0.8921
   31MOL   C17311633   0.950   3.573   3.665  0.5165 -0.2570 -0.2780
   31MOL   C17411634   1.016   3.445   3.719 -0.4250  0.4125  0.7693
   31MOL   O17511635   1.144   3.453   3.653 -0.0558 -0.3274  0.0905
   31MOL   C17611636   1.163   3.385   3.525  0.7686  0.2002 -0.8081
   31MOL   C17711637   1.318   3.356   3.509 -0.5135 -0.2639 -0.3033
   31MOL   C17811638   1.353   3.323   3.363 -0.3166 -0.3840  0.3824
   31MOL   C17911639   1.385   3.481   3.551  0.1073  0.5815 -0.7151
   31MOL   H18011640   0.954   3.587   3.557  1.0899  1.5150 -0.0541
   31MOL   H18111641   1.004   3.657   3.710 -0.7651 -1.1561  3.1389
   31MOL   H18211642   0.958   3.363   3.677  0.2560  0.8280 -1.0101
   31MOL   H18311643   1.130   3.448   3.444  0.1194  0.9140  0.0040
   31MOL   H18411644   1.111   3.290   3.510  0.4218  0.6362 -2.4001
   31MOL   H18511645   1.333   3.276   3.582 -0.5228 -0.3029 -0.3445
   31MOL   H18611646   1.287   3.368   3.289  1.3085 -3.3871 -3.0518
   31MOL   H18711647   1.453   3.349   3.330 -0.7023  1.7726  0.8711
   31MOL   H18811648   1.349   3.215   3.350 -1.2213 -0.2599 -0.4112
   31MOL   H18911649   1.492   3.465   3.535  0.1906  1.0823 -0.6585
   31MOL   H19011650   1.380   3.488   3.660 -1.1019 -1.9593 -0.5667
   31MOL   H19111651   1.360   3.572   3.497 -1.7432  1.3468  1.3791
   31MOL   C19211652   1.050   3.439   3.867 -0.7596 -1.0197 -0.1254
   31MOL   C19311653   1.142   3.316   3.900 -0.2239  0.1726 -0.1982
   31MOL   O19411654   1.059   3.198   3.897 -0.2505 -0.1466  0.4342
   31MOL   C19511655   1.098   3.103   3.801 -0.6726 -0.3966  0.0622
   31MOL   C19611656   1.009   2.975   3.815 -0.3641 -0.1720 -0.4283
   31MOL   C19711657   0.869   3.002   3.766  1.3346  0.1684 -0.2529
   31MOL   C19811658   1.010   2.931   3.967 -0.5056 -0.5545  0.3154
   31MOL   H19911659   0.966   3.439   3.937  0.0003 -2.1506  0.8136
   31MOL   H20011660   1.101   3.534   3.884 -1.2110 -0.7093 -0.5127
   31MOL   H20111661   1.231   3.312   3.837  0.5899 -1.2039  1.0131
   31MOL   H20211662   1.206   3.084   3.804 -0.5366  0.5869  2.7733
   31MOL   H20311663   1.081   3.143   3.701 -2.9685 -0.4955  0.3801
   31MOL   H20411664   1.045   2.889   3.757  0.1319  0.0547 -0.4586
   31MOL   H20511665   0.824   3.064   3.843 -0.8945  2.3957 -3.2272
   31MOL   H20611666   0.871   3.054   3.670 -1.3938 -0.4558 -0.7058
   31MOL   H20711667   0.808   2.911   3.762  0.3613  0.8627 -1.4797
   31MOL   H20811668   1.112   2.924   4.005 -0.6900 -3.7608  0.3473
   31MOL   H20911669   0.964   3.002   4.035  2.1114  0.1863  1.3760
   31MOL   H21011670   0.965   2.832   3.972 -0.8274 -0.3951  0.5655
   31MOL   C21111671   1.194   3.310   4.048 -0.3269  0.4397 -0.5917
   31MOL   C21211672   1.325   3.381   4.063 -0.9400 -0.2945 -0.5823
   31MOL   O21311673   1.286   3.517   4.074  0.1273 -0.5321 -0.3139
   31MOL   C21411674   1.404   3.603   4.062  0.3136  0.1469 -0.1313
   31MOL   C21511675   1.374   3.749   4.079 -0.0745 -1.5094 -0.2619
   31MOL   C21611676   1.301   3.808   3.950  0.7594  0.1716 -0.5069
   31MOL   C21711677   1.302   3.775   4.218  0.0181 -0.5481  0.0757
   31MOL   H21811678   1.208   3.202   4.058 -1.5981  0.4028  0.9707
   31MOL   H21911679   1.122   3.346   4.122  0.0847  0.9710 -0.4470
   31MOL   H22011680   1.390   3.367   3.977  2.0328  1.1518  1.3261
   31MOL   H22111681   1.462   3.590   3.971  0.9635 -2.0552  0.5409
   31MOL   H22211682   1.475   3.584   4.143 -1.5245  0.6433  1.6271
   31MOL   H22311683   1.475   3.789   4.088 -0.0731 -1.5748  0.0504
   31MOL   H22411684   1.362   3.822   3.861  0.4798  0.9027 -0.5840
   31MOL   H22511685   1.216   3.741   3.939  0.8730  0.2582 -1.9499
   31MOL   H22611686   1.256   3.903   3.980  1.0022  0.4825 -1.1254
   31MOL   H22711687   1.207   3.724   4.205 -0.7061  1.1887 -1.7256
   31MOL   H22811688   1.271   3.877   4.241 -0.3758 -0.7035  0.2423
   31MOL   H22911689   1.365   3.730   4.294  1.9372  1.1475 -0.4689
   31MOL   C23011690   1.397   3.325   4.187  0.1427  0.1516 -0.6554
   31MOL   C23111691   1.468   3.192   4.162 -0.8461  0.2167 -0.2408
   31MOL   O23211692   1.574   3.209   4.075  0.1961 -0.1082 -0.1959
   31MOL   C23311693   1.580   3.136   3.947  0.2270 -0.3670 -0.3063
   31MOL   C23411694   1.697   3.188   3.858 -0.1015  0.6957  0.8095
   31MOL   C23511695   1.660   3.328   3.815 -0.0308  0.5506  0.4119
   31MOL   C23611696   1.840   3.172   3.914 -0.0225 -0.4061 -0.2776
   31MOL   H23711697   1.312   3.303   4.251  0.3238  2.9588  0.6464
   31MOL   H23811698   1.468   3.394   4.233 -2.4169  1.3877  1.6029
   31MOL   H23911699   1.398   3.124   4.114 -1.7138  0.6030  0.4726
   31MOL   H24011700   1.609   3.035   3.972  0.5811 -0.2748 -0.3465
   31MOL   H24111701   1.487   3.145   3.891 -0.0544 -0.7505  0.0988
   31MOL   H24211702   1.696   3.119   3.773  1.6656 -2.6228  3.3565
   31MOL   H24311703   1.554   3.347   3.800 -0.0400  1.1809  1.2134
   31MOL   H24411704   1.721   3.359   3.729 -3.0908  0.2667 -1.9597
   31MOL   H24511705   1.683   3.397   3.896 -0.5748  0.6433  0.4875
   31MOL   H24611706   1.852   3.251   3.988 -0.6594 -0.2232 -0.3699
   31MOL   H24711707   1.866   3.075   3.956  0.8926  0.6340  1.6116
   31MOL   H24811708   1.905   3.202   3.832  0.0415 -0.2369 -0.1664
   31MOL   C24911709   1.527   3.138   4.296  0.0000  0.6282  0.2064
   31MOL   C25011710   1.422   3.077   4.385 -0.3877 -0.2339  0.4869
   31MOL   O25111711   1.380   2.952   4.342 -0.2705  0.2384  0.0508
   31MOL   C25211712   1.243   2.925   4.338 -0.3563 -0.7025  0.3285
   31MOL   C25311713   1.219   2.776   4.326  0.4193  0.2863 -0.0679
   31MOL   C25411714   1.270   2.709   4.447  0.3304 -0.3803  0.7234
   31MOL   C25511715   1.288   2.716   4.202  0.3219 -0.4266  0.6545
   31MOL   H25611716   1.583   3.217   4.345 -3.0824  0.8200  3.6861
   31MOL   H25711717   1.587   3.055   4.258  0.8362  1.8881 -1.3096
   31MOL   H25811718   1.339   3.148   4.392 -0.1053  0.3012 -1.5259
   31MOL   H25911719   1.196   2.972   4.424 -1.0673  1.0011 -0.9621
   31MOL   H26011720   1.190   2.985   4.263  1.8109 -0.3187 -0.9466
   31MOL   H26111721   1.113   2.752   4.322  0.5875 -0.2849 -1.1532
   31MOL   H26211722   1.205   2.738   4.530  0.0309  0.0914  0.3288
   31MOL   H26311723   1.371   2.738   4.477  1.1546 -0.7842 -1.5915
   31MOL   H26411724   1.252   2.602   4.448 -0.5459 -0.2387  0.3140
   31MOL   H26511725   1.294   2.607   4.204  1.0206 -0.4326 -1.3010
   31MOL   H26611726   1.232   2.757   4.118  0.6753 -0.5454  0.3611
   31MOL   H26711727   1.382   2.771   4.191 -1.0413  1.5065 -1.7403
   31MOL   C26811728   1.489   3.074   4.523 -0.2509  0.2825 -1.6275
   31MOL   C26911729   1.395   3.031   4.643  0.2815  0.1639  0.7214
   31MOL   O27011730   1.283   3.119   4.623  0.1065 -0.2962 -0.5593
   31MOL   C27111731   1.162   3.107   4.705 -0.2773  0.4944 -0.3812
   31MOL   C27211732   1.070   3.223   4.672  0.2872 -0.1812  0.4886
   31MOL   C27311733   1.103   3.364   4.727 -0.1621  0.3545  0.3012
   31MOL   C27411734   1.035   3.228   4.522 -0.6289  0.6694 -0.2271
   31MOL   H27511735   1.526   3.174   4.547  1.0151 -1.0656  2.3362
   31MOL   H27611736   1.580   3.014   4.523 -1.9616 -2.3812 -1.3846
   31MOL   H27711737   1.356   2.933   4.615 -0.4515  0.3079  1.2355
   31MOL   H27811738   1.109   3.012   4.701 -1.6679  1.2895 -0.8530
   31MOL   H27911739   1.199   3.117   4.808  0.0187  0.9339 -0.5253
   31MOL   H28011740   0.973   3.192   4.711  0.8266  0.0864  2.0597
   31MOL   H28111741   1.196   3.386   4.675 -0.2216 -0.1441 -0.0227
   31MOL   H28211742   1.129   3.357   4.832  0.1564  0.1066  0.2054
   31MOL   H28311743   1.024   3.437   4.708 -0.8608 -0.8452 -1.6397
   31MOL   H28411744   1.127   3.226   4.464 -1.2639  2.2015 -1.3502
   31MOL   H28511745   0.996   3.324   4.489  1.3066  1.6731  0.3601
   31MOL   H28611746   0.966   3.146   4.499 -1.8062  1.3828  0.6529
   31MOL   C28711747   1.450   3.037   4.790 -0.3692 -0.0116  0.2410
   31MOL   C28811748   1.590   2.982   4.821 -0.2077  0.6970 -0.0554
   31MOL   O28911749   1.567   2.841   4.817 -0.0702 -0.2506 -0.0354
   31MOL   C29011750   1.656   2.761   4.739  0.0606  0.4713 -0.3212
   31MOL   C29111751   1.644   2.607   4.785 -0.5596 -0.4257  0.6587
   31MOL   C29211752   1.498   2.554   4.788  0.2178  0.0087 -0.5648
   31MOL   C29311753   1.706   2.595   4.924  0.1096  0.7520  0.3327
   31MOL   H29411754   1.377   3.005   4.864  1.5673 -2.7089  1.0690
   31MOL   H29511755   1.460   3.143   4.815 -0.7309  0.3405 -1.0360
   31MOL   H29611756   1.667   3.004   4.747 -0.5893 -1.2202 -1.0416
   31MOL   H29711757   1.647   2.781   4.632 -0.3641  2.6704  0.1026
   31MOL   H29811758   1.757   2.795   4.763 -0.6086  0.7580  2.1626
   31MOL   H29911759   1.699   2.544   4.715  0.4478  1.1332  0.0153
   31MOL   H30011760   1.491   2.447   4.810  6.0791 -0.6788 -1.3940
   31MOL   H30111761   1.444   2.550   4.693 -1.8301  0.8613  0.5282
   31MOL   H30211762   1.443   2.619   4.856  0.4097  0.4904 -0.8661
   31MOL   H30311763   1.700   2.490   4.951  1.6580  0.6917  0.4653
   31MOL   H30411764   1.812   2.620   4.920 -0.4615  3.0555 -2.2017
   31MOL   H30511765   1.667   2.660   5.003  0.9957 -0.2244  1.5810
   31MOL   C30611766   1.654   3.023   4.955  0.5390 -0.9275  0.0276
   31MOL   C30711767   1.719   3.166   4.960 -0.0703  0.9798  0.2159
   31MOL   O30811768   1.611   3.265   4.962  0.0498  0.1187  0.1134
   31MOL   C30911769   1.651   3.395   4.916  0.2988  0.3639  0.4731
   31MOL   C31011770   1.540   3.504   4.913 -0.2422 -0.1955  0.0765
   31MOL   C31111771   1.452   3.486   4.792  0.0557  0.2403  0.2140
   31MOL   C31211772   1.600   3.641   4.909 -0.6652  0.4283  0.2803
   31MOL   H31311773   1.726   2.946   4.982  0.2178 -1.2231  0.0545
   31MOL   H31411774   1.575   3.029   5.031  0.1252 -0.4345 -0.4395
   31MOL   H31511775   1.772   3.175   4.866 -3.4947  0.1013 -1.8790
   31MOL   H31611776   1.708   3.382   4.823 -1.6206  1.2383 -0.8624
   31MOL   H31711777   1.726   3.432   4.986  0.3129  4.1777 -1.4206
   31MOL   H31811778   1.476   3.497   5.002  1.0120  2.1178  1.1972
   31MOL   H31911779   1.497   3.502   4.694 -1.0820  0.3807 -0.3029
   31MOL   H32011780   1.368   3.555   4.794  0.4999  0.8940 -1.9615
   31MOL   H32111781   1.414   3.383   4.798  2.2696 -0.5742  0.6240
   31MOL   H32211782   1.517   3.709   4.891 -2.3830 -1.7391 -0.2222
   31MOL   H32311783   1.668   3.669   4.828 -2.2140 -0.5091 -1.3771
   31MOL   H32411784   1.641   3.672   5.005 -0.1089 -1.0918  0.5516
   31MOL   C32511785   1.815   3.183   5.076 -0.2374  0.2096 -0.9690
   31MOL   C32611786   1.952   3.103   5.059  0.5384 -0.2186 -0.4326
   31MOL   O32711787   2.009   3.157   4.938  0.3010  0.1076  0.4316
   31MOL   C32811788   2.038   3.055   4.848  0.3356 -0.4383 -0.3831
   31MOL   C32911789   2.093   3.113   4.716  0.1608  0.1709  0.1809
   31MOL   C33011790   1.984   3.192   4.629  0.3685  0.0685 -0.4146
   31MOL   C33111791   2.223   3.199   4.737 -0.3710 -0.1316 -0.3409
   31MOL   H33211792   1.768   3.164   5.173  1.1046  2.3274  0.1347
   31MOL   H33311793   1.851   3.285   5.091  1.6410 -0.6162  0.1680
   31MOL   H33411794   1.939   2.995   5.060  2.3387 -0.4604  0.5381
   31MOL   H33511795   2.122   3.000   4.890 -1.1115 -1.1435  1.6905
   31MOL   H33611796   1.948   2.995   4.832  0.5698 -1.3660  1.6169
   31MOL   H33711797   2.134   3.024   4.669  1.1895 -0.5616  2.4185
   31MOL   H33811798   1.917   3.134   4.567 -0.9786 -0.1749  1.2510
   31MOL   H33911799   1.914   3.256   4.684 -1.4691 -1.3730 -1.0442
   31MOL   H34011800   2.033   3.275   4.577  0.6551  1.0206  1.3248
   31MOL   H34111801   2.297   3.155   4.804 -0.7909 -0.4769 -0.0964
   31MOL   H34211802   2.268   3.231   4.643 -1.1613  1.2304 -0.2613
   31MOL   H34311803   2.194   3.291   4.787  2.4889  1.2840 -1.2080
   31MOL   C34411804   2.037   3.144   5.184 -0.4893  0.3470 -0.4256
   31MOL   C34511805   2.172   3.075   5.202  1.0645  0.2145  0.1057
   31MOL   O34611806   2.250   3.128   5.311 -0.2683 -0.2296 -0.0371
   31MOL   C34711807   2.356   3.214   5.273  0.5012  0.0027 -0.6195
   31MOL   C34811808   2.418   3.260   5.399 -0.5546  0.0848  0.1117
   31MOL   C34911809   2.447   3.145   5.496  0.0646  0.4851  0.2478
   31MOL   C35011810   2.342   3.389   5.460 -0.2005  0.4114 -0.2766
   31MOL   H35111811   1.977   3.129   5.273 -0.5739  0.6997 -0.4240
   31MOL   H35211812   2.048   3.253   5.188  1.6814  0.1187  0.7406
   31MOL   H35311813   2.223   3.098   5.109 -2.6705 -1.7268 -2.5358
   31MOL   H35411814   2.330   3.303   5.216 -2.8492 -0.0101  0.7824
   31MOL   H35511815   2.430   3.159   5.214 -0.2179  0.0597 -1.5900
   31MOL   H35611816   2.513   3.303   5.367 -1.6769  1.6495 -1.2265
   31MOL   H35711817   2.518   3.078   5.446  0.7568  1.6674 -0.3901
   31MOL   H35811818   2.351   3.096   5.514 -1.0879  2.5583 -0.1416
   31MOL   H35911819   2.489   3.182   5.589  2.1322  1.6134 -1.0718
   31MOL   H36011820   2.344   3.474   5.391  1.8662 -1.2005 -2.2948
   31MOL   H36111821   2.238   3.364   5.481  0.3907 -1.4880  0.4984
   31MOL   H36211822   2.388   3.422   5.553  0.1560 -0.9148  0.0398
   31MOL   C36311823   2.162   2.921   5.211  0.4071 -0.4720  0.1227
   31MOL   C36411824   2.295   2.860   5.244 -0.1780  0.2495  0.5591
   31MOL   O36511825   2.260   2.723   5.235  0.4210  0.1998  0.6792
   31MOL   C36611826   2.221   2.673   5.363  0.4637 -0.4437  0.2334
   31MOL   C36711827   2.185   2.524   5.351  0.0318  0.4801 -0.0206
   31MOL   C36811828   2.306   2.419   5.336  0.0211  0.0118  0.0078
   31MOL   C36911829   2.059   2.498   5.255  0.3661  0.0912 -0.1043
   31MOL   H37011830   2.091   2.899   5.290 -0.8767  0.2261 -0.8122
   31MOL   H37111831   2.109   2.884   5.123  0.5489  2.4148 -1.2755
   31MOL   H37211832   2.327   2.892   5.344  0.2917 -1.2737  0.9124
   31MOL   H37311833   2.296   2.699   5.438 -0.0766  1.7406  0.0525
   31MOL   H37411834   2.129   2.727   5.386  1.9147  3.0651 -1.6522
   31MOL   H37511835   2.147   2.500   5.450 -2.5598  0.8200 -0.8967
   31MOL   H37611836   2.364   2.443   5.247 -3.9465  3.8609 -1.6923
   31MOL   H37711837   2.280   2.313   5.328  1.7356 -0.5364  1.3938
   31MOL   H37811838   2.377   2.420   5.419  0.3176 -1.9710 -0.1869
   31MOL   H37911839   1.973   2.558   5.286  1.8602  3.2654 -1.8561
   31MOL   H38011840   2.027   2.394   5.262 -0.7971  0.4102 -0.4695
   31MOL   H38111841   2.084   2.520   5.152 -2.0254  1.7424 -0.3595
   31MOL   H38211842   2.377   2.879   5.175 -0.7120 -1.0666 -0.4653
   32MOL     C111843   2.784   5.618   4.888  0.3375  0.4036  0.1000
   32MOL     C211844   2.830   5.470   4.855  0.2541 -0.7047  0.1549
   32MOL     O311845   2.949   5.454   4.933 -0.2734 -0.1949  0.2058
   32MOL     C411846   3.047   5.373   4.876 -0.7878 -0.7351 -0.8056
   32MOL     C511847   3.135   5.461   4.783 -0.2782 -0.6977 -0.6454
   32MOL     C611848   3.209   5.387   4.666  0.0903  0.8048 -0.1400
   32MOL     C711849   3.229   5.542   4.876 -1.2198 -0.4570 -0.4529
   32MOL     H811850   2.765   5.627   4.995 -0.6221  0.7637 -0.0930
   32MOL     H911851   2.865   5.689   4.873  2.4014 -1.6207  1.3719
   32MOL    H1011852   2.862   5.479   4.751  1.8401  0.0580  0.7024
   32MOL    H1111853   3.016   5.285   4.820 -1.7351 -2.0089  1.6575
   32MOL    H1211854   3.114   5.345   4.957 -0.9220 -0.7466 -0.6975
   32MOL    H1311855   3.074   5.538   4.736 -0.5134 -1.0180 -0.8595
   32MOL    H1411856   3.264   5.300   4.700  0.1343  1.1771  0.7593
   32MOL    H1511857   3.135   5.346   4.597 -0.4920 -0.0416  0.9785
   32MOL    H1611858   3.271   5.459   4.613  0.1712  0.0937 -1.0185
   32MOL    H1711859   3.177   5.596   4.956  0.3433 -1.2952  1.1601
   32MOL    H1811860   3.296   5.476   4.931 -0.7170  0.4272 -0.0020
   32MOL    H1911861   3.297   5.610   4.826 -0.0574 -1.2776 -0.0101
   32MOL    H2011862   2.702   5.652   4.825 -0.0323 -0.5611  0.0554
   32MOL    C2111863   2.714   5.376   4.877 -0.5416 -0.2672  0.0522
   32MOL    C2211864   2.733   5.240   4.799 -0.3651  0.3554 -0.7799
   32MOL    O2311865   2.608   5.172   4.822  0.1059 -0.8907  0.1252
   32MOL    C2411866   2.609   5.075   4.926 -0.4483 -0.0790  0.1910
   32MOL    C2511867   2.462   5.056   4.954  1.0196 -0.0256 -0.0814
   32MOL    C2611868   2.390   5.183   4.998 -0.5708 -0.1280  0.1329
   32MOL    C2711869   2.397   4.989   4.836 -0.1711  0.6989  0.8222
   32MOL    H2811870   2.694   5.356   4.982  3.3623 -2.1243  0.5502
   32MOL    H2911871   2.624   5.422   4.838  2.5772  1.8837 -5.1207
   32MOL    H3011872   2.815   5.189   4.848  0.5147  0.5417 -2.0468
   32MOL    H3111873   2.655   5.118   5.015 -0.1383  0.3849 -0.1965
   32MOL    H3211874   2.662   4.983   4.899 -0.3503  0.0449 -0.0353
   32MOL    H3311875   2.449   4.987   5.038 -1.0239  1.2338  0.6731
   32MOL    H3411876   2.283   5.182   4.979 -0.2708 -0.7891 -1.5652
   32MOL    H3511877   2.427   5.277   4.958  0.8415 -0.3617  0.8627
   32MOL    H3611878   2.405   5.195   5.106 -1.6602  0.8435  0.1810
   32MOL    H3711879   2.288   4.984   4.832 -0.1568 -0.3389  1.3969
   32MOL    H3811880   2.427   5.024   4.738  0.2684  1.6276  1.2853
   32MOL    H3911881   2.420   4.882   4.842 -0.0486  0.6385 -0.6772
   32MOL    C4011882   2.751   5.238   4.648  0.1719 -0.8466 -0.3608
   32MOL    C4111883   2.755   5.106   4.570 -0.2372 -0.0967  0.8575
   32MOL    O4211884   2.882   5.044   4.598 -0.2000 -0.2900 -0.1031
   32MOL    C4311885   2.900   4.945   4.704  0.2518 -0.4831 -0.1381
   32MOL    C4411886   3.039   4.890   4.687 -0.0834  0.7433  0.0125
   32MOL    C4511887   3.061   4.828   4.549  0.4835  0.3528  0.2090
   32MOL    C4611888   3.151   4.973   4.741  0.3299  0.0517  0.2813
   32MOL    H4711889   2.833   5.300   4.611  0.9948 -0.7986  1.4693
   32MOL    H4811890   2.666   5.291   4.606  0.1711 -1.2747 -0.9088
   32MOL    H4911891   2.679   5.039   4.612  0.2322 -2.0119 -1.2832
   32MOL    H5011892   2.842   4.855   4.682  1.5036 -1.0050 -1.4098
   32MOL    H5111893   2.890   4.978   4.807  1.9217  0.5397 -0.2877
   32MOL    H5211894   3.039   4.802   4.751 -0.2729  1.0587  0.4550
   32MOL    H5311895   2.968   4.800   4.500  0.0800  0.1342  1.1010
   32MOL    H5411896   3.103   4.893   4.472  1.5659 -0.1973  0.3263
   32MOL    H5511897   3.131   4.746   4.561  0.5393 -0.0648 -2.5790
   32MOL    H5611898   3.172   5.073   4.702  1.5876 -0.0734  0.6229
   32MOL    H5711899   3.252   4.935   4.755  0.9043  0.8174 -1.5859
   32MOL    H5811900   3.125   5.002   4.843 -0.1101  1.6881 -0.2678
   32MOL    C5911901   2.743   5.112   4.417 -0.8703  0.5383 -0.3022
   32MOL    C6011902   2.697   4.985   4.356 -0.0310  0.4384  0.3715
   32MOL    O6111903   2.737   4.994   4.224 -0.6060 -0.2911 -0.1638
   32MOL    C6211904   2.875   4.973   4.191  0.3047  0.4755  0.3895
   32MOL    C6311905   2.910   5.029   4.049  0.4213 -0.5186 -0.1660
   32MOL    C6411906   3.061   5.039   4.025 -0.2898  0.2421  0.1340
   32MOL    C6511907   2.842   4.941   3.940  0.4832 -1.0930 -0.5112
   32MOL    H6611908   2.839   5.143   4.377  0.7407 -3.3279  0.3273
   32MOL    H6711909   2.677   5.195   4.392 -0.3913  0.6595 -1.1879
   32MOL    H6811910   2.748   4.903   4.405 -0.0266  2.2903  3.6263
   32MOL    H6911911   2.937   5.014   4.270  0.4681  2.1297 -0.5685
   32MOL    H7011912   2.886   4.864   4.193 -2.2494  0.2063  4.4056
   32MOL    H7111913   2.874   5.132   4.055  1.0978 -0.4207  2.8259
   32MOL    H7211914   3.103   4.940   4.007 -1.8323 -0.1793 -1.2270
   32MOL    H7311915   3.114   5.088   4.106 -0.7834 -1.4388  1.5066
   32MOL    H7411916   3.073   5.084   3.927  0.1283  1.2350  0.6293
   32MOL    H7511917   2.864   4.986   3.843  0.3575  1.0989  0.4673
   32MOL    H7611918   2.880   4.839   3.952  3.4698  0.0185 -0.1494
   32MOL    H7711919   2.735   4.944   3.961  0.2659 -0.1993 -1.6642
   32MOL    C7811920   2.542   4.966   4.352 -0.3973 -0.1321 -0.3879
   32MOL    C7911921   2.492   4.829   4.327  0.7299 -0.3693  0.7654
   32MOL    O8011922   2.352   4.832   4.360  0.1884 -0.5004  0.3696
   32MOL    C8111923   2.317   4.784   4.478 -0.5704  0.4340  0.0270
   32MOL    C8211924   2.164   4.797   4.491  0.5019 -0.1446  1.1257
   32MOL    C8311925   2.110   4.819   4.632 -0.1138 -0.2910 -0.1162
   32MOL    C8411926   2.091   4.686   4.413 -0.8565  0.5911 -0.2698
   32MOL    H8511927   2.498   5.039   4.283  0.3951  1.2856  0.6004
   32MOL    H8611928   2.502   4.997   4.448  1.7026 -1.8411  1.0669
   32MOL    H8711929   2.542   4.758   4.393  1.7437 -1.3469 -0.9979
   32MOL    H8811930   2.344   4.680   4.494 -0.3573 -0.1881 -3.8920
   32MOL    H8911931   2.381   4.827   4.555 -1.0796  0.6477  0.3357
   32MOL    H9011932   2.140   4.886   4.432 -2.6260 -0.3464  2.0131
   32MOL    H9111933   2.151   4.741   4.695 -0.1560 -0.8380 -0.7629
   32MOL    H9211934   2.002   4.835   4.627 -0.3104 -0.9951  1.4929
   32MOL    H9311935   2.150   4.913   4.671  1.4478 -0.7841 -0.5289
   32MOL    H9411936   2.129   4.593   4.455  0.8444  1.4009  0.0283
   32MOL    H9511937   2.115   4.683   4.306 -1.2625 -0.7638 -0.3304
   32MOL    H9611938   1.983   4.681   4.424 -0.7411  0.6183  0.9349
   32MOL    C9711939   2.511   4.773   4.188 -0.3010 -0.5442  0.1824
   32MOL    C9811940   2.426   4.637   4.172  0.3766  0.7242  0.2745
   32MOL    O9911941   2.486   4.549   4.264  0.0999  0.4088  0.0396
   32MOL   C10011942   2.410   4.442   4.321 -0.1163 -0.3874  0.1313
   32MOL   C10111943   2.476   4.364   4.434  0.0936 -0.6993 -0.1854
   32MOL   C10211944   2.506   4.465   4.551  0.3337 -0.2006  0.7039
   32MOL   C10311945   2.383   4.246   4.481 -0.3953 -0.1687 -0.1177
   32MOL   H10411946   2.618   4.754   4.178 -0.4301 -0.8329 -0.7109
   32MOL   H10511947   2.493   4.845   4.108 -0.1321 -0.4380  0.2400
   32MOL   H10611948   2.318   4.655   4.178  0.1981 -0.5579  1.1812
   32MOL   H10711949   2.391   4.385   4.230  1.4459 -1.5338  0.5241
   32MOL   H10811950   2.309   4.466   4.356  1.0689  2.0135  2.0896
   32MOL   H10911951   2.566   4.311   4.404  0.8587 -0.1301  1.0611
   32MOL   H11011952   2.558   4.413   4.632 -1.4840 -0.7627  1.5379
   32MOL   H11111953   2.566   4.548   4.514 -1.0706  0.4668 -0.1055
   32MOL   H11211954   2.416   4.509   4.594  0.8244  0.4505  1.0620
   32MOL   H11311955   2.284   4.269   4.520  0.4170 -0.0251  1.9430
   32MOL   H11411956   2.374   4.172   4.402  4.0239  0.6324 -1.5296
   32MOL   H11511957   2.438   4.192   4.558 -0.7577 -0.7382 -0.2551
   32MOL   C11611958   2.448   4.577   4.027 -0.4564 -0.1825  0.0557
   32MOL   C11711959   2.397   4.654   3.901  0.7149 -0.6145  0.8283
   32MOL   O11811960   2.483   4.618   3.795  0.2316  0.4406  0.3437
   32MOL   C11911961   2.599   4.699   3.779  0.2541  0.1658  0.8786
   32MOL   C12011962   2.682   4.639   3.671 -0.4477 -0.4456 -0.0082
   32MOL   C12111963   2.620   4.626   3.532  0.3650  0.0290 -0.4947
   32MOL   C12211964   2.820   4.708   3.671 -0.6903  0.4603 -0.2470
   32MOL   H12311965   2.555   4.555   4.024 -0.2132  1.1187 -2.4462
   32MOL   H12411966   2.391   4.484   4.033 -0.8765  0.1615  1.8093
   32MOL   H12511967   2.385   4.761   3.918  3.9230  0.1651 -1.4450
   32MOL   H12611968   2.660   4.689   3.870  1.8080 -1.3895 -0.2898
   32MOL   H12711969   2.575   4.804   3.768  0.8106  0.2804  0.7570
   32MOL   H12811970   2.710   4.543   3.713 -0.0997 -0.3462 -0.0132
   32MOL   H12911971   2.568   4.719   3.505 -0.9778 -0.1070  1.4708
   32MOL   H13011972   2.545   4.548   3.520 -0.7986  1.0555 -0.0425
   32MOL   H13111973   2.698   4.616   3.458 -0.7322 -2.1927 -1.4057
   32MOL   H13211974   2.798   4.813   3.688 -0.7328  0.3588  0.3235
   32MOL   H13311975   2.865   4.669   3.763 -2.1894 -2.2293 -0.5956
   32MOL   H13411976   2.872   4.696   3.575 -0.5524  0.8038 -0.2161
   32MOL   C13511977   2.257   4.607   3.849  0.3640  0.1373  0.0812
   32MOL   C13611978   2.134   4.657   3.935 -0.2554  0.2205 -0.4085
   32MOL   O13711979   2.109   4.796   3.918 -0.3951 -0.0161 -0.0027
   32MOL   C13811980   2.128   4.870   4.030 -0.2307  0.0319  0.2416
   32MOL   C13911981   2.080   5.012   3.998 -0.2142 -0.1749 -0.7256
   32MOL   C14011982   1.938   5.011   3.941  0.2077  0.4293  0.1384
   32MOL   C14111983   2.096   5.098   4.121  0.1989 -0.2106  0.3927
   32MOL   H14211984   2.240   4.638   3.746  1.4463 -1.4897 -0.6144
   32MOL   H14311985   2.255   4.498   3.840  0.7802  0.1739 -0.5396
   32MOL   H14411986   2.135   4.620   4.038 -0.8099 -2.7252 -1.4058
   32MOL   H14511987   2.237   4.875   4.037 -0.2873  0.9650  0.4806
   32MOL   H14611988   2.062   4.832   4.108  0.1439 -3.2707 -0.9371
   32MOL   H14711989   2.136   5.057   3.916 -0.1304 -0.3949 -0.7892
   32MOL   H14811990   1.920   4.933   3.868 -1.8862 -0.0083  1.0909
   32MOL   H14911991   1.912   5.093   3.874 -1.6958 -0.0349  0.2844
   32MOL   H15011992   1.854   5.005   4.011 -0.0647 -1.3146 -0.3308
   32MOL   H15111993   2.063   5.198   4.094  2.3178  0.9588  1.9853
   32MOL   H15211994   2.040   5.062   4.207 -0.3314  0.8429  0.5027
   32MOL   H15311995   2.201   5.106   4.147  0.7347 -1.0504 -1.4675
   32MOL   C15411996   1.997   4.598   3.890  0.2494 -0.1264 -0.9566
   32MOL   C15511997   1.981   4.440   3.883 -0.1995 -0.1369  0.1984
   32MOL   O15611998   1.988   4.388   4.011  0.1631  0.4427  0.0265
   32MOL   C15711999   2.031   4.253   4.022  0.4669  0.2575  0.5120
   32MOL   C15812000   1.988   4.189   4.152  0.1741  0.8555 -1.0811
   32MOL   C15912001   2.026   4.046   4.151 -0.7047  0.1008 -0.1820
   32MOL   C16012002   2.049   4.261   4.273  0.1324 -0.1614 -0.2555
   32MOL   H16112003   1.961   4.647   3.799 -2.7109  0.4288  0.4703
   32MOL   H16212004   1.935   4.642   3.968 -0.2777 -3.8228  0.8084
   32MOL   H16312005   2.061   4.392   3.827  0.7322  1.2731  0.3014
   32MOL   H16412006   2.139   4.251   4.012  0.6575  0.0170  2.3760
   32MOL   H16512007   2.012   4.192   3.933  1.5334 -0.1648  0.5622
   32MOL   H16612008   1.881   4.212   4.152 -0.2637 -0.9842  0.9854
   32MOL   H16712009   2.135   4.046   4.156 -0.7352  0.3242  0.5972
   32MOL   H16812010   2.003   4.002   4.054 -1.3844  0.3363 -0.1316
   32MOL   H16912011   1.985   3.997   4.239 -1.0506  3.3455  1.5458
   32MOL   H17012012   2.029   4.367   4.261 -1.9007 -0.3232  1.4710
   32MOL   H17112013   2.012   4.232   4.371  0.9191  2.1200  0.7484
   32MOL   H17212014   2.157   4.255   4.291  0.2933  0.4742 -1.0240
   32MOL   C17312015   1.842   4.396   3.836  0.1129 -0.0716  0.6565
   32MOL   C17412016   1.820   4.434   3.689  0.5652  0.0982 -0.5006
   32MOL   O17512017   1.826   4.315   3.611 -0.1864 -0.0671  0.1967
   32MOL   C17612018   1.951   4.252   3.580 -0.2944 -0.3815  0.3735
   32MOL   C17712019   1.947   4.158   3.461  0.0524  0.0290 -0.5518
   32MOL   C17812020   1.875   4.026   3.495  0.3388 -0.3150 -0.2784
   32MOL   C17912021   1.888   4.220   3.333 -0.3887  0.1788 -0.4834
   32MOL   H18012022   1.839   4.288   3.848  2.3292 -0.4436 -1.6011
   32MOL   H18112023   1.768   4.448   3.896  0.6739  0.3813  0.9534
   32MOL   H18212024   1.899   4.506   3.666  1.2334 -0.5305 -0.1949
   32MOL   H18312025   1.995   4.210   3.670  0.4212  1.6320  0.9989
   32MOL   H18412026   2.027   4.326   3.554  2.0179 -2.4031  1.2104
   32MOL   H18512027   2.052   4.135   3.444 -0.0639 -0.7613 -0.2392
   32MOL   H18612028   1.856   3.951   3.418 -1.1805  1.0574 -1.2745
   32MOL   H18712029   1.920   3.976   3.581  0.2539 -1.0892 -0.6764
   32MOL   H18812030   1.775   4.056   3.528  1.0552  1.8007  0.0178
   32MOL   H18912031   1.790   4.264   3.351 -1.8738 -3.7991  1.8027
   32MOL   H19012032   1.872   4.140   3.260 -1.7451 -0.7320  0.7681
   32MOL   H19112033   1.955   4.287   3.279 -0.5602  0.3527 -0.4822
   32MOL   C19212034   1.678   4.494   3.656 -0.8001  0.3620 -0.3559
   32MOL   C19312035   1.643   4.524   3.508 -0.1624 -0.1843 -0.2399
   32MOL   O19412036   1.729   4.629   3.460 -0.0999 -0.5105 -0.7190
   32MOL   C19512037   1.842   4.589   3.386  0.4237  0.2284 -0.1060
   32MOL   C19612038   1.953   4.694   3.427  0.3734 -0.1717  0.3473
   32MOL   C19712039   1.963   4.832   3.353  0.3909 -0.7483  0.0866
   32MOL   C19812040   2.093   4.615   3.444  0.1196 -0.5127 -0.5888
   32MOL   H19912041   1.673   4.585   3.715  0.8830  1.0688 -1.2768
   32MOL   H20012042   1.608   4.424   3.703 -0.0896  0.4599  0.8796
   32MOL   H20112043   1.671   4.435   3.451  1.7006 -0.0694  0.4640
   32MOL   H20212044   1.831   4.564   3.281 -1.5319 -0.2673  0.1925
   32MOL   H20312045   1.867   4.491   3.425  0.6356  0.6177  0.7583
   32MOL   H20412046   1.933   4.716   3.532 -2.4037  0.4827 -0.2727
   32MOL   H20512047   2.030   4.909   3.392 -0.3138 -0.8596  1.5689
   32MOL   H20612048   1.981   4.825   3.246  0.7864  2.6956 -0.1067
   32MOL   H20712049   1.873   4.892   3.367  0.6656 -0.4900  0.7343
   32MOL   H20812050   2.094   4.506   3.441 -0.2111 -0.5918  1.2057
   32MOL   H20912051   2.153   4.638   3.356  4.7321 -1.6349  2.0820
   32MOL   H21012052   2.140   4.648   3.537 -0.6114  0.7238 -0.6449
   32MOL   C21112053   1.497   4.571   3.491  0.0184 -0.0479  0.3565
   32MOL   C21212054   1.461   4.565   3.342  0.7765  0.0375  0.6493
   32MOL   O21312055   1.423   4.430   3.318  0.0817  0.2164  0.1431
   32MOL   C21412056   1.444   4.383   3.193 -0.1543  1.2726 -0.4079
   32MOL   C21512057   1.398   4.232   3.201  0.3817 -0.2876 -0.2732
   32MOL   C21612058   1.483   4.164   3.296  0.2763 -0.6248 -0.1116
   32MOL   C21712059   1.251   4.214   3.247 -0.0759 -0.3483 -0.3148
   32MOL   H21812060   1.477   4.673   3.523 -1.2754 -0.8280  2.1664
   32MOL   H21912061   1.434   4.507   3.553  0.1965 -0.1967  0.3825
   32MOL   H22012062   1.545   4.610   3.290 -1.0095  1.1123 -1.3907
   32MOL   H22112063   1.549   4.392   3.166  0.1114  0.9594  0.5266
   32MOL   H22212064   1.383   4.436   3.119 -0.7136 -1.7124 -2.1634
   32MOL   H22312065   1.412   4.171   3.112 -1.6555 -1.1837  0.0039
   32MOL   H22412066   1.584   4.144   3.261 -0.0920 -5.7397  1.2729
   32MOL   H22512067   1.492   4.230   3.382 -1.3031  1.4537 -1.4878
   32MOL   H22612068   1.444   4.067   3.327  0.1446 -0.7408 -0.6372
   32MOL   H22712069   1.236   4.266   3.342  2.8341  0.3117 -0.1630
   32MOL   H22812070   1.212   4.114   3.267 -0.8573 -0.1906 -1.0262
   32MOL   H22912071   1.178   4.265   3.184  0.9299 -0.3861 -1.5397
   32MOL   C23012072   1.336   4.647   3.307 -0.4705 -0.0718  0.3504
   32MOL   C23112073   1.358   4.802   3.289  0.4945  0.3871 -0.0459
   32MOL   O23212074   1.422   4.804   3.159 -0.0315 -0.1167 -0.2255
   32MOL   C23312075   1.550   4.876   3.151 -0.2198 -0.8289  0.3800
   32MOL   C23412076   1.582   4.867   3.001  0.5218 -0.6200 -0.2268
   32MOL   C23512077   1.616   4.716   2.959 -0.0558 -0.7598 -0.5339
   32MOL   C23612078   1.458   4.932   2.924  0.0260 -0.4533 -0.3004
   32MOL   H23712079   1.278   4.633   3.398  0.2681  2.0875  1.1776
   32MOL   H23812080   1.279   4.599   3.228 -0.5979 -1.0630  1.0236
   32MOL   H23912081   1.407   4.843   3.377 -0.0313 -0.9770  0.8920
   32MOL   H24012082   1.539   4.979   3.185 -1.1797 -0.6686 -0.3810
   32MOL   H24112083   1.632   4.834   3.208  2.6657  2.3698 -1.2573
   32MOL   H24212084   1.677   4.916   2.980 -0.2669  0.4710 -1.2991
   32MOL   H24312085   1.525   4.656   2.969 -0.3066 -0.4505 -0.9406
   32MOL   H24412086   1.694   4.677   3.024 -1.7925  0.2988  2.3282
   32MOL   H24512087   1.645   4.711   2.854  1.9175 -0.0614 -0.0495
   32MOL   H24612088   1.405   5.020   2.960  0.7063  0.9963 -2.7029
   32MOL   H24712089   1.490   4.962   2.824 -1.2965 -1.0305 -0.9121
   32MOL   H24812090   1.386   4.850   2.919 -1.7880  1.1231 -0.4081
   32MOL   C24912091   1.222   4.879   3.270 -0.5831 -0.1840  0.3651
   32MOL   C25012092   1.231   5.026   3.253  0.0056 -0.1454  0.1523
   32MOL   O25112093   1.098   5.065   3.200 -0.0963 -0.9435  0.5027
   32MOL   C25212094   1.099   5.094   3.058 -0.6931 -0.3874 -0.4932
   32MOL   C25312095   0.964   5.151   3.015 -0.2339  0.4943  0.6487
   32MOL   C25412096   0.843   5.081   3.062 -0.1284  0.3553  0.1667
   32MOL   C25512097   0.967   5.173   2.864 -0.1447 -0.2490  0.2692
   32MOL   H25612098   1.164   4.856   3.360  1.4272  1.5330  2.1471
   32MOL   H25712099   1.175   4.845   3.177 -1.2895  0.1187  0.6101
   32MOL   H25812100   1.306   5.047   3.176  0.7832 -0.5484  0.7834
   32MOL   H25912101   1.176   5.169   3.038 -0.9005  0.1856  0.8118
   32MOL   H26012102   1.132   5.011   2.995  0.0755  0.0799 -0.7153
   32MOL   H26112103   0.958   5.252   3.057  1.5723  1.0836 -0.4092
   32MOL   H26212104   0.856   5.032   3.158  0.1631  0.3974  0.1495
   32MOL   H26312105   0.813   5.003   2.992  0.6707  0.1407  0.0585
   32MOL   H26412106   0.763   5.154   3.061  1.3557  2.0474 -1.7991
   32MOL   H26512107   1.062   5.203   2.821  0.3710 -0.1294  1.4753
   32MOL   H26612108   0.941   5.084   2.806 -1.2913  1.0106 -1.1921
   32MOL   H26712109   0.893   5.250   2.840  2.4151  1.9556 -0.7649
   32MOL   C26812110   1.274   5.097   3.377 -0.3040  0.4423 -0.3553
   32MOL   C26912111   1.258   5.245   3.361 -0.2266 -0.9695  0.5656
   32MOL   O27012112   1.360   5.293   3.277 -0.2049  0.3859 -0.2722
   32MOL   C27112113   1.317   5.404   3.200  0.0231  0.1306 -0.3496
   32MOL   C27212114   1.428   5.472   3.112 -0.8398 -0.0283 -0.5084
   32MOL   C27312115   1.485   5.371   3.010  0.2987  0.9587 -0.1809
   32MOL   C27412116   1.356   5.588   3.045  0.4887  0.1904 -0.0598
   32MOL   H27512117   1.377   5.088   3.411 -0.4273 -0.2457 -0.1577
   32MOL   H27612118   1.207   5.060   3.455 -0.0125 -1.5427 -1.0292
   32MOL   H27712119   1.159   5.272   3.323  0.6691 -0.1532 -1.1885
   32MOL   H27812120   1.230   5.380   3.140 -1.0440  0.6854  0.9436
   32MOL   H27912121   1.282   5.480   3.270 -1.3904 -0.7868 -0.0284
   32MOL   H28012122   1.508   5.508   3.175 -1.1015 -3.3988  1.8643
   32MOL   H28112123   1.520   5.281   3.061 -0.7642  1.7940  2.1148
   32MOL   H28212124   1.569   5.413   2.954 -0.7098  0.1543 -2.3515
   32MOL   H28312125   1.408   5.338   2.940  1.3019 -0.6072 -0.5809
   32MOL   H28412126   1.422   5.626   2.968  0.8446 -0.8016 -0.2564
   32MOL   H28512127   1.317   5.665   3.111 -0.5348  0.5559 -1.0683
   32MOL   H28612128   1.266   5.552   2.993  0.6218  1.9190 -1.5099
   32MOL   C28712129   1.279   5.319   3.491 -0.0619  0.3027  0.0911
   32MOL   C28812130   1.176   5.288   3.601 -0.1457  0.2854 -0.3312
   32MOL   O28912131   1.060   5.359   3.559 -0.0673 -0.9021  0.1944
   32MOL   C29012132   0.935   5.333   3.624 -0.0670 -0.3340 -0.5748
   32MOL   C29112133   0.823   5.292   3.529  0.1260  0.1568 -1.0318
   32MOL   C29212134   0.849   5.154   3.469 -0.7276  0.2609  0.5699
   32MOL   C29312135   0.807   5.407   3.422  0.1445  0.0379 -0.2237
   32MOL   H29412136   1.278   5.428   3.487  0.8552  0.3083 -0.1142
   32MOL   H29512137   1.381   5.302   3.526  0.0375  2.1828  0.7447
   32MOL   H29612138   1.147   5.183   3.605  1.4680 -0.1194  4.1906
   32MOL   H29712139   0.953   5.268   3.709  0.9810 -0.1848 -0.6781
   32MOL   H29812140   0.903   5.426   3.673 -1.9240 -1.9495  1.3869
   32MOL   H29912141   0.729   5.288   3.584 -0.3571 -1.8188 -1.9586
   32MOL   H30012142   0.947   5.157   3.422 -0.0985  2.2389  1.9599
   32MOL   H30112143   0.781   5.135   3.386  2.0866 -0.3422 -1.6690
   32MOL   H30212144   0.843   5.076   3.544 -0.0461 -0.9302 -0.5893
   32MOL   H30312145   0.781   5.506   3.458 -0.9025  0.4132 -1.9444
   32MOL   H30412146   0.889   5.420   3.351  1.7653  0.2979  1.6567
   32MOL   H30512147   0.727   5.374   3.355  0.0599  0.2001 -0.2013
   32MOL   C30612148   1.211   5.344   3.741 -0.5499  0.0711  0.2677
   32MOL   C30712149   1.286   5.239   3.819  0.2028  0.1738 -0.6065
   32MOL   O30812150   1.372   5.313   3.910 -0.0430  0.3974 -0.0790
   32MOL   C30912151   1.510   5.341   3.860  0.7246  0.7646 -0.2215
   32MOL   C31012152   1.583   5.392   3.980 -0.3320  1.0081  0.9055
   32MOL   C31112153   1.717   5.456   3.935  0.1224  0.3216 -0.2529
   32MOL   C31212154   1.619   5.276   4.081 -0.4485  0.0717 -0.9293
   32MOL   H31312155   1.125   5.393   3.787 -0.6828 -0.5314  0.6560
   32MOL   H31412156   1.287   5.418   3.716  0.8487 -1.9316 -1.5870
   32MOL   H31512157   1.346   5.178   3.751  0.7066  2.9023 -2.6877
   32MOL   H31612158   1.503   5.416   3.781 -2.1941  0.3907 -0.3633
   32MOL   H31712159   1.563   5.255   3.818  1.1606  1.3971 -0.9976
   32MOL   H31812160   1.531   5.468   4.038 -1.3191 -0.2194  1.6576
   32MOL   H31912161   1.785   5.379   3.900 -0.4729 -0.4263  0.2268
   32MOL   H32012162   1.771   5.514   4.011 -0.1484 -0.8969  0.8750
   32MOL   H32112163   1.704   5.509   3.841 -2.6109 -0.9884 -0.6271
   32MOL   H32212164   1.538   5.209   4.110  1.1443 -1.2516  0.5755
   32MOL   H32312165   1.654   5.318   4.175 -0.2488  0.1000 -1.0168
   32MOL   H32412166   1.699   5.224   4.028 -2.0051 -0.1999 -3.0866
   32MOL   C32512167   1.184   5.162   3.904  0.2866  0.4276  0.5832
   32MOL   C32612168   1.255   5.044   3.985  0.7429 -0.0008  0.1013
   32MOL   O32712169   1.154   4.994   4.069 -0.4131  0.4725  0.3040
   32MOL   C32812170   1.161   5.041   4.204  0.3819 -0.2380 -0.0903
   32MOL   C32912171   1.016   5.055   4.261 -0.0491 -0.1835 -0.6865
   32MOL   C33012172   1.005   5.059   4.415  0.4701 -0.1360  0.4972
   32MOL   C33112173   0.936   5.165   4.206  0.0892  0.4617 -0.0407
   32MOL   H33212174   1.106   5.114   3.844 -0.0887 -1.1364  2.2675
   32MOL   H33312175   1.129   5.229   3.970 -1.0286 -0.2828  0.2413
   32MOL   H33412176   1.338   5.087   4.041  0.5645  0.4564  0.0157
   32MOL   H33512177   1.223   4.971   4.261 -0.7255  0.1573  1.6176
   32MOL   H33612178   1.204   5.141   4.203 -4.0579  1.8051  1.5089
   32MOL   H33712179   0.959   4.966   4.236 -0.3074 -0.1560 -0.2080
   32MOL   H33812180   1.042   5.151   4.462 -1.7482  0.8447  0.4076
   32MOL   H33912181   0.906   5.030   4.451  0.1238  1.9599  1.3339
   32MOL   H34012182   1.059   4.975   4.458  0.1848  0.3698  1.8919
   32MOL   H34112183   0.964   5.260   4.251 -0.6857  1.5031 -1.7308
   32MOL   H34212184   0.954   5.180   4.100  0.6446 -1.4327 -0.2365
   32MOL   H34312185   0.830   5.155   4.228  0.1510  2.3683  1.3066
   32MOL   C34412186   1.296   4.923   3.900  0.9641  0.6293 -0.6347
   32MOL   C34512187   1.437   4.928   3.858  0.7175 -0.3875 -0.2352
   32MOL   O34612188   1.521   4.844   3.939  0.3046  0.7559  0.8773
   32MOL   C34712189   1.572   4.895   4.063  0.0340 -0.2874 -0.4943
   32MOL   C34812190   1.675   4.788   4.110 -0.0840 -0.7953  0.0354
   32MOL   C34912191   1.624   4.644   4.124  0.9149 -0.0537  0.1085
   32MOL   C35012192   1.748   4.830   4.240  0.4149 -0.6552 -0.1973
   32MOL   H35112193   1.236   4.931   3.809  0.2461  2.3036 -0.0329
   32MOL   H35212194   1.278   4.822   3.937 -1.3714  0.6512 -1.6605
   32MOL   H35312195   1.482   5.027   3.854  0.0091 -0.1258 -2.4899
   32MOL   H35412196   1.496   4.910   4.140  0.9157 -0.2450  0.3747
   32MOL   H35512197   1.625   4.989   4.048  0.0845 -0.6155 -2.4889
   32MOL   H35612198   1.752   4.784   4.034 -0.2071 -3.0685  0.0015
   32MOL   H35712199   1.524   4.645   4.166  1.3214 -3.1706  1.2414
   32MOL   H35812200   1.690   4.589   4.192  1.0948 -0.2660 -0.2411
   32MOL   H35912201   1.627   4.603   4.024  1.7443 -0.5707  0.3398
   32MOL   H36012202   1.682   4.828   4.326 -1.0438  0.4108 -1.2681
   32MOL   H36112203   1.834   4.765   4.255  1.2488  0.7504  1.2720
   32MOL   H36212204   1.776   4.935   4.230 -1.1817 -0.2527 -0.6000
   32MOL   C36312205   1.443   4.885   3.708  0.3914 -0.7033 -0.2479
   32MOL   C36412206   1.580   4.909   3.645  0.0074  0.2287  0.2453
   32MOL   O36512207   1.601   5.056   3.635  0.2129  0.0734 -0.3040
   32MOL   C36612208   1.732   5.100   3.580  0.0684 -0.0010  0.2691
   32MOL   C36712209   1.740   5.255   3.569  0.0679  0.3745 -0.1619
   32MOL   C36812210   1.666   5.299   3.437 -0.6208 -0.1619  0.5297
   32MOL   C36912211   1.880   5.320   3.559 -0.1384  0.0635  0.1071
   32MOL   H37012212   1.406   4.783   3.699 -0.9962 -0.3614  1.3243
   32MOL   H37112213   1.371   4.938   3.646  0.6928 -1.0604 -0.9053
   32MOL   H37212214   1.577   4.860   3.547 -0.3222 -0.5438  0.6383
   32MOL   H37312215   1.809   5.054   3.643  0.9403 -0.6361 -1.2264
   32MOL   H37412216   1.760   5.057   3.484  0.3848 -0.6187  0.6285
   32MOL   H37512217   1.707   5.304   3.660  1.1534 -0.8263  0.9154
   32MOL   H37612218   1.640   5.404   3.440 -0.1837 -0.0660  0.9038
   32MOL   H37712219   1.571   5.246   3.422 -1.1209  0.7439  0.4961
   32MOL   H37812220   1.729   5.276   3.350  0.4343 -1.4520  1.6032
   32MOL   H37912221   1.926   5.300   3.462  2.2905  0.8894  1.0705
   32MOL   H38012222   1.947   5.295   3.640 -2.0921 -1.6705  1.2487
   32MOL   H38112223   1.861   5.427   3.564 -2.0512 -0.2706  0.4021
   32MOL   H38212224   1.657   4.870   3.711  1.5726  2.6236 -0.1004
   33MOL     C112225   4.956   4.860   2.882  0.9949  0.2299  1.3958
   33MOL     C212226   4.825   4.946   2.870 -0.4555 -0.1180 -0.1629
   33MOL     O312227   4.856   5.082   2.859  0.8363 -0.4821  0.3912
   33MOL     C412228   4.907   5.144   2.978  0.2413 -0.5079  0.2268
   33MOL     C512229   4.957   5.288   2.936 -0.4959  0.0241  0.0074
   33MOL     C612230   4.869   5.362   2.829  0.2670  0.0744  0.0560
   33MOL     C712231   5.101   5.266   2.888  0.7200  0.4998 -0.5148
   33MOL     H812232   5.033   4.902   2.817  0.8769 -1.2177  0.3079
   33MOL     H912233   4.988   4.861   2.987 -1.0445  1.5264  2.0401
   33MOL    H1012234   4.762   4.925   2.957 -3.2662 -1.8243 -2.5137
   33MOL    H1112235   4.988   5.092   3.030  0.1932 -0.5827  0.2259
   33MOL    H1212236   4.822   5.159   3.044  0.4508  3.1582 -0.2153
   33MOL    H1312237   4.966   5.348   3.027 -0.4520 -0.5694  0.3975
   33MOL    H1412238   4.871   5.316   2.730 -0.5083 -3.0671  1.4442
   33MOL    H1512239   4.765   5.377   2.855  0.5486  1.3207  0.5106
   33MOL    H1612240   4.903   5.466   2.823  2.3497 -0.6293 -0.9863
   33MOL    H1712241   5.157   5.229   2.973 -1.7088  1.1381  1.4197
   33MOL    H1812242   5.111   5.195   2.806 -0.4516 -0.5984  0.2906
   33MOL    H1912243   5.152   5.361   2.867 -0.0793  1.3459  1.2640
   33MOL    H2012244   4.934   4.757   2.857  1.4602  0.8963 -1.9315
   33MOL    C2112245   4.752   4.914   2.737 -0.1621 -0.4569  0.3588
   33MOL    C2212246   4.612   4.970   2.735  0.5140 -0.5132  0.3509
   33MOL    O2312247   4.553   4.966   2.605  0.4367 -0.2487 -0.3251
   33MOL    C2412248   4.581   5.083   2.530  0.3865  0.2430  0.1323
   33MOL    C2512249   4.525   5.075   2.387  0.3673  0.1026  0.2959
   33MOL    C2612250   4.370   5.043   2.382  0.3678 -0.7306  0.4224
   33MOL    C2712251   4.558   5.197   2.298 -0.4583 -0.3400  0.0140
   33MOL    H2812252   4.809   4.963   2.658 -0.0489  2.0006  1.9199
   33MOL    H2912253   4.744   4.806   2.720 -1.7451 -0.3018  0.1227
   33MOL    H3012254   4.602   5.069   2.778 -2.1666 -0.7510  0.3557
   33MOL    H3112255   4.689   5.096   2.531  0.4514 -0.3217  0.9300
   33MOL    H3212256   4.547   5.172   2.583  1.8568  0.7334  0.2904
   33MOL    H3312257   4.576   4.986   2.348 -1.0140  0.1043 -1.6184
   33MOL    H3412258   4.348   4.952   2.439  2.8069 -0.5633  1.6882
   33MOL    H3512259   4.317   5.033   2.287 -0.5366  0.5740  0.7824
   33MOL    H3612260   4.326   5.131   2.428 -0.1758 -1.2237  0.8531
   33MOL    H3712261   4.530   5.176   2.194 -0.1389  0.4943 -0.2476
   33MOL    H3812262   4.506   5.289   2.323 -0.3155 -0.6287  1.3735
   33MOL    H3912263   4.664   5.215   2.315 -0.8472  0.1609  1.9740
   33MOL    C4012264   4.511   4.883   2.809  0.3270 -0.0042 -0.0192
   33MOL    C4112265   4.364   4.929   2.810 -0.0094 -0.1702 -0.1307
   33MOL    O4212266   4.362   5.064   2.866 -0.6294  0.1738  0.0808
   33MOL    C4312267   4.318   5.169   2.788 -0.0514  0.0774 -0.2869
   33MOL    C4412268   4.160   5.171   2.781 -0.5426 -0.3852  0.5113
   33MOL    C4512269   4.092   5.191   2.917  0.6178 -0.8755  0.0714
   33MOL    C4612270   4.129   5.274   2.676 -1.0095  0.4783  0.1366
   33MOL    H4712271   4.547   4.865   2.911 -0.8076 -0.4847  0.3058
   33MOL    H4812272   4.518   4.783   2.767 -0.8555  0.4734 -1.3720
   33MOL    H4912273   4.328   4.937   2.707 -0.7500  1.0552  0.2052
   33MOL    H5012274   4.366   5.170   2.690  0.2931 -2.1648 -0.1744
   33MOL    H5112275   4.346   5.261   2.838  1.2333  0.4456 -1.6669
   33MOL    H5212276   4.125   5.075   2.741 -2.0928 -0.1061  1.1399
   33MOL    H5312277   4.127   5.274   2.978 -0.2003 -0.9656  0.6575
   33MOL    H5412278   3.984   5.193   2.902  0.1531 -0.1559  3.2621
   33MOL    H5512279   4.112   5.108   2.985  0.9728 -0.9381 -0.1033
   33MOL    H5612280   4.024   5.300   2.688 -1.6966 -2.7163  1.7054
   33MOL    H5712281   4.169   5.241   2.580  1.0303  0.4180  0.9637
   33MOL    H5812282   4.186   5.365   2.696  0.4508  0.4025 -3.2148
   33MOL    C5912283   4.275   4.834   2.893 -0.0861  0.1606 -0.4376
   33MOL    C6012284   4.246   4.706   2.810 -0.4529  0.2178 -0.1951
   33MOL    O6112285   4.130   4.750   2.734  0.2839 -0.0772 -0.4636
   33MOL    C6212286   4.148   4.716   2.596  0.1852  0.1769 -0.0767
   33MOL    C6312287   4.030   4.781   2.512 -0.2228 -0.3895 -0.2528
   33MOL    C6412288   3.892   4.716   2.536 -0.0110 -0.1519 -0.1446
   33MOL    C6512289   4.022   4.928   2.534  0.3003  0.2647  1.0211
   33MOL    H6612290   4.182   4.886   2.919 -0.5929 -0.2391 -1.4100
   33MOL    H6712291   4.325   4.813   2.987 -1.1129 -1.6499 -0.2711
   33MOL    H6812292   4.326   4.664   2.749 -0.3354  0.0581  0.0682
   33MOL    H6912293   4.246   4.756   2.568  0.7885  0.0578  1.8405
   33MOL    H7012294   4.150   4.608   2.583 -1.1290 -0.1469  2.2212
   33MOL    H7112295   4.063   4.776   2.409 -0.7098  2.9941 -0.6178
   33MOL    H7212296   3.811   4.786   2.513 -0.2719 -0.8387 -1.3385
   33MOL    H7312297   3.884   4.698   2.644  1.9679  0.0156  0.0430
   33MOL    H7412298   3.895   4.635   2.464 -0.5878  0.0282 -0.3719
   33MOL    H7512299   3.943   4.956   2.464  0.9462  0.8288  0.5208
   33MOL    H7612300   3.982   4.949   2.633 -0.5380  1.9069  0.3414
   33MOL    H7712301   4.118   4.979   2.524  0.3419 -0.1682 -1.1948
   33MOL    C7812302   4.193   4.588   2.899  0.1354 -0.4861 -0.3054
   33MOL    C7912303   4.290   4.487   2.953 -0.3202  0.8150  0.2280
   33MOL    O8012304   4.360   4.410   2.848  0.2989 -0.5339  0.0227
   33MOL    C8112305   4.284   4.319   2.771 -0.2580  0.4884  0.1089
   33MOL    C8212306   4.361   4.281   2.638  0.0174  0.2505 -0.0210
   33MOL    C8312307   4.358   4.405   2.546  0.0502 -0.1964  0.4674
   33MOL    C8412308   4.307   4.155   2.570  0.7741  0.2233 -0.0959
   33MOL    H8512309   4.117   4.534   2.842 -0.7455  1.8784 -1.4522
   33MOL    H8612310   4.134   4.641   2.974  0.2390 -0.6078 -0.1388
   33MOL    H8712311   4.241   4.415   3.018  1.3601 -0.1678  0.4174
   33MOL    H8812312   4.251   4.230   2.825 -1.3251  0.2397 -0.9270
   33MOL    H8912313   4.193   4.364   2.731 -1.8532 -2.1590  0.6482
   33MOL    H9012314   4.462   4.268   2.678 -0.6620  3.8477  3.2398
   33MOL    H9112315   4.257   4.409   2.505  0.4948 -2.3086 -0.8914
   33MOL    H9212316   4.424   4.401   2.460 -1.0755 -0.1420 -0.4154
   33MOL    H9312317   4.378   4.489   2.613  0.8862 -0.7597  0.9331
   33MOL    H9412318   4.382   4.114   2.502 -0.3885 -1.4908 -0.3881
   33MOL    H9512319   4.231   4.177   2.494 -0.9678 -1.9746  0.9262
   33MOL    H9612320   4.259   4.085   2.638  0.4775  0.0990 -0.4264
   33MOL    C9712321   4.392   4.544   3.056 -0.1089  0.1854 -0.3478
   33MOL    C9812322   4.486   4.440   3.122 -0.0487 -0.3349  0.5016
   33MOL    O9912323   4.412   4.347   3.199 -0.1792 -0.2613  0.3759
   33MOL   C10012324   4.467   4.220   3.213 -0.1855 -0.6460  0.0680
   33MOL   C10112325   4.370   4.126   3.290 -1.0180 -0.0956  0.1569
   33MOL   C10212326   4.242   4.105   3.210  0.1610 -0.7000  0.3567
   33MOL   C10312327   4.437   3.993   3.333  0.6732 -0.0078  0.2667
   33MOL   H10412328   4.338   4.597   3.134 -1.5967  0.5959 -1.6433
   33MOL   H10512329   4.463   4.620   3.023 -0.8078  1.4903  1.0749
   33MOL   H10612330   4.525   4.382   3.037 -1.2030  0.3636 -0.5223
   33MOL   H10712331   4.560   4.220   3.269  0.0186 -0.9634 -0.2681
   33MOL   H10812332   4.485   4.180   3.113 -1.7976 -0.9305 -0.1238
   33MOL   H10912333   4.353   4.186   3.379  0.2761 -1.4204  1.3115
   33MOL   H11012334   4.189   4.196   3.180  1.1824  0.2812  1.4622
   33MOL   H11112335   4.255   4.040   3.124  1.7361  1.1751 -0.8772
   33MOL   H11212336   4.162   4.056   3.266 -0.1335  0.4525  0.9642
   33MOL   H11312337   4.520   4.019   3.398  0.6182  2.9429 -0.7493
   33MOL   H11412338   4.378   3.932   3.401  1.4989 -0.7501  0.3277
   33MOL   H11512339   4.485   3.927   3.261 -2.1962 -1.2883 -0.5220
   33MOL   C11612340   4.587   4.504   3.221  0.6451  0.1183 -0.3385
   33MOL   C11712341   4.687   4.607   3.171  0.3256  0.5021  0.3083
   33MOL   O11812342   4.789   4.632   3.267 -0.0936 -0.0128 -0.3525
   33MOL   C11912343   4.823   4.770   3.267  0.2465 -0.0506 -0.1052
   33MOL   C12012344   4.921   4.809   3.377 -0.0542  0.3955 -0.6255
   33MOL   C12112345   5.050   4.734   3.374 -0.2594 -0.7301  0.0327
   33MOL   C12212346   4.935   4.958   3.384  0.7960 -0.7425  0.5211
   33MOL   H12312347   4.531   4.544   3.306  3.4192 -0.6449  1.9324
   33MOL   H12412348   4.649   4.423   3.261 -0.7828 -0.0014  1.7425
   33MOL   H12512349   4.625   4.694   3.149  3.0654  2.2621 -0.7677
   33MOL   H12612350   4.730   4.827   3.272  0.6952  0.6526  0.3670
   33MOL   H12712351   4.872   4.781   3.171  0.4688  1.3383  0.1492
   33MOL   H12812352   4.883   4.779   3.475 -0.2643 -0.1275 -0.8660
   33MOL   H12912353   5.143   4.765   3.423  0.4746 -0.4174 -1.5063
   33MOL   H13012354   5.078   4.750   3.270 -1.3130 -2.8037 -0.5788
   33MOL   H13112355   5.029   4.629   3.395  2.2006 -1.1723  0.4646
   33MOL   H13212356   4.842   5.008   3.412 -0.8534 -1.5597 -3.1710
   33MOL   H13312357   5.024   4.992   3.437  1.5744 -0.4986 -0.9041
   33MOL   H13412358   4.945   4.992   3.281 -1.3868 -0.6402  0.3155
   33MOL   C13512359   4.754   4.568   3.038 -0.2508 -0.6198 -0.4864
   33MOL   C13612360   4.869   4.463   3.042  1.1061  0.0144 -0.4112
   33MOL   O13712361   4.886   4.420   2.910 -0.5385  0.3873  0.0894
   33MOL   C13812362   4.820   4.302   2.872 -0.8090 -0.4492 -1.0591
   33MOL   C13912363   4.801   4.314   2.720 -0.4932 -0.5163  0.2626
   33MOL   C14012364   4.759   4.182   2.656 -0.4075 -0.7881  0.1735
   33MOL   C14112365   4.706   4.433   2.687 -0.0321  0.5745  0.3205
   33MOL   H14212366   4.680   4.526   2.969  1.1635 -3.3420 -0.4027
   33MOL   H14312367   4.794   4.654   2.986 -1.7587  0.3584 -0.0776
   33MOL   H14412368   4.850   4.388   3.120 -0.6070  1.4432  0.5916
   33MOL   H14512369   4.717   4.296   2.909 -1.0461  0.9013 -1.4725
   33MOL   H14612370   4.871   4.214   2.913 -1.6682  0.5998  2.3867
   33MOL   H14712371   4.905   4.323   2.687  0.1406  0.4209  2.4274
   33MOL   H14812372   4.748   4.192   2.548  0.4385  1.7824  0.2909
   33MOL   H14912373   4.663   4.144   2.690  0.6553 -2.0735  1.8256
   33MOL   H15012374   4.829   4.101   2.679 -0.2945 -0.9712 -0.7933
   33MOL   H15112375   4.626   4.433   2.761  0.0453  2.4607  0.4422
   33MOL   H15212376   4.759   4.528   2.683  0.7262  0.1628  0.5760
   33MOL   H15312377   4.666   4.426   2.586  1.8044  1.7184 -0.5273
   33MOL   C15412378   5.005   4.521   3.065  0.2376  0.5610 -0.3291
   33MOL   C15512379   5.122   4.421   3.049 -0.7885  0.4662 -0.0525
   33MOL   O15612380   5.233   4.517   3.054 -0.0309 -0.3780  0.2892
   33MOL   C15712381   5.278   4.519   2.919 -0.3100 -0.7631 -0.0614
   33MOL   C15812382   5.374   4.632   2.886 -0.2582 -0.8598  0.5032
   33MOL   C15912383   5.314   4.772   2.869  0.2139  0.1510  0.4609
   33MOL   C16012384   5.486   4.626   2.998 -0.8576 -0.2272 -0.0918
   33MOL   H16112385   5.011   4.569   3.163 -0.0927 -2.9137  1.4609
   33MOL   H16212386   5.011   4.609   3.001 -0.0621  0.4180 -0.5526
   33MOL   H16312387   5.116   4.360   2.959 -1.5050 -0.9494  0.9348
   33MOL   H16412388   5.191   4.547   2.860 -0.5327 -0.7842  0.2579
   33MOL   H16512389   5.324   4.424   2.892  0.2146 -0.1566 -1.3549
   33MOL   H16612390   5.419   4.604   2.791  0.3612 -0.4766  0.6809
   33MOL   H16712391   5.247   4.815   2.944 -0.5394  4.1037 -2.3326
   33MOL   H16812392   5.265   4.776   2.772  1.8464  0.4777 -0.3706
   33MOL   H16912393   5.395   4.845   2.870  0.7477 -0.3896 -1.2016
   33MOL   H17012394   5.455   4.686   3.083 -0.6099  1.6748 -1.3200
   33MOL   H17112395   5.522   4.528   3.030  1.6599  0.4646 -0.7361
   33MOL   H17212396   5.570   4.684   2.962 -1.2776  1.4778  1.5955
   33MOL   C17312397   5.136   4.333   3.176  0.3735  0.6287 -0.1224
   33MOL   C17412398   5.257   4.236   3.174  0.0229 -0.3478 -0.1049
   33MOL   O17512399   5.322   4.231   3.301  0.0229 -0.8327  0.2400
   33MOL   C17612400   5.394   4.345   3.345  0.6781  0.5690 -0.1781
   33MOL   C17712401   5.548   4.329   3.351  0.2138 -0.0413 -0.6168
   33MOL   C17812402   5.603   4.264   3.482  0.1190  0.0452 -0.1346
   33MOL   C17912403   5.612   4.259   3.232 -0.4982 -0.4844  0.4252
   33MOL   H18012404   5.146   4.396   3.265 -0.5911  0.5944  0.0194
   33MOL   H18112405   5.043   4.281   3.201 -0.2268  0.8723 -1.7930
   33MOL   H18212406   5.331   4.277   3.106 -1.1589 -0.9096 -1.7481
   33MOL   H18312407   5.354   4.383   3.439  0.0071  2.1139 -1.0660
   33MOL   H18412408   5.367   4.428   3.280  1.5554 -0.4189 -1.8466
   33MOL   H18512409   5.592   4.429   3.349  2.2594 -0.9169 -1.1892
   33MOL   H18612410   5.710   4.245   3.473  0.2388  1.2946 -1.3876
   33MOL   H18712411   5.580   4.333   3.562 -2.3671 -0.0437 -0.7554
   33MOL   H18812412   5.559   4.166   3.501  1.2808 -0.9060 -2.1603
   33MOL   H18912413   5.718   4.254   3.255 -0.8416  0.7949  2.5034
   33MOL   H19012414   5.586   4.314   3.142 -2.7201  0.4474  1.5860
   33MOL   H19112415   5.566   4.161   3.226  2.2263 -1.7453 -0.6474
   33MOL   C19212416   5.218   4.098   3.141  0.7235 -0.1550  0.1735
   33MOL   C19312417   5.244   4.055   3.000  0.0408  0.0616  0.4964
   33MOL   O19412418   5.194   3.926   2.971 -0.1545  0.0755  0.0979
   33MOL   C19512419   5.061   3.916   2.925 -0.4131  0.2190 -0.2367
   33MOL   C19612420   5.043   3.778   2.873 -0.0715 -0.6548  0.0940
   33MOL   C19712421   5.143   3.739   2.755 -0.7919 -0.1640  0.4714
   33MOL   C19812422   4.897   3.749   2.839  0.3372 -0.4501  0.6104
   33MOL   H19912423   5.114   4.088   3.174  1.0615  0.6530  1.4886
   33MOL   H20012424   5.270   4.032   3.210  0.5949  0.1495  0.5614
   33MOL   H20112425   5.195   4.131   2.939  0.4223 -0.2200 -0.1727
   33MOL   H20212426   5.034   3.984   2.843 -0.3906 -1.1916 -1.4354
   33MOL   H20312427   4.986   3.925   3.003 -0.8359 -0.6991 -0.5344
   33MOL   H20412428   5.062   3.710   2.957 -0.4269  0.4819  1.1068
   33MOL   H20512429   5.143   3.824   2.686  2.6912  0.0816  0.6777
   33MOL   H20612430   5.242   3.709   2.790  1.5243  3.2328 -2.7416
   33MOL   H20712431   5.097   3.653   2.706 -0.3022 -0.5056  0.6083
   33MOL   H20812432   4.870   3.805   2.750  0.3407  0.9396  1.4771
   33MOL   H20912433   4.891   3.642   2.816 -0.5093  0.0559 -1.6279
   33MOL   H21012434   4.833   3.776   2.923  1.2380  1.8229  0.6130
   33MOL   C21112435   5.400   4.042   2.974 -0.7793  0.2419  0.8163
   33MOL   C21212436   5.430   4.009   2.829 -0.0515  0.0975  0.7625
   33MOL   O21312437   5.382   4.113   2.739 -0.0215  0.3763 -0.6989
   33MOL   C21412438   5.311   4.058   2.629  0.6995 -0.0573  0.4952
   33MOL   C21512439   5.286   4.173   2.526 -0.1966  0.2436 -0.1555
   33MOL   C21612440   5.415   4.216   2.458 -0.0818 -0.1203 -0.8719
   33MOL   C21712441   5.187   4.132   2.415  0.7563  0.0768 -0.2402
   33MOL   H21812442   5.453   3.974   3.041 -0.5512 -1.0922 -0.6923
   33MOL   H21912443   5.444   4.140   2.993 -1.6585  0.3794  2.2637
   33MOL   H22012444   5.372   3.918   2.810  0.8108 -0.1222 -0.9069
   33MOL   H22112445   5.216   4.023   2.671  0.3600 -0.5306 -0.6667
   33MOL   H22212446   5.353   3.966   2.588 -0.1302  0.3152 -1.2266
   33MOL   H22312447   5.254   4.261   2.581 -2.0132 -0.0864 -0.6774
   33MOL   H22412448   5.471   4.290   2.515  1.2454 -0.3937 -1.8033
   33MOL   H22512449   5.480   4.129   2.446 -0.1398 -0.5034  1.2917
   33MOL   H22612450   5.402   4.251   2.356  1.6832 -0.9175 -1.3829
   33MOL   H22712451   5.134   4.215   2.367  1.3751  1.3605  1.2472
   33MOL   H22812452   5.114   4.072   2.469  0.1255 -1.6461 -2.9069
   33MOL   H22912453   5.239   4.084   2.332  3.2133 -0.3606  1.4920
   33MOL   C23012454   5.585   3.988   2.798 -0.3885  0.1659 -0.5043
   33MOL   C23112455   5.684   4.112   2.814  0.0515  0.0911 -0.2512
   33MOL   O23212456   5.816   4.058   2.814  0.2363  0.6048  0.6693
   33MOL   C23312457   5.857   4.006   2.941  0.5339  0.5171 -0.1913
   33MOL   C23412458   6.013   3.989   2.938  0.3882  0.3789 -0.2192
   33MOL   C23512459   6.043   3.902   2.808 -0.3231  0.1116 -0.3217
   33MOL   C23612460   6.090   4.120   2.931  0.4342  0.5969 -0.7183
   33MOL   H23712461   5.597   3.939   2.702  1.6139  0.6569 -0.5392
   33MOL   H23812462   5.614   3.908   2.866  0.1704  0.6571 -0.1543
   33MOL   H23912463   5.668   4.151   2.915 -0.0054 -1.2627  0.2692
   33MOL   H24012464   5.839   4.070   3.028  0.2676  0.8874 -0.5181
   33MOL   H24112465   5.813   3.908   2.958 -0.4005  0.9259 -0.2110
   33MOL   H24212466   6.038   3.944   3.035  1.0407  1.8760  0.3198
   33MOL   H24312467   6.026   3.950   2.712  0.2009  2.0388  0.5245
   33MOL   H24412468   5.991   3.806   2.818  3.3050 -1.8600  0.4362
   33MOL   H24512469   6.146   3.869   2.800 -0.2663  0.4240 -0.8489
   33MOL   H24612470   6.199   4.107   2.927  0.5274  0.6613  1.0170
   33MOL   H24712471   6.063   4.179   2.843 -1.6827  0.2988 -0.2745
   33MOL   H24812472   6.063   4.183   3.016  1.3969 -0.1497  0.1495
   33MOL   C24912473   5.676   4.225   2.707  0.1747 -0.0207  0.0075
   33MOL   C25012474   5.796   4.324   2.717 -0.6669 -0.2570  0.0314
   33MOL   O25112475   5.811   4.410   2.606 -0.0920  0.7660  0.5850
   33MOL   C25212476   5.858   4.352   2.485 -0.1523  0.1470 -0.4962
   33MOL   C25312477   5.897   4.464   2.384  0.4304  0.7894  0.1356
   33MOL   C25412478   5.765   4.540   2.349 -0.4486  0.0555  0.4886
   33MOL   C25512479   5.953   4.399   2.247 -0.0784  0.0844 -0.2062
   33MOL   H25612480   5.576   4.266   2.719  0.8056  1.2611  0.8720
   33MOL   H25712481   5.682   4.179   2.608 -0.0157 -0.5949  0.2586
   33MOL   H25812482   5.892   4.279   2.743  0.5872  2.2718  0.0129
   33MOL   H25912483   5.954   4.308   2.513 -0.8826 -0.5016  1.0549
   33MOL   H26012484   5.800   4.264   2.456 -0.9223  1.4268 -3.0759
   33MOL   H26112485   5.969   4.530   2.431 -0.6326  2.8210 -1.0069
   33MOL   H26212486   5.740   4.618   2.421 -3.4543  0.1877 -0.6277
   33MOL   H26312487   5.686   4.467   2.332  0.5210 -0.3678 -2.6268
   33MOL   H26412488   5.780   4.595   2.256 -0.4228 -1.5024 -0.4473
   33MOL   H26512489   5.878   4.343   2.191  0.1109 -3.0991  2.5657
   33MOL   H26612490   5.991   4.475   2.179  1.8036 -1.8820 -1.4087
   33MOL   H26712491   6.030   4.329   2.279 -1.6221 -1.2593  0.6291
   33MOL   C26812492   5.783   4.424   2.833 -0.3100 -0.1039  0.0755
   33MOL   C26912493   5.915   4.481   2.889  0.9385  0.4121 -0.7227
   33MOL   O27012494   5.887   4.540   3.010  0.5835  0.2146 -0.1091
   33MOL   C27112495   5.909   4.466   3.124  0.1080 -0.0187 -0.1142
   33MOL   C27212496   5.910   4.535   3.261 -0.3573 -0.1856  0.0276
   33MOL   C27312497   6.044   4.602   3.276  0.0038 -0.0083 -0.2650
   33MOL   C27412498   5.791   4.627   3.276  0.9531  0.2420 -0.0417
   33MOL   H27512499   5.739   4.368   2.915  0.7037  0.8924  1.3028
   33MOL   H27612500   5.709   4.501   2.813  0.6041  0.4940 -1.0581
   33MOL   H27712501   5.994   4.406   2.897  0.9201  0.3635 -0.9753
   33MOL   H27812502   5.825   4.396   3.127  0.1641 -0.0616  0.5460
   33MOL   H27912503   6.003   4.414   3.106  0.9907  1.4735  0.0680
   33MOL   H28012504   5.909   4.458   3.338  1.5423  1.9266  2.2720
   33MOL   H28112505   6.111   4.519   3.294 -1.7630 -0.9782  2.0315
   33MOL   H28212506   6.045   4.672   3.359  1.3215 -0.9763  0.5541
   33MOL   H28312507   6.070   4.661   3.188  4.1859 -1.5421 -0.1395
   33MOL   H28412508   5.807   4.706   3.203 -2.5981  0.3763 -0.7885
   33MOL   H28512509   5.791   4.661   3.380 -0.7102  2.7886 -0.8290
   33MOL   H28612510   5.693   4.591   3.243  0.2549  1.3830  0.7592
   33MOL   C28712511   5.968   4.601   2.806  0.7475  1.1099  0.3210
   33MOL   C28812512   6.104   4.652   2.841 -0.9336  0.5973 -0.1531
   33MOL   O28912513   6.108   4.800   2.841  0.2170 -0.2306 -0.0915
   33MOL   C29012514   6.085   4.860   2.962  0.5274  0.8456  0.3868
   33MOL   C29112515   6.090   5.009   2.949 -0.3160 -0.0181 -0.4079
   33MOL   C29212516   6.074   5.092   3.081  0.5145 -0.3616  0.4762
   33MOL   C29312517   5.991   5.053   2.840  0.3123  0.5747 -0.0640
   33MOL   H29412518   5.899   4.686   2.807 -2.2751 -1.2473  1.8975
   33MOL   H29512519   5.961   4.578   2.700  3.1350 -0.0279  0.3920
   33MOL   H29612520   6.143   4.607   2.932  0.2606 -1.5235 -1.6838
   33MOL   H29712521   5.992   4.832   3.011 -0.0198  0.9725 -0.5657
   33MOL   H29812522   6.163   4.838   3.036 -0.3070 -1.1580  0.6968
   33MOL   H29912523   6.185   5.031   2.902 -0.7783 -1.0046 -1.8441
   33MOL   H30012524   6.094   5.198   3.075 -0.9594 -0.1340 -0.6720
   33MOL   H30112525   6.140   5.048   3.156  0.6901  2.5785  2.1171
   33MOL   H30212526   5.972   5.090   3.121  0.2758 -1.1129 -0.1407
   33MOL   H30312527   5.910   5.104   2.891  0.5378  0.5123  0.3621
   33MOL   H30412528   6.027   5.133   2.775 -1.2395  1.8590  0.6376
   33MOL   H30512529   5.953   4.970   2.781 -1.6568  1.7349 -0.4385
   33MOL   C30612530   6.202   4.595   2.732 -0.0862 -0.5160  0.3452
   33MOL   C30712531   6.342   4.632   2.760  0.8549  0.0403 -0.1833
   33MOL   O30812532   6.387   4.521   2.837 -0.4298  0.2368  0.3134
   33MOL   C30912533   6.427   4.554   2.968 -0.4672 -0.3594 -0.0375
   33MOL   C31012534   6.453   4.423   3.055  0.2535  0.0124  0.0277
   33MOL   C31112535   6.537   4.326   2.980 -0.0488 -0.0591 -0.0476
   33MOL   C31212536   6.315   4.355   3.090 -0.1457 -0.6619  0.0071
   33MOL   H31312537   6.170   4.622   2.631  0.0255  1.1623  0.7332
   33MOL   H31412538   6.195   4.487   2.729 -0.9226 -0.4773  0.5528
   33MOL   H31512539   6.357   4.722   2.820  0.6879  0.3624 -0.6188
   33MOL   H31612540   6.346   4.613   3.010 -0.0377  1.0963 -1.2320
   33MOL   H31712541   6.517   4.614   2.958 -2.0358  1.8769 -1.1160
   33MOL   H31812542   6.513   4.459   3.138 -0.1714 -1.5516  1.0215
   33MOL   H31912543   6.475   4.291   2.898  1.7643 -1.4165 -0.8686
   33MOL   H32012544   6.572   4.238   3.035 -2.4758 -0.3217  1.1582
   33MOL   H32112545   6.628   4.377   2.948 -1.9971  1.8591 -2.7411
   33MOL   H32212546   6.329   4.258   3.138  1.4448 -0.2204  0.4667
   33MOL   H32312547   6.255   4.346   2.999 -0.9635  2.2511  0.2312
   33MOL   H32412548   6.263   4.419   3.160 -1.2175  0.9984 -2.2200
   33MOL   C32512549   6.437   4.634   2.638  0.7922 -0.3481  0.7183
   33MOL   C32612550   6.409   4.760   2.548  0.0354  0.5155  0.1524
   33MOL   O32712551   6.466   4.869   2.607 -0.5771  0.7016 -0.6026
   33MOL   C32812552   6.401   4.993   2.587 -0.4542  0.0271  0.5101
   33MOL   C32912553   6.485   5.098   2.658 -0.2192 -0.1282 -0.3422
   33MOL   C33012554   6.532   5.082   2.803 -0.0279 -0.3222  1.3397
   33MOL   C33112555   6.608   5.123   2.573  0.0545 -0.9741  0.3734
   33MOL   H33212556   6.431   4.542   2.581  0.8169  0.6961 -1.0088
   33MOL   H33312557   6.539   4.648   2.674  1.2775 -0.6174 -0.5420
   33MOL   H33412558   6.301   4.774   2.540 -0.0307 -0.1611 -0.2150
   33MOL   H33512559   6.393   5.010   2.480  0.8409 -1.8879  0.0998
   33MOL   H33612560   6.299   5.005   2.626 -0.0778  1.2581  1.1508
   33MOL   H33712561   6.433   5.193   2.667  0.6787  0.4555 -1.1806
   33MOL   H33812562   6.594   4.992   2.806  1.6717  0.5660 -2.5238
   33MOL   H33912563   6.593   5.171   2.820 -0.1832  0.1614 -0.4688
   33MOL   H34012564   6.447   5.083   2.871 -0.5260 -1.4028  0.7364
   33MOL   H34112565   6.647   5.224   2.586  0.1942 -0.8441 -0.9803
   33MOL   H34212566   6.685   5.046   2.573  0.6207 -0.4253  0.8016
   33MOL   H34312567   6.584   5.138   2.468  0.3054  0.9774  0.5618
   33MOL   C34412568   6.474   4.740   2.407  0.2373 -0.7344  0.0527
   33MOL   C34512569   6.375   4.671   2.308 -0.0718 -0.7978  0.0345
   33MOL   O34612570   6.279   4.763   2.273 -0.0979 -0.2624 -0.2381
   33MOL   C34712571   6.144   4.722   2.300  0.8217 -0.0097  0.6180
   33MOL   C34812572   6.041   4.830   2.262 -0.2809 -0.3679 -0.2726
   33MOL   C34912573   6.019   4.835   2.103 -0.0549 -0.4755 -0.8081
   33MOL   C35012574   6.072   4.965   2.327  0.2926 -0.1873 -0.5257
   33MOL   H35112575   6.567   4.684   2.404 -0.2729 -1.6734  1.4246
   33MOL   H35212576   6.510   4.834   2.367 -0.0393 -0.1698  1.1136
   33MOL   H35312577   6.333   4.579   2.348 -0.3574 -0.5916  0.2171
   33MOL   H35412578   6.134   4.708   2.407  1.3354 -2.5200  0.3686
   33MOL   H35512579   6.125   4.623   2.259  0.9155 -0.6245  2.0500
   33MOL   H35612580   5.951   4.801   2.317  0.2428  0.3517  0.9698
   33MOL   H35712581   6.114   4.849   2.051  0.5115 -1.3124 -0.0109
   33MOL   H35812582   5.948   4.912   2.072  0.2224  0.9322  1.8911
   33MOL   H35912583   5.979   4.736   2.084 -0.4134 -1.0383  2.5786
   33MOL   H36012584   6.132   5.034   2.267 -1.2914  2.3077  0.7072
   33MOL   H36112585   5.977   5.017   2.339  2.0795  2.3683  3.3828
   33MOL   H36212586   6.117   4.949   2.425  0.5604 -2.8012 -1.0226
   33MOL   C36312587   6.442   4.629   2.170  0.1251 -0.0542  0.4046
   33MOL   C36412588   6.556   4.529   2.191 -0.4761 -0.0463  0.0495
   33MOL   O36512589   6.590   4.499   2.062 -0.2188  0.5065 -0.1328
   33MOL   C36612590   6.704   4.416   2.051 -0.1584 -0.2703  0.4802
   33MOL   C36712591   6.731   4.405   1.898 -0.7749 -0.4001 -0.1752
   33MOL   C36812592   6.812   4.280   1.864  0.5999 -0.9326  0.0906
   33MOL   C36912593   6.794   4.535   1.847 -0.3397  0.7502 -0.3041
   33MOL   H37012594   6.364   4.581   2.111  2.2327 -1.0688 -1.6432
   33MOL   H37112595   6.467   4.717   2.111 -0.4375 -2.1541 -3.1395
   33MOL   H37212596   6.511   4.445   2.244 -2.2200  0.7155 -0.1680
   33MOL   H37312597   6.792   4.451   2.106 -0.8981  1.2416  0.7469
   33MOL   H37412598   6.665   4.319   2.079 -1.8579  0.1775 -0.2487
   33MOL   H37512599   6.631   4.393   1.857 -0.9254 -0.3151  0.1646
   33MOL   H37612600   6.901   4.273   1.926  0.8041 -2.3829 -0.3393
   33MOL   H37712601   6.839   4.272   1.759 -1.6865 -0.3493 -0.5851
   33MOL   H37812602   6.747   4.193   1.876 -1.1378  0.5609  2.0335
   33MOL   H37912603   6.805   4.531   1.739 -0.9964 -0.7981 -0.3289
   33MOL   H38012604   6.890   4.554   1.894 -0.0944 -1.4561  0.1452
   33MOL   H38112605   6.725   4.619   1.862 -1.6982 -0.2804 -0.6479
   33MOL   H38212606   6.641   4.581   2.236  0.8863  1.5431 -4.1711
   34MOL     C112607   4.212   5.123   1.095  0.2569 -0.4121 -0.0770
   34MOL     C212608   4.101   5.231   1.106 -0.7612  0.1156 -0.3536
   34MOL     O312609   4.108   5.278   1.238  0.6050 -0.1310  0.0491
   34MOL     C412610   3.977   5.319   1.281  0.1962  0.3243 -0.0261
   34MOL     C512611   3.984   5.392   1.409  0.6785 -0.3798 -0.4638
   34MOL     C612612   3.847   5.435   1.452  1.2505 -0.5845  0.6409
   34MOL     C712613   4.076   5.515   1.405  0.3689  0.2167  0.8262
   34MOL     H812614   4.203   5.048   1.172  1.4724 -1.9408 -1.3996
   34MOL     H912615   4.214   5.078   0.996  1.1141  0.9715 -0.7056
   34MOL    H1012616   4.004   5.182   1.093 -0.7124 -0.1392  0.1857
   34MOL    H1112617   3.910   5.233   1.283 -0.0412  0.5297  0.9365
   34MOL    H1212618   3.941   5.387   1.204 -0.9305 -0.6179 -0.3568
   34MOL    H1312619   4.018   5.314   1.477  0.6756 -0.6870 -0.8119
   34MOL    H1412620   3.841   5.471   1.555 -0.2626 -3.1726  1.5057
   34MOL    H1512621   3.815   5.516   1.387 -2.1662 -0.5149  2.2940
   34MOL    H1612622   3.775   5.353   1.448  0.0732  0.2505  3.5487
   34MOL    H1712623   4.044   5.587   1.329  2.3972  0.7287  0.4312
   34MOL    H1812624   4.060   5.568   1.499 -0.9721  0.1256  0.6542
   34MOL    H1912625   4.180   5.485   1.391  0.6262  0.4834  2.0824
   34MOL    H2012626   4.306   5.173   1.117 -0.6260  0.6721  1.3307
   34MOL    C2112627   4.129   5.349   1.004 -0.2106 -0.0523  1.3308
   34MOL    C2212628   4.165   5.300   0.857 -0.2856  0.8609  0.8777
   34MOL    O2312629   4.058   5.226   0.801  0.2763 -0.1405  0.9167
   34MOL    C2412630   4.092   5.104   0.732  0.0448  0.6837 -0.5016
   34MOL    C2512631   3.973   5.012   0.719  0.7373  0.1155 -0.6191
   34MOL    C2612632   3.920   4.964   0.854 -0.6731  0.0966  0.3898
   34MOL    C2712633   3.856   5.071   0.627  0.1150 -0.5476  0.4306
   34MOL    H2812634   4.047   5.421   0.998 -2.6320 -2.5270  2.9816
   34MOL    H2912635   4.208   5.411   1.046  1.7938 -1.9930  0.5325
   34MOL    H3012636   4.252   5.237   0.875  1.0501  3.0529  2.3766
   34MOL    H3112637   4.169   5.049   0.785  0.4639  0.9424 -0.8380
   34MOL    H3212638   4.141   5.135   0.640  0.3074  3.0788  0.4153
   34MOL    H3312639   4.012   4.922   0.672  1.6273 -0.5701  1.3863
   34MOL    H3412640   3.992   4.899   0.903 -2.1027 -0.6435  1.5477
   34MOL    H3512641   3.837   4.895   0.839  0.2512 -1.2413  1.3080
   34MOL    H3612642   3.899   5.047   0.921 -0.1152  2.2772 -2.0349
   34MOL    H3712643   3.800   5.149   0.678 -1.8279 -2.3554  1.1621
   34MOL    H3812644   3.888   5.098   0.527 -2.9600  2.5419  0.2166
   34MOL    H3912645   3.774   4.998   0.632  0.6434 -1.0901  1.5370
   34MOL    C4012646   4.198   5.411   0.760  0.4073 -0.0844  0.0023
   34MOL    C4112647   4.334   5.471   0.777  0.5962  0.0325  0.2757
   34MOL    O4212648   4.319   5.568   0.883  0.0599  0.4082  0.2059
   34MOL    C4312649   4.438   5.611   0.950  0.1847 -0.5190  0.2511
   34MOL    C4412650   4.400   5.736   1.033 -0.1255  0.2522 -0.5710
   34MOL    C4512651   4.344   5.847   0.941  0.6473 -0.3649  0.9246
   34MOL    C4612652   4.290   5.712   1.140  0.6815 -0.6166  0.0967
   34MOL    H4712653   4.120   5.487   0.770 -0.4763 -0.5980 -2.5735
   34MOL    H4812654   4.179   5.373   0.660  1.3692  3.4845 -1.6249
   34MOL    H4912655   4.402   5.387   0.797  1.0736  0.5674  0.9252
   34MOL    H5012656   4.523   5.636   0.887 -1.7086  0.7361 -1.8692
   34MOL    H5112657   4.478   5.534   1.016  2.6018  1.3383  1.0576
   34MOL    H5212658   4.488   5.777   1.082  0.1918 -2.0372  0.8465
   34MOL    H5312659   4.337   5.939   0.999 -1.7834 -1.9632  3.3173
   34MOL    H5412660   4.406   5.874   0.855 -0.9062 -0.7812 -0.3547
   34MOL    H5512661   4.243   5.822   0.909  1.1660  0.3892 -1.4048
   34MOL    H5612662   4.240   5.802   1.176 -1.4152 -1.2625 -1.1494
   34MOL    H5712663   4.321   5.644   1.220  1.4115 -0.9376 -0.4489
   34MOL    H5812664   4.204   5.677   1.084  1.1316 -3.0169  0.8440
   34MOL    C5912665   4.374   5.563   0.658  0.1746 -0.4588  0.2631
   34MOL    C6012666   4.394   5.495   0.523 -0.0944  1.0580 -0.5938
   34MOL    O6112667   4.502   5.403   0.529  0.1761 -0.2109  0.1100
   34MOL    C6212668   4.467   5.272   0.527 -0.6686 -0.6667 -0.3214
   34MOL    C6312669   4.572   5.178   0.585  0.8664 -0.7668 -0.4801
   34MOL    C6412670   4.576   5.200   0.735 -0.1462 -0.0604  0.4644
   34MOL    C6512671   4.541   5.038   0.541 -0.7757 -0.5526 -0.1291
   34MOL    H6612672   4.470   5.606   0.689 -0.4971  1.5970 -0.3951
   34MOL    H6712673   4.304   5.646   0.644 -1.1517 -1.6703 -0.3192
   34MOL    H6812674   4.303   5.439   0.501  0.0660  1.8365 -3.3841
   34MOL    H6912675   4.377   5.243   0.582  0.3309 -1.6574  0.7993
   34MOL    H7012676   4.448   5.235   0.426  1.0271 -1.8760 -0.2200
   34MOL    H7112677   4.668   5.209   0.546  0.5109  0.6541 -0.2336
   34MOL    H7212678   4.604   5.304   0.753 -1.2028  0.4580 -0.8539
   34MOL    H7312679   4.650   5.138   0.788 -0.4319 -1.2424 -0.5065
   34MOL    H7412680   4.487   5.188   0.796 -0.3374  0.9456  0.3767
   34MOL    H7512681   4.575   5.039   0.437  1.6766 -1.3986  0.6341
   34MOL    H7612682   4.607   4.980   0.605  1.0725  0.1731 -1.3113
   34MOL    H7712683   4.434   5.019   0.542 -0.9871  0.5073 -1.0797
   34MOL    C7812684   4.418   5.602   0.420 -0.2331 -0.2463 -1.2107
   34MOL    C7912685   4.397   5.558   0.273  0.1541  0.3254 -0.6106
   34MOL    O8012686   4.260   5.528   0.257  0.3370  0.8592  0.0192
   34MOL    C8112687   4.236   5.408   0.183  0.2275  0.4340  0.9512
   34MOL    C8212688   4.084   5.376   0.188 -0.8002 -0.2360 -0.4330
   34MOL    C8312689   4.041   5.344   0.332 -0.0283  0.1706  0.1429
   34MOL    C8412690   4.050   5.271   0.082  0.2910  0.8515 -0.5372
   34MOL    H8512691   4.520   5.631   0.443  0.1903 -2.4127 -0.2007
   34MOL    H8612692   4.351   5.684   0.445 -2.2498 -2.4722  0.9786
   34MOL    H8712693   4.462   5.473   0.254  1.2935  0.3304  2.8777
   34MOL    H8812694   4.257   5.429   0.078  2.3761  0.0707  1.2875
   34MOL    H8912695   4.295   5.323   0.217  1.2028  1.1123  0.9703
   34MOL    H9012696   4.019   5.458   0.158 -0.0520  1.0026  1.2429
   34MOL    H9112697   4.066   5.247   0.375  4.1203  1.0875 -0.0401
   34MOL    H9212698   3.932   5.334   0.325  0.1687 -0.6480 -2.8482
   34MOL    H9312699   4.074   5.423   0.399  1.0670  0.7695 -1.0739
   34MOL    H9412700   4.112   5.302   7.822 -0.1491 -0.4836 -1.3743
   34MOL    H9512701   3.944   5.270   0.056  0.1160 -0.7216  0.1826
   34MOL    H9612702   4.075   5.173   0.123 -2.4920  0.4269  0.2045
   34MOL    C9712703   4.437   5.676   0.177 -0.0516  0.6174 -0.2714
   34MOL    C9812704   4.412   5.655   0.025 -0.3300 -0.0931 -0.3338
   34MOL    O9912705   4.502   5.744   7.776  0.4110  0.4934  0.7078
   34MOL   C10012706   4.621   5.684   7.749  0.0224 -0.3500 -0.1445
   34MOL   C10112707   4.735   5.789   7.734  0.5152 -0.2599 -0.1997
   34MOL   C10212708   4.706   5.899   7.629  0.6211 -0.4344 -0.1223
   34MOL   C10312709   4.774   5.861   0.043  0.1182  0.6473 -0.2930
   34MOL   H10412710   4.541   5.706   0.187  0.2866 -1.4536  3.0276
   34MOL   H10512711   4.380   5.765   0.202 -3.1570 -1.1193 -0.9418
   34MOL   H10612712   4.430   5.551   7.820 -2.5828 -0.2122 -1.3415
   34MOL   H10712713   4.604   5.629   7.656 -0.5710 -0.4602  0.0250
   34MOL   H10812714   4.667   5.612   7.816 -0.8195 -0.6521  0.1167
   34MOL   H10912715   4.825   5.736   7.702  0.8388  0.0153  0.2520
   34MOL   H11012716   4.620   5.963   7.648  0.8440 -0.2918  0.4009
   34MOL   H11112717   4.787   5.964   7.597 -0.0639 -0.9422 -3.0138
   34MOL   H11212718   4.687   5.839   7.540  1.0214 -2.4634  1.1079
   34MOL   H11312719   4.848   5.939   0.031 -0.6912  1.4053 -0.4172
   34MOL   H11412720   4.691   5.926   0.073  0.1250  0.3057  0.4992
   34MOL   H11512721   4.798   5.800   0.131 -0.2626 -0.9339 -1.2607
   34MOL   C11612722   4.275   5.704   7.805  0.2202 -0.0236  0.0693
   34MOL   C11712723   4.249   5.668   7.658  0.3834  0.1329  0.1266
   34MOL   O11812724   4.255   5.529   7.648 -0.4061 -0.4966 -0.4695
   34MOL   C11912725   4.306   5.480   7.525  0.2148 -0.2058 -0.4281
   34MOL   C12012726   4.279   5.331   7.511 -0.3387 -0.0683 -0.2565
   34MOL   C12112727   4.129   5.297   7.516  0.1010 -0.2463 -0.5153
   34MOL   C12212728   4.346   5.270   7.388  0.2969 -0.1042 -0.1281
   34MOL   H12312729   4.194   5.667   0.043  0.4063 -0.2945  0.1474
   34MOL   H12412730   4.257   5.811   7.816 -0.0058 -0.0553  0.0198
   34MOL   H12512731   4.333   5.708   7.602  0.2594 -0.6056 -0.5911
   34MOL   H12612732   4.415   5.487   7.527  0.2285 -0.5021 -0.1460
   34MOL   H12712733   4.278   5.533   7.434  1.3012  0.1818 -0.5377
   34MOL   H12812734   4.334   5.279   7.589  0.7837  1.1773 -0.1846
   34MOL   H12912735   4.105   5.194   7.488  0.2721  0.4414 -3.3844
   34MOL   H13012736   4.083   5.355   7.436 -0.2270  1.9274  1.2151
   34MOL   H13112737   4.079   5.334   7.605  0.7900  0.7404 -0.5285
   34MOL   H13212738   4.360   5.164   7.407  0.8015  0.2198  1.3265
   34MOL   H13312739   4.298   5.279   7.290  0.7608 -1.1166 -0.4517
   34MOL   H13412740   4.437   5.328   7.369  1.5011 -1.9301 -0.0649
   34MOL   C13512741   4.107   5.713   7.592  0.4442 -0.4385 -0.6564
   34MOL   C13612742   4.079   5.863   7.576 -0.0329  0.1915 -0.3985
   34MOL   O13712743   4.182   5.924   7.504  0.0880  0.0875  0.6604
   34MOL   C13812744   4.252   6.035   7.564  0.6837 -1.0553 -0.0572
   34MOL   C13912745   4.378   6.042   7.471 -0.3172  0.5768 -0.8640
   34MOL   C14012746   4.347   6.091   7.329  0.8250 -0.1065 -0.4812
   34MOL   C14112747   4.477   6.146   7.535  1.1266  0.1527  0.0237
   34MOL   H14212748   4.087   5.663   7.497  0.7865  0.7772 -1.3853
   34MOL   H14312749   4.036   5.677   7.667  0.0272  0.2015 -0.7390
   34MOL   H14412750   4.064   5.908   7.674  1.4032  1.1277 -0.5941
   34MOL   H14512751   4.275   6.008   7.667 -0.8763  1.4055  0.9709
   34MOL   H14612752   4.202   6.132   7.561  2.4271 -0.0892  1.0911
   34MOL   H14712753   4.410   5.938   7.483 -0.0457  0.7863  0.2480
   34MOL   H14812754   4.311   6.193   7.333 -2.7634 -1.3413  0.9440
   34MOL   H14912755   4.258   6.035   7.297  0.4119  0.3462 -0.1323
   34MOL   H15012756   4.424   6.085   7.252  0.3474  3.2976 -1.2809
   34MOL   H15112757   4.479   6.127   7.643 -0.1947  0.2396  0.0622
   34MOL   H15212758   4.579   6.141   7.497  0.8112 -2.7211 -0.5648
   34MOL   H15312759   4.444   6.244   7.504  0.5352  0.3218  1.1520
   34MOL   C15412760   3.963   5.897   7.486 -0.3822  0.3213  0.4894
   34MOL   C15512761   3.834   5.834   7.521 -0.3272 -0.2499  0.1954
   34MOL   O15612762   3.810   5.829   7.663 -0.1001  1.0311 -0.5942
   34MOL   C15712763   3.735   5.712   7.712  0.0135 -0.5447  0.1925
   34MOL   C15812764   3.722   5.707   0.036 -0.2897  0.0336  0.6546
   34MOL   C15912765   3.611   5.601   0.078 -0.3242  0.2029  0.2563
   34MOL   C16012766   3.849   5.667   0.112  0.1001 -0.4409  0.1917
   34MOL   H16112767   3.991   5.871   7.384 -4.0692 -0.6392 -0.3735
   34MOL   H16212768   3.952   6.005   7.493  2.9617  0.6538  1.0077
   34MOL   H16312769   3.827   5.731   7.486  1.3016 -0.3644  0.1418
   34MOL   H16412770   3.771   5.620   7.667 -1.6084 -1.3676  0.5408
   34MOL   H16512771   3.637   5.724   7.666 -0.1760  1.8972  1.1337
   34MOL   H16612772   3.687   5.806   0.065  0.3393  0.5194 -0.2202
   34MOL   H16712773   3.606   5.613   0.186  0.8157  0.0594  0.3286
   34MOL   H16812774   3.637   5.500   0.046  2.4313  0.1152  2.6569
   34MOL   H16912775   3.517   5.618   0.025 -0.5082 -0.3114  0.4192
   34MOL   H17012776   3.938   5.730   0.110 -1.5494  2.0737  1.5309
   34MOL   H17112777   3.825   5.639   0.215 -2.1068 -1.2425 -0.5125
   34MOL   H17212778   3.880   5.576   0.062 -2.0665 -1.8831  1.4232
   34MOL   C17312779   3.717   5.908   7.453 -0.3966  0.1363  0.1893
   34MOL   C17412780   3.695   5.915   7.297  0.5873 -0.8499  0.4559
   34MOL   O17512781   3.814   5.982   7.240 -0.3250  0.1481 -0.4136
   34MOL   C17612782   3.790   6.114   7.191  0.2264 -0.1028  0.8702
   34MOL   C17712783   3.918   6.191   7.154 -0.2789 -0.7680  0.2215
   34MOL   C17812784   4.011   6.201   7.274  0.1155 -0.3422 -0.1829
   34MOL   C17912785   3.986   6.115   7.040 -0.2369 -0.0004  0.3769
   34MOL   H18012786   3.627   5.863   7.496  0.2288  1.4345  2.9275
   34MOL   H18112787   3.711   6.009   7.494  1.0402 -0.3466  1.6524
   34MOL   H18212788   3.608   5.967   7.258 -0.7350 -3.9611 -0.9063
   34MOL   H18312789   3.732   6.167   7.266 -1.2837 -0.4740 -0.0110
   34MOL   H18412790   3.733   6.097   7.100 -0.5518 -1.2213  1.5480
   34MOL   H18512791   3.902   6.294   7.121  4.3018 -0.7266 -2.2699
   34MOL   H18612792   4.098   6.267   7.267 -0.7616  0.8326 -0.0756
   34MOL   H18712793   3.962   6.245   7.361  0.8690 -2.0121  1.1046
   34MOL   H18812794   4.035   6.104   7.316 -0.6762  0.2935  1.7869
   34MOL   H18912795   3.951   6.148   6.942 -3.4048  0.5949  1.6460
   34MOL   H19012796   3.968   6.007   7.048 -1.0377  0.0864 -0.1241
   34MOL   H19112797   4.091   6.137   7.057  0.0506 -2.4753  2.2594
   34MOL   C19212798   3.691   5.774   7.235  0.4805  0.0976 -0.2313
   34MOL   C19312799   3.557   5.699   7.229 -0.5470 -0.5671  0.4720
   34MOL   O19412800   3.491   5.700   7.358  0.4839 -0.5184  0.2642
   34MOL   C19512801   3.349   5.704   7.350 -0.2475  0.3852  0.4311
   34MOL   C19612802   3.279   5.708   7.483 -0.1331 -0.0005  0.5298
   34MOL   C19712803   3.307   5.846   7.547 -0.4033  0.3491  0.7949
   34MOL   C19812804   3.327   5.611   7.586  0.7233  0.3502 -0.5410
   34MOL   H19912805   3.767   5.703   7.266  1.1459  1.0794  0.4154
   34MOL   H20012806   3.720   5.793   7.132 -1.6889  0.6510 -0.7626
   34MOL   H20112807   3.494   5.745   7.153 -0.4499  0.7850  1.2015
   34MOL   H20212808   3.305   5.639   7.275 -1.5354  1.4152  0.2797
   34MOL   H20312809   3.326   5.798   7.299 -0.0271  1.2803  1.9400
   34MOL   H20412810   3.172   5.689   7.472 -0.1631  0.1095  0.6175
   34MOL   H20512811   3.285   5.933   7.484 -1.2023  0.1946  0.8513
   34MOL   H20612812   3.244   5.865   7.634 -1.4355  1.0970 -0.0935
   34MOL   H20712813   3.412   5.856   7.573  0.3037 -0.2018 -1.7255
   34MOL   H20812814   3.424   5.637   7.629  1.0188  1.2875 -1.7617
   34MOL   H20912815   3.251   5.611   7.664  1.0353 -2.7986 -0.1541
   34MOL   H21012816   3.335   5.510   7.546 -0.2988 -0.4785  1.2535
   34MOL   C21112817   3.558   5.554   7.174  0.1601 -0.1099  0.5657
   34MOL   C21212818   3.629   5.534   7.034 -0.6810  0.0201  0.3342
   34MOL   O21312819   3.763   5.507   7.062 -0.1711  0.2185  0.3778
   34MOL   C21412820   3.857   5.562   6.967  0.0463  0.0596 -0.5490
   34MOL   C21512821   3.978   5.474   6.988  0.1908  0.3516 -0.1127
   34MOL   C21612822   4.106   5.497   6.896 -0.3775  0.1761  0.5940
   34MOL   C21712823   4.030   5.486   7.135 -1.0715 -0.0870  0.2042
   34MOL   H21812824   3.456   5.517   7.171  0.1728 -0.0942 -0.4356
   34MOL   H21912825   3.613   5.492   7.244  0.4420 -0.3194  0.1623
   34MOL   H22012826   3.622   5.622   6.971  1.3840  0.7396  1.1008
   34MOL   H22112827   3.871   5.669   6.983 -1.3209  0.2963 -0.8176
   34MOL   H22212828   3.820   5.556   6.865 -0.0273  0.5443 -0.5507
   34MOL   H22312829   3.953   5.368   6.977  3.7034 -0.5694 -0.0019
   34MOL   H22412830   4.160   5.592   6.899  1.8315 -1.0431  0.8426
   34MOL   H22512831   4.182   5.422   6.919 -0.4823 -0.7525 -1.8892
   34MOL   H22612832   4.074   5.480   6.793  1.5142  0.4799 -0.0659
   34MOL   H22712833   4.123   5.431   7.149 -0.3908  0.9562 -0.1799
   34MOL   H22812834   3.953   5.453   7.205 -1.9816  2.9174  0.6814
   34MOL   H22912835   4.040   5.592   7.160 -1.6255  0.1352 -0.5034
   34MOL   C23012836   3.577   5.414   6.948 -0.0006 -0.4394 -0.5130
   34MOL   C23112837   3.447   5.440   6.874 -0.0877 -0.6778 -0.1056
   34MOL   O23212838   3.348   5.499   6.955  0.0882  0.3697  0.2754
   34MOL   C23312839   3.209   5.460   6.922 -1.0916 -0.0991  0.2566
   34MOL   C23412840   3.106   5.525   7.017 -0.1215  0.2048  0.9545
   34MOL   C23512841   3.101   5.679   7.007  1.2552  0.6645  0.4343
   34MOL   C23612842   2.969   5.463   6.986  0.6707  0.5478  0.1453
   34MOL   H23712843   3.574   5.333   7.021  0.6951 -0.2232 -0.2331
   34MOL   H23812844   3.649   5.378   6.874 -0.0211  0.0463 -0.7695
   34MOL   H23912845   3.413   5.342   6.839  0.5972 -0.7656 -0.5316
   34MOL   H24012846   3.189   5.487   6.819  3.0357 -2.0225 -1.1564
   34MOL   H24112847   3.198   5.352   6.935 -0.6043 -0.1483  0.2677
   34MOL   H24212848   3.137   5.493   7.117 -2.0095 -1.2913  1.0875
   34MOL   H24312849   3.036   5.716   7.087 -0.6150 -1.6088  0.0581
   34MOL   H24412850   3.058   5.729   6.920  0.9290 -3.6494 -2.0281
   34MOL   H24512851   3.205   5.708   7.015  1.5154  0.8026 -2.8861
   34MOL   H24612852   2.905   5.468   7.074 -0.9339  1.1020 -1.0398
   34MOL   H24712853   2.919   5.510   6.902  3.4635 -0.5254 -2.2403
   34MOL   H24812854   2.977   5.355   6.976 -1.3854  0.3215  0.8174
   34MOL   C24912855   3.463   5.522   6.746 -0.4561 -0.3466  0.5340
   34MOL   C25012856   3.575   5.488   6.642 -0.5438  0.6986 -0.0041
   34MOL   O25112857   3.567   5.350   6.604  0.1157 -0.0136  0.5062
   34MOL   C25212858   3.684   5.299   6.546  0.0503  0.3194  0.2556
   34MOL   C25312859   3.703   5.146   6.580 -0.1067 -0.1691  0.4296
   34MOL   C25412860   3.579   5.071   6.540  0.3631  0.0981  0.4064
   34MOL   C25512861   3.749   5.125   6.727  0.7331 -0.2126 -0.2087
   34MOL   H25612862   3.467   5.627   6.777  0.5793 -0.5756  1.2095
   34MOL   H25712863   3.374   5.509   6.685 -0.3272  0.2348  0.2144
   34MOL   H25812864   3.671   5.527   6.676 -0.6972  0.7042  0.4351
   34MOL   H25912865   3.674   5.314   6.438  0.5692 -1.0307  0.0155
   34MOL   H26012866   3.772   5.345   6.592 -0.0655  1.6890 -0.8576
   34MOL   H26112867   3.783   5.126   6.509 -1.0814 -2.0394 -0.1428
   34MOL   H26212868   3.559   5.071   6.433  1.7049 -2.7260  0.1131
   34MOL   H26312869   3.487   5.109   6.585 -0.3988  0.3991 -1.3726
   34MOL   H26412870   3.587   4.964   6.560 -1.1360 -0.7934 -3.3312
   34MOL   H26512871   3.775   5.020   6.740 -2.7541 -0.9521  1.4714
   34MOL   H26612872   3.833   5.191   6.744  0.2862  0.4008 -0.3335
   34MOL   H26712873   3.659   5.147   6.785  1.2884 -0.3631  0.7092
   34MOL   C26812874   3.527   5.552   6.500  0.2156  0.3226 -0.4532
   34MOL   C26912875   3.629   5.647   6.434 -0.1662  0.2922 -0.2242
   34MOL   O27012876   3.646   5.758   6.528 -0.0213 -0.4223 -0.4895
   34MOL   C27112877   3.776   5.789   6.584  0.1144  0.0930 -0.6169
   34MOL   C27212878   3.774   5.915   6.672  0.1674 -0.1299 -0.4236
   34MOL   C27312879   3.694   5.889   6.807  0.1505 -0.1362  0.4848
   34MOL   C27412880   3.917   5.964   6.705 -0.7009 -0.3144  0.3549
   34MOL   H27512881   3.428   5.597   6.501 -0.6158 -1.4676 -0.5999
   34MOL   H27612882   3.513   5.483   6.417  1.2222 -0.2448 -0.1679
   34MOL   H27712883   3.723   5.593   6.426 -0.4051  0.1111 -2.0684
   34MOL   H27812884   3.812   5.710   6.649  0.2337  0.3079 -0.4214
   34MOL   H27912885   3.844   5.806   6.501 -1.0535  1.3411 -1.3517
   34MOL   H28012886   3.717   5.992   6.620  0.7085  0.5620 -0.0137
   34MOL   H28112887   3.764   5.843   6.876  0.0737  0.1863  0.7824
   34MOL   H28212888   3.623   5.811   6.782  0.6235 -1.9851  4.4767
   34MOL   H28312889   3.650   5.982   6.843 -2.6017 -1.2471  0.0956
   34MOL   H28412890   3.950   5.907   6.792 -1.2439  0.3795  1.0150
   34MOL   H28512891   3.918   6.066   6.742 -1.2289 -0.2373  0.1578
   34MOL   H28612892   3.979   5.958   6.616  0.9126 -1.8854  1.5508
   34MOL   C28712893   3.584   5.703   6.302  0.1684  0.5460 -0.4254
   34MOL   C28812894   3.687   5.784   6.217  0.2661  0.5449 -0.2578
   34MOL   O28912895   3.634   5.811   6.089 -0.1190 -0.1550 -0.0016
   34MOL   C29012896   3.507   5.870   6.077  0.2051 -0.0524  0.1772
   34MOL   C29112897   3.497   6.018   6.119 -0.8146  0.9675  0.3220
   34MOL   C29212898   3.362   6.074   6.088 -0.1434  0.2478  0.1765
   34MOL   C29312899   3.615   6.106   6.065 -0.2471 -0.0120 -0.3437
   34MOL   H29412900   3.490   5.757   6.317 -0.3758 -0.8374  1.3340
   34MOL   H29512901   3.552   5.622   6.236 -0.3734  2.9586 -3.2481
   34MOL   H29612902   3.708   5.883   6.258 -0.3246  0.8913 -0.7801
   34MOL   H29712903   3.489   5.866   5.970  0.0274  2.3333  0.1062
   34MOL   H29812904   3.426   5.810   6.118  0.3336 -0.4686 -0.1771
   34MOL   H29912905   3.506   6.011   6.228  2.3731 -1.1550  0.0034
   34MOL   H30012906   3.282   6.008   6.120 -0.2734  0.0644 -0.5257
   34MOL   H30112907   3.356   6.081   5.979 -1.3101 -5.2194 -0.2388
   34MOL   H30212908   3.353   6.173   6.133  2.7876  1.5445 -1.8913
   34MOL   H30312909   3.604   6.128   5.959  2.0375 -0.0404 -0.6202
   34MOL   H30412910   3.627   6.199   6.120  1.5140 -0.6120  0.3339
   34MOL   H30512911   3.709   6.050   6.063  0.7617  1.6811 -0.6673
   34MOL   C30612912   3.827   5.724   6.198 -0.2831 -0.3906  0.2329
   34MOL   C30712913   3.909   5.826   6.118 -0.1876  0.5307 -0.3902
   34MOL   O30812914   3.945   5.916   6.225  0.2615  0.0268  0.0887
   34MOL   C30912915   3.981   6.042   6.175 -0.0338 -0.0439  0.2324
   34MOL   C31012916   4.014   6.116   6.298  0.2985 -0.2644 -0.0961
   34MOL   C31112917   4.140   6.062   6.375 -0.0554 -0.2561 -0.1664
   34MOL   C31212918   3.898   6.127   6.398 -0.4903  0.2068 -0.0926
   34MOL   H31312919   3.807   5.634   6.139 -0.4078 -0.3018  0.1399
   34MOL   H31412920   3.870   5.680   6.289  1.5662  0.7837 -0.0638
   34MOL   H31512921   3.856   5.880   6.039 -1.5168  0.9410  0.7524
   34MOL   H31612922   3.904   6.078   6.106 -0.4575 -2.8193 -0.7998
   34MOL   H31712923   4.072   6.042   6.114 -0.5229  1.0602 -0.5125
   34MOL   H31812924   4.037   6.219   6.271 -0.3521 -0.2248 -0.4888
   34MOL   H31912925   4.162   6.125   6.461 -2.5282 -0.6352  0.7842
   34MOL   H32012926   4.225   6.058   6.307 -0.1238  0.9658 -0.3407
   34MOL   H32112927   4.118   5.963   6.415 -1.6381 -1.2354 -3.3038
   34MOL   H32212928   3.920   6.175   6.493 -0.2722  1.1419 -0.6097
   34MOL   H32312929   3.846   6.032   6.409 -0.1464  0.0913  0.5207
   34MOL   H32412930   3.821   6.198   6.368  0.0635  1.2124  0.8553
   34MOL   C32512931   4.039   5.751   6.073 -0.3429 -0.2085  0.2044
   34MOL   C32612932   4.032   5.656   5.945 -0.0720 -0.4296  0.3763
   34MOL   O32712933   3.956   5.724   5.844  0.4264  0.3342  0.7078
   34MOL   C32812934   3.831   5.682   5.815  1.0030 -0.4459  0.2726
   34MOL   C32912935   3.776   5.786   5.712 -0.2657 -0.6029  0.0629
   34MOL   C33012936   3.757   5.924   5.771  0.2425 -0.5977  1.0295
   34MOL   C33112937   3.861   5.794   5.582  0.3272 -0.0798 -0.2640
   34MOL   H33212938   4.073   5.702   6.164  1.1743 -1.0327 -0.7886
   34MOL   H33312939   4.115   5.823   6.044  1.1041 -2.2171 -1.1388
   34MOL   H33412940   3.992   5.560   5.976 -1.7936 -0.4203 -1.6578
   34MOL   H33512941   3.830   5.580   5.776 -0.3026 -0.2129 -0.3220
   34MOL   H33612942   3.765   5.683   5.902  0.0309 -0.4407 -0.4642
   34MOL   H33712943   3.676   5.747   5.690 -0.5530 -0.8241  1.7057
   34MOL   H33812944   3.675   5.929   5.843  1.8648  0.5445  2.8376
   34MOL   H33912945   3.850   5.964   5.810  2.1902 -3.8933 -0.1163
   34MOL   H34012946   3.720   5.993   5.695  0.1892 -1.2530  0.4592
   34MOL   H34112947   3.910   5.891   5.580  0.4141 -0.1248 -0.3215
   34MOL   H34212948   3.937   5.716   5.583  1.7227  1.2518  1.6450
   34MOL   H34312949   3.806   5.791   5.488  0.3543  0.1433 -0.2868
   34MOL   C34412950   4.165   5.618   5.869  0.2523 -0.3279  0.1774
   34MOL   C34512951   4.278   5.572   5.959 -0.5745 -0.1242 -0.3605
   34MOL   O34612952   4.227   5.465   6.037  0.3247 -0.6060 -0.0147
   34MOL   C34712953   4.322   5.424   6.133  0.3828 -0.2560 -0.9124
   34MOL   C34812954   4.261   5.325   6.221 -0.0358  0.3726  0.0535
   34MOL   C34912955   4.238   5.194   6.142 -0.0061  0.4904  0.2799
   34MOL   C35012956   4.124   5.371   6.276  0.0615  0.3209  0.6100
   34MOL   H35112957   4.195   5.708   5.817 -2.6806  0.2079 -0.6594
   34MOL   H35212958   4.134   5.554   5.786  1.7975  0.7830 -1.2765
   34MOL   H35312959   4.310   5.651   6.027 -2.7348 -0.9912  1.7053
   34MOL   H35412960   4.349   5.511   6.192  0.3685 -0.9187  0.0700
   34MOL   H35512961   4.408   5.376   6.086 -0.1072 -0.6037 -1.4645
   34MOL   H35612962   4.327   5.313   6.306 -0.1955  0.4296  0.1859
   34MOL   H35712963   4.323   5.131   6.169  0.7208  1.6721  0.8020
   34MOL   H35812964   4.245   5.205   6.034  0.4651  0.9811  0.3540
   34MOL   H35912965   4.144   5.143   6.161 -0.5680  1.3502 -0.1817
   34MOL   H36012966   4.123   5.467   6.328  0.6722  0.8302 -0.3049
   34MOL   H36112967   4.039   5.353   6.211 -0.2825 -0.0331  1.1481
   34MOL   H36212968   4.099   5.297   6.353 -1.2092 -1.1464 -1.1725
   34MOL   C36312969   4.392   5.540   5.866  0.3871 -0.2200 -0.2926
   34MOL   C36412970   4.361   5.405   5.802 -0.3647  0.4334  0.8839
   34MOL   O36512971   4.472   5.376   5.720 -0.0441  0.1314 -0.2675
   34MOL   C36612972   4.480   5.243   5.674  0.0278 -0.5571 -0.3084
   34MOL   C36712973   4.592   5.218   5.574 -0.1876  0.3326 -0.7108
   34MOL   C36812974   4.566   5.081   5.511  0.0836  0.2331 -0.3945
   34MOL   C36912975   4.735   5.233   5.633  0.0297  0.9050 -0.4810
   34MOL   H37012976   4.408   5.622   5.796  2.8734  0.1952  0.7128
   34MOL   H37112977   4.490   5.538   5.915  0.3258 -0.9083 -0.1909
   34MOL   H37212978   4.267   5.404   5.747  0.9347 -0.9445 -1.4022
   34MOL   H37312979   4.497   5.170   5.753  0.5587 -2.1004 -1.8166
   34MOL   H37412980   4.384   5.216   5.631 -2.0773 -2.1852  4.9859
   34MOL   H37512981   4.587   5.287   5.489 -2.9408 -0.4719 -1.2303
   34MOL   H37612982   4.645   5.048   5.443 -0.4548 -0.4041 -0.7064
   34MOL   H37712983   4.469   5.057   5.469  0.5149 -1.1118 -0.6277
   34MOL   H37812984   4.576   5.012   5.594  3.7917 -1.0102 -1.7712
   34MOL   H37912985   4.749   5.162   5.715  1.8349  2.3046  0.4525
   34MOL   H38012986   4.748   5.334   5.670  3.0236  0.3985 -0.0496
   34MOL   H38112987   4.804   5.225   5.549 -1.3427  0.4431 -1.5810
   34MOL   H38212988   4.362   5.326   5.877 -0.4294 -0.3401  0.0767
   35MOL     C112989   3.565   6.980   7.549 -0.4383  0.3281 -0.4190
   35MOL     C212990   3.518   7.095   7.467 -0.0011  0.1905  0.7678
   35MOL     O312991   3.577   7.095   7.334  0.4200  0.0958 -0.1081
   35MOL     C412992   3.573   7.218   7.261 -0.0687 -0.1212  0.2141
   35MOL     C512993   3.618   7.201   7.118 -0.6390  0.2875  0.0453
   35MOL     C612994   3.586   7.322   7.041  0.5159 -0.0410  0.7265
   35MOL     C712995   3.547   7.087   7.044  0.1085 -0.2581  0.0639
   35MOL     H812996   3.505   6.891   7.527  0.8852 -0.7615  0.3256
   35MOL     H912997   3.670   6.951   7.548 -0.4254  0.3756 -0.6152
   35MOL    H1012998   3.557   7.183   7.519 -0.2433  0.5501  0.3562
   35MOL    H1112999   3.640   7.288   7.312 -2.7494  1.8537  1.1692
   35MOL    H1213000   3.472   7.258   7.269 -0.8969 -2.2052  0.2407
   35MOL    H1313001   3.726   7.183   7.119 -0.9251 -1.7461 -2.1991
   35MOL    H1413002   3.607   7.307   6.935 -0.1472 -2.3555  0.8829
   35MOL    H1513003   3.486   7.363   7.030  0.6504 -0.1314 -1.0472
   35MOL    H1613004   3.650   7.404   7.072 -3.9923  3.6948  0.6384
   35MOL    H1713005   3.449   7.115   7.006 -0.2232 -3.0150 -1.2452
   35MOL    H1813006   3.612   7.057   6.961  1.3566  1.5449  0.3555
   35MOL    H1913007   3.529   7.003   7.110 -1.4747 -0.8831 -1.1298
   35MOL    H2013008   3.544   6.994   7.655 -1.0466 -0.9609 -0.3579
   35MOL    C2113009   3.368   7.086   7.448  0.0944 -0.2548  0.4093
   35MOL    C2213010   3.285   7.115   7.570 -0.4430 -0.2195  0.2979
   35MOL    O2313011   3.327   7.251   7.603 -0.1569  0.4327  0.1956
   35MOL    C2413012   3.345   7.275   7.740 -0.4941  0.1511 -0.3326
   35MOL    C2513013   3.370   7.428   7.759  0.4818  0.3617  0.0786
   35MOL    C2613014   3.498   7.480   7.688 -0.2195 -0.0338 -0.2815
   35MOL    C2713015   3.251   7.513   7.732 -0.6096 -0.1055  0.1811
   35MOL    H2813016   3.346   7.179   7.394  1.4781  0.4792  1.0774
   35MOL    H2913017   3.337   6.996   7.396  1.3048 -0.2907 -0.2442
   35MOL    H3013018   3.309   7.038   7.644  1.0397 -1.3181 -1.2620
   35MOL    H3113019   3.433   7.217   7.768 -2.0944 -2.9273 -1.4756
   35MOL    H3213020   3.262   7.248   7.805 -0.4772  0.9910  0.0511
   35MOL    H3313021   3.386   7.446   0.041 -1.2251  0.1430  0.3843
   35MOL    H3413022   3.582   7.434   7.741 -1.9603 -2.6998  0.2324
   35MOL    H3513023   3.502   7.588   7.677  1.7689 -0.3251 -2.9915
   35MOL    H3613024   3.511   7.430   7.593  1.4965  1.0041 -0.6235
   35MOL    H3713025   3.269   7.620   7.743 -1.1877 -0.1532  1.6575
   35MOL    H3813026   3.228   7.513   7.625  1.3762 -2.1729 -0.2946
   35MOL    H3913027   3.157   7.477   7.772  1.0380 -1.6821  2.7469
   35MOL    C4013028   3.130   7.136   7.543 -0.0111 -0.4718 -0.3264
   35MOL    C4113029   3.043   7.134   7.667  0.0562  0.3576 -0.7830
   35MOL    O4213030   3.084   7.029   7.754  0.4403 -0.1315 -0.2271
   35MOL    C4313031   3.030   7.042   0.065 -0.2093 -0.2336  0.1141
   35MOL    C4413032   3.112   6.947   0.160  0.6768  0.0042 -0.3627
   35MOL    C4513033   3.101   6.801   0.111 -0.3305  0.6241 -0.0250
   35MOL    C4613034   3.253   6.991   0.173  0.0263  0.0262  0.1861
   35MOL    H4713035   3.090   7.057   7.480 -1.1587 -0.3255  0.1907
   35MOL    H4813036   3.115   7.228   7.487  1.7013 -0.5594 -0.9236
   35MOL    H4913037   3.040   7.230   7.717 -0.4667  0.5069 -1.0945
   35MOL    H5013038   2.924   7.018   0.070  0.1565 -1.8607  0.2604
   35MOL    H5113039   3.046   7.143   0.103 -0.9726 -0.0166 -0.1300
   35MOL    H5213040   3.051   6.949   0.251  1.1398 -2.8711  0.0802
   35MOL    H5313041   3.001   6.763   0.089  0.1362 -0.1252 -0.8907
   35MOL    H5413042   3.170   6.786   0.028  0.5770  0.9345  0.6680
   35MOL    H5513043   3.143   6.735   0.187  3.1590  2.0933 -0.6194
   35MOL    H5613044   3.264   7.088   0.222  1.9498 -1.1452  2.1798
   35MOL    H5713045   3.296   7.001   0.074 -0.3381  2.7818  0.2563
   35MOL    H5813046   3.310   6.920   0.234 -1.3805 -2.6236 -1.4872
   35MOL    C5913047   2.899   7.101   7.638  0.7831  0.0429  0.3425
   35MOL    C6013048   2.831   7.209   7.560  0.6609 -0.0740  0.5515
   35MOL    O6113049   2.810   7.317   7.657 -0.2615 -0.2068 -0.2427
   35MOL    C6213050   2.860   7.445   7.624 -0.4974  0.2589  0.3259
   35MOL    C6313051   2.818   7.558   7.718  0.1829 -0.1080  0.1041
   35MOL    C6413052   2.895   7.689   7.695  0.6116  0.5877 -0.5259
   35MOL    C6513053   2.661   7.579   7.707  0.4500 -0.0163  0.7772
   35MOL    H6613054   2.832   7.091   7.724 -0.7917  1.4162 -0.6942
   35MOL    H6713055   2.890   7.004   7.590  2.4094 -1.2163  2.4307
   35MOL    H6813056   2.891   7.243   7.476 -2.8039  0.4287 -1.7763
   35MOL    H6913057   2.968   7.450   7.609 -0.2749  1.1047  2.0876
   35MOL    H7013058   2.823   7.476   7.526 -1.0917  2.3566  1.2038
   35MOL    H7113059   2.823   7.534   0.000 -1.2561  0.3953  0.2994
   35MOL    H7213060   2.870   7.761   7.774  0.4957 -0.6491  0.5947
   35MOL    H7313061   2.864   7.725   7.597  1.7960 -1.0365 -1.5140
   35MOL    H7413062   3.002   7.670   7.692  0.1865 -2.6827  1.7651
   35MOL    H7513063   2.624   7.619   7.613  0.6539 -0.9545  0.2850
   35MOL    H7613064   2.614   7.481   7.717  2.3109 -0.8961  1.1874
   35MOL    H7713065   2.623   7.643   7.786 -2.6497  0.1443 -0.7900
   35MOL    C7813066   2.696   7.167   7.501  0.6204 -0.1816 -0.4396
   35MOL    C7913067   2.714   7.063   7.382 -0.0986 -0.2950  0.3054
   35MOL    O8013068   2.581   7.007   7.350 -0.9433 -0.1413 -0.8607
   35MOL    C8113069   2.552   6.897   7.438 -0.5709 -0.2412  0.7210
   35MOL    C8213070   2.411   6.837   7.427  0.2362  0.2008  0.3448
   35MOL    C8313071   2.303   6.944   7.462  0.2504  0.4946 -0.2317
   35MOL    C8413072   2.403   6.714   7.518 -0.4158 -0.0950  0.2079
   35MOL    H8513073   2.642   7.250   7.455 -0.7655 -1.6572 -1.5527
   35MOL    H8613074   2.634   7.129   7.583  1.5966  0.6958  0.7118
   35MOL    H8713075   2.781   6.982   7.409 -0.4026 -0.8170 -0.5017
   35MOL    H8813076   2.630   6.825   7.413 -0.4571 -0.4287  1.6163
   35MOL    H8913077   2.567   6.925   7.542  2.1740  1.3058 -0.0604
   35MOL    H9013078   2.389   6.812   7.323 -1.8296  1.6735  0.3930
   35MOL    H9113079   2.287   6.961   7.569 -0.5648  2.0623 -0.5927
   35MOL    H9213080   2.204   6.909   7.432 -0.1714  1.8735 -0.4450
   35MOL    H9313081   2.315   7.032   7.399 -0.4026  1.1050  0.4824
   35MOL    H9413082   2.307   6.664   7.520  0.7114 -2.3322 -0.1532
   35MOL    H9513083   2.430   6.730   7.623 -0.0967  1.4453 -0.0870
   35MOL    H9613084   2.481   6.651   7.475  2.1354  1.9862  1.5771
   35MOL    C9713085   2.770   7.122   7.250  0.4025  0.8627 -0.2332
   35MOL    C9813086   2.825   7.035   7.145  0.4745  0.1721  0.6758
   35MOL    O9913087   2.934   7.100   7.083  0.0380  0.1950 -0.2827
   35MOL   C10013088   3.058   7.060   7.137  0.3697  0.2125  0.0215
   35MOL   C10113089   3.161   7.166   7.105  0.4581 -0.0905  0.1707
   35MOL   C10213090   3.185   7.178   6.958  0.1148  0.7995 -0.2847
   35MOL   C10313091   3.136   7.303   7.171  0.2039 -0.6659 -0.2624
   35MOL   H10413092   2.838   7.205   7.270 -0.2669  1.7242 -1.4229
   35MOL   H10513093   2.695   7.193   7.216 -1.8549 -0.6724  1.4311
   35MOL   H10613094   2.861   6.936   7.174 -0.8521 -1.6094 -3.3767
   35MOL   H10713095   3.091   6.964   7.099  1.8015  0.6114  0.2416
   35MOL   H10813096   3.046   7.054   7.245  2.1532  1.4341  0.3007
   35MOL   H10913097   3.261   7.143   7.141  0.7986  1.6967  0.4289
   35MOL   H11013098   3.266   7.245   6.929  1.6035 -0.4903  0.8538
   35MOL   H11113099   3.209   7.085   6.906 -0.8962  1.1900 -1.4802
   35MOL   H11213100   3.102   7.221   6.902 -0.3095 -1.2458 -1.2677
   35MOL   H11313101   3.039   7.342   7.139 -0.1735 -1.1023  0.3524
   35MOL   H11413102   3.139   7.290   7.279  0.2895 -1.7872 -0.3877
   35MOL   H11513103   3.214   7.369   7.132 -1.3380  0.1833 -1.9759
   35MOL   C11613104   2.717   7.001   7.041 -0.3276 -0.2835 -0.3443
   35MOL   C11713105   2.755   6.897   6.938 -0.3217  0.2598  0.3089
   35MOL   O11813106   2.749   6.768   6.998  0.4964 -0.2719 -0.0831
   35MOL   C11913107   2.877   6.709   7.011  0.5518 -0.5673  0.5841
   35MOL   C12013108   2.855   6.583   7.093 -0.2980 -0.8451 -0.8791
   35MOL   C12113109   2.819   6.607   7.242  0.1611 -0.4838  0.0590
   35MOL   C12213110   2.764   6.476   7.034  0.3147 -0.0192 -0.4795
   35MOL   H12313111   2.627   6.959   7.086 -1.0873  0.1798 -1.3952
   35MOL   H12413112   2.678   7.092   6.995  1.3859  0.1274 -0.9971
   35MOL   H12513113   2.857   6.907   6.901  0.2420 -3.2474  0.7506
   35MOL   H12613114   2.948   6.779   7.056  0.1875 -1.5411  2.7636
   35MOL   H12713115   2.924   6.685   6.916 -2.1967 -2.9304 -0.2237
   35MOL   H12813116   2.951   6.533   7.106  0.1764  0.7571  2.1431
   35MOL   H12913117   2.871   6.695   7.279 -1.0186 -0.2254  1.1332
   35MOL   H13013118   2.843   6.522   7.306  2.4284  1.4777  1.9179
   35MOL   H13113119   2.712   6.618   7.260  0.3988  0.7448  0.7532
   35MOL   H13213120   2.677   6.509   6.978 -0.3470  0.3503  0.7548
   35MOL   H13313121   2.834   6.420   6.971  1.5494  2.2643 -1.2237
   35MOL   H13413122   2.722   6.412   7.111  0.7874  1.2600  0.8695
   35MOL   C13513123   2.657   6.883   6.824 -0.1448 -0.5183 -0.0469
   35MOL   C13613124   2.677   6.995   6.727  0.6930 -0.4131 -0.4595
   35MOL   O13713125   2.809   6.972   6.684 -0.1148  0.3146  0.2894
   35MOL   C13813126   2.870   7.091   6.649 -0.8310  1.2731  0.1624
   35MOL   C13913127   3.016   7.070   6.605 -0.4596 -0.6273 -0.4046
   35MOL   C14013128   3.019   6.977   6.485  1.0624 -0.1271 -0.0116
   35MOL   C14113129   3.074   7.209   6.565 -0.7052 -0.5808 -0.3145
   35MOL   H14213130   2.677   6.790   6.770 -0.6804  0.3734 -1.8063
   35MOL   H14313131   2.554   6.893   6.859 -0.5972 -1.3864 -1.0668
   35MOL   H14413132   2.660   7.094   6.769  2.3250 -0.8657  1.3298
   35MOL   H14513133   2.875   7.168   6.726  1.9051 -0.9442  2.3364
   35MOL   H14613134   2.827   7.139   6.561 -3.0369  0.3637  0.7276
   35MOL   H14713135   3.079   7.043   6.690  0.7843  1.1157 -0.7351
   35MOL   H14813136   2.944   6.997   6.408  0.7969 -0.8592  0.0556
   35MOL   H14913137   2.996   6.874   6.510  0.5417 -0.3216 -1.2411
   35MOL   H15013138   3.117   6.982   6.438 -0.5622 -0.2799 -3.6096
   35MOL   H15113139   3.043   7.249   6.468 -1.7332  3.6810  1.6330
   35MOL   H15213140   3.051   7.287   6.639 -0.0944 -0.0026 -0.7248
   35MOL   H15313141   3.182   7.206   6.568 -0.7528 -0.8916  2.2484
   35MOL   C15413142   2.577   6.974   6.603  0.5794 -0.1722  0.7650
   35MOL   C15513143   2.427   6.991   6.626 -0.5689  0.4012  0.2596
   35MOL   O15613144   2.397   7.114   6.690 -0.3443 -0.1619 -0.3747
   35MOL   C15713145   2.346   7.111   6.817 -0.7995 -1.0735 -0.8847
   35MOL   C15813146   2.372   7.240   6.899  0.1802 -0.0957  0.7530
   35MOL   C15913147   2.293   7.355   6.833 -0.3799  0.1510 -0.4567
   35MOL   C16013148   2.337   7.231   7.047  0.0105  0.8894 -0.4040
   35MOL   H16113149   2.602   6.874   6.567  0.9936 -0.5095  1.9481
   35MOL   H16213150   2.605   7.039   6.520 -1.6772  3.8354  2.9913
   35MOL   H16313151   2.394   6.907   6.687  0.2665 -0.9061 -1.0619
   35MOL   H16413152   2.397   7.035   6.877 -1.0433  0.7815  1.7519
   35MOL   H16513153   2.239   7.087   6.814 -1.2762  0.5741  1.5217
   35MOL   H16613154   2.477   7.266   6.891  0.4965 -1.5028  0.2105
   35MOL   H16713155   2.296   7.352   6.724  1.5938 -2.1788 -0.3925
   35MOL   H16813156   2.333   7.452   6.864  1.8028 -0.4800 -1.1807
   35MOL   H16913157   2.190   7.359   6.868 -0.2776  1.4814 -0.2876
   35MOL   H17013158   2.388   7.149   7.097 -0.0059  1.3937  0.4426
   35MOL   H17113159   2.361   7.322   7.100 -1.2935  1.4207 -0.6995
   35MOL   H17213160   2.230   7.219   7.062 -0.2502  2.0529 -1.2667
   35MOL   C17313161   2.349   6.973   6.492 -0.2699  0.6911  0.0403
   35MOL   C17413162   2.199   6.990   6.502  0.2607  0.0004  0.4432
   35MOL   O17513163   2.142   6.992   6.371  0.1860 -0.0017 -0.3070
   35MOL   C17613164   2.071   7.110   6.341 -0.9735 -0.8555  1.0672
   35MOL   C17713165   2.166   7.221   6.291  0.1035 -0.4920  0.0031
   35MOL   C17813166   2.247   7.175   6.168  0.0451 -0.0130 -0.8000
   35MOL   C17913167   2.087   7.345   6.266 -0.2180 -1.2398  0.4417
   35MOL   H18013168   2.390   7.054   6.432 -0.5837  0.5323 -0.3865
   35MOL   H18113169   2.381   6.880   6.445  0.1300  1.2933 -0.8990
   35MOL   H18213170   2.182   7.084   6.554  0.0085 -0.5844  1.4263
   35MOL   H18313171   2.024   7.143   6.433  1.3180 -4.4390  3.6315
   35MOL   H18413172   2.002   7.077   6.264 -1.3786 -0.3421  1.2033
   35MOL   H18513173   2.243   7.234   6.367  0.0702 -0.0221 -0.0406
   35MOL   H18613174   2.183   7.116   6.102  1.1742  0.2259 -2.1243
   35MOL   H18713175   2.290   7.263   6.120  3.1413 -0.3139  1.2788
   35MOL   H18813176   2.323   7.098   6.180  0.8282  1.2123  2.5445
   35MOL   H18913177   2.011   7.352   6.188 -0.6226 -3.9149  0.5548
   35MOL   H19013178   2.160   7.425   6.264  0.9790 -2.3148  0.7554
   35MOL   H19113179   2.024   7.362   6.354 -1.0267  0.7779 -0.4899
   35MOL   C19213180   2.141   6.867   6.581  0.6104  0.0541  0.6877
   35MOL   C19313181   1.989   6.881   6.617 -0.2939 -0.0436  0.6332
   35MOL   O19413182   1.977   6.983   6.717 -0.3507  0.4703  0.0110
   35MOL   C19513183   1.850   7.026   6.759 -0.0464 -0.3453 -0.3773
   35MOL   C19613184   1.848   7.174   6.800  0.7146  0.4230 -0.2413
   35MOL   C19713185   1.884   7.262   6.677 -0.5552  0.0524 -0.4424
   35MOL   C19813186   1.940   7.199   6.920  0.1620  0.3385  0.6393
   35MOL   H19913187   2.180   6.853   6.682 -1.6828 -2.4349  1.2843
   35MOL   H20013188   2.175   6.785   6.518  1.1400  0.7504  0.0649
   35MOL   H20113189   1.941   6.913   6.525 -0.0619  0.2987  0.6324
   35MOL   H20213190   1.814   6.969   6.844 -1.4055  2.7937  1.2656
   35MOL   H20313191   1.781   7.024   6.675 -0.4822  0.3982 -0.0443
   35MOL   H20413192   1.741   7.191   6.815  0.4484 -0.5030 -1.0234
   35MOL   H20513193   1.819   7.238   6.593 -1.5549 -1.8486  0.8420
   35MOL   H20613194   1.881   7.369   6.699  1.9700 -0.0977  0.8358
   35MOL   H20713195   1.984   7.254   6.634 -0.2306 -2.8361  0.7090
   35MOL   H20813196   2.037   7.150   6.912  0.1712  0.3796  0.5113
   35MOL   H20913197   1.942   7.308   6.923 -2.7924  0.4392  0.7797
   35MOL   H21013198   1.892   7.187   7.017  0.4356  0.6080  0.8118
   35MOL   C21113199   1.924   6.747   6.663 -0.1527  0.6108 -0.8352
   35MOL   C21213200   1.773   6.721   6.650  0.0819 -0.2681  0.3230
   35MOL   O21313201   1.725   6.792   6.535 -0.6557  0.0130 -0.6786
   35MOL   C21413202   1.591   6.814   6.526  0.1127 -0.4263  0.1835
   35MOL   C21513203   1.561   6.901   6.408  0.0742 -0.0876  0.2491
   35MOL   C21613204   1.600   7.048   6.434  0.1924  0.8388  0.3472
   35MOL   C21713205   1.616   6.856   6.275  0.2571  0.2776 -0.2908
   35MOL   H21813206   1.943   6.743   6.771  2.6624 -1.4622 -1.3382
   35MOL   H21913207   1.977   6.661   6.623  2.7807  2.1836 -0.5300
   35MOL   H22013208   1.716   6.759   6.735  1.0309 -1.7391  1.6499
   35MOL   H22113209   1.545   6.858   6.614 -1.3140 -0.6699 -0.4224
   35MOL   H22213210   1.532   6.723   6.524  1.1002 -1.0485 -1.2999
   35MOL   H22313211   1.453   6.905   6.395  0.0194  0.8763  0.9480
   35MOL   H22413212   1.543   7.111   6.366  0.8146 -0.0671 -1.0349
   35MOL   H22513213   1.587   7.079   6.538 -1.3753 -1.5645  0.9014
   35MOL   H22613214   1.707   7.059   6.416  0.2395  1.4418  0.9574
   35MOL   H22713215   1.582   6.756   6.249  1.0172 -0.9964  3.4292
   35MOL   H22813216   1.725   6.850   6.275  0.1743 -1.4382  0.5885
   35MOL   H22913217   1.589   6.928   6.198 -3.2004  1.8496  2.2711
   35MOL   C23013218   1.745   6.571   6.641  0.2919  0.6627 -0.2914
   35MOL   C23113219   1.815   6.468   6.739  0.4004  0.1773  0.9338
   35MOL   O23213220   1.725   6.435   6.842 -0.2398  0.0602 -0.5571
   35MOL   C23313221   1.696   6.533   6.933  0.6903  0.8027  0.2767
   35MOL   C23413222   1.617   6.467   7.048  0.0251 -0.0254 -1.0391
   35MOL   C23513223   1.599   6.559   7.168 -0.3379  0.5057 -0.0031
   35MOL   C23613224   1.475   6.414   7.011  0.3904  0.3211 -0.9224
   35MOL   H23713225   1.773   6.546   6.538  0.9610 -2.8851  0.6683
   35MOL   H23813226   1.641   6.538   6.638  0.5054 -0.4995  3.0692
   35MOL   H23913227   1.904   6.516   6.780  1.3615 -0.1307 -0.7410
   35MOL   H24013228   1.788   6.572   6.977  1.6060  1.2262 -1.8969
   35MOL   H24113229   1.631   6.602   6.880  0.3281  1.3981  1.4809
   35MOL   H24213230   1.685   6.388   7.080  0.6635  1.1593  0.5738
   35MOL   H24313231   1.554   6.496   7.245  2.0037  0.0425  1.0153
   35MOL   H24413232   1.531   6.639   7.139 -1.4872 -0.3900  0.1946
   35MOL   H24513233   1.698   6.595   7.193  0.2315 -2.1100  1.6961
   35MOL   H24613234   1.422   6.485   6.947  0.5902  1.4900  0.1837
   35MOL   H24713235   1.499   6.321   6.959 -2.7731  1.2660 -4.2486
   35MOL   H24813236   1.409   6.390   7.094  1.8685  1.0022  0.4901
   35MOL   C24913237   1.844   6.333   6.664  0.9867  0.5398  0.3638
   35MOL   C25013238   1.913   6.224   6.748  0.2758 -0.6593 -0.1702
   35MOL   O25113239   1.887   6.102   6.679  0.5134 -0.7415 -0.0479
   35MOL   C25213240   1.763   6.043   6.715  0.2921  0.1224  0.2369
   35MOL   C25313241   1.776   5.910   6.782 -0.1769  0.8563  0.2473
   35MOL   C25413242   1.640   5.838   6.805  0.2728  0.1708  0.0699
   35MOL   C25513243   1.869   5.919   6.909 -0.3507  0.5978 -0.0965
   35MOL   H25613244   1.897   6.359   6.573  1.4951  0.2162  0.5656
   35MOL   H25713245   1.743   6.303   6.636  0.8037  0.6084  0.9488
   35MOL   H25813246   1.860   6.218   6.843 -1.1563 -2.1364 -1.0302
   35MOL   H25913247   1.698   6.112   6.769 -0.2958 -0.7315  0.6163
   35MOL   H26013248   1.714   6.029   6.618 -2.4368 -0.8804  1.7065
   35MOL   H26113249   1.837   5.856   6.709 -0.9356  0.2555  0.0465
   35MOL   H26213250   1.593   5.830   6.707  1.0793  3.7595 -0.7164
   35MOL   H26313251   1.565   5.902   6.853 -1.0279 -0.5930 -0.8987
   35MOL   H26413252   1.659   5.742   6.852  2.5883  0.0985 -0.9561
   35MOL   H26513253   1.949   5.993   6.907 -0.3045  0.5758  0.7158
   35MOL   H26613254   1.812   5.950   6.997 -2.9397 -1.0101 -1.1487
   35MOL   H26713255   1.916   5.826   6.942 -1.2722  0.1368 -0.0620
   35MOL   C26813256   2.064   6.221   6.758  0.6613  0.0822  0.2864
   35MOL   C26913257   2.127   6.321   6.859  0.7774 -0.1731  0.7464
   35MOL   O27013258   2.253   6.367   6.811  0.5705  0.1269 -0.3807
   35MOL   C27113259   2.245   6.462   6.713 -0.0202 -0.2732 -0.5432
   35MOL   C27213260   2.387   6.508   6.690 -0.0850 -0.5264  1.3244
   35MOL   C27313261   2.415   6.558   6.548 -0.0510  0.3655  0.4956
   35MOL   C27413262   2.436   6.609   6.799 -0.2610  0.9278  0.2242
   35MOL   H27513263   2.112   6.228   6.661  0.3738 -0.4126  0.1040
   35MOL   H27613264   2.092   6.130   6.811  0.5195  0.9739  1.9205
   35MOL   H27713265   2.052   6.398   6.875  1.7238  0.8327  0.3821
   35MOL   H27813266   2.205   6.420   6.621  0.0440 -0.7832 -0.3400
   35MOL   H27913267   2.175   6.540   6.745 -1.2714 -1.6848  0.2561
   35MOL   H28013268   2.444   6.416   6.704 -3.6605 -3.1864 -0.8041
   35MOL   H28113269   2.520   6.570   6.518  0.3234 -1.7826  0.8437
   35MOL   H28213270   2.371   6.657   6.538 -1.9202 -0.1801  2.8811
   35MOL   H28313271   2.373   6.486   6.478  1.0998 -2.4228  2.5810
   35MOL   H28413272   2.419   6.554   6.891  0.8427  2.5460  1.4012
   35MOL   H28513273   2.379   6.702   6.797 -0.3634  0.8672 -2.3295
   35MOL   H28613274   2.542   6.625   6.781  0.0510 -0.8723  0.3782
   35MOL   C28713275   2.158   6.248   6.990  0.2179 -0.4339 -0.2593
   35MOL   C28813276   2.156   6.334   7.116 -0.0613 -0.4044 -0.5195
   35MOL   O28913277   2.237   6.270   7.219 -0.0681 -0.3054 -0.2315
   35MOL   C29013278   2.377   6.294   7.205 -0.1159  0.0569 -0.1934
   35MOL   C29113279   2.426   6.262   7.346 -0.1539  0.3863  0.1622
   35MOL   C29213280   2.360   6.347   7.455  0.0014  0.1982  0.2541
   35MOL   C29313281   2.580   6.282   7.359 -0.5834 -0.5958  0.2472
   35MOL   H29413282   2.248   6.187   6.981  1.4456  1.7276 -3.5290
   35MOL   H29513283   2.085   6.173   7.018 -1.3890  1.4535  0.7564
   35MOL   H29613284   2.190   6.435   7.095  2.4968 -0.5147  2.6779
   35MOL   H29713285   2.424   6.230   7.131 -0.7370  0.0805 -0.6120
   35MOL   H29813286   2.390   6.399   7.178  0.2809 -0.4828 -2.1251
   35MOL   H29913287   2.413   6.157   7.372 -0.5511  0.5882  0.7984
   35MOL   H30013288   2.253   6.325   7.463 -0.1781  1.2688  0.9397
   35MOL   H30113289   2.373   6.451   7.424  1.3844  0.3093  1.1815
   35MOL   H30213290   2.399   6.337   7.556 -1.1451  1.1206  0.8009
   35MOL   H30313291   2.602   6.298   7.465 -1.1526 -2.0381  0.5934
   35MOL   H30413292   2.631   6.199   7.311 -0.1721 -0.9895  1.3476
   35MOL   H30513293   2.604   6.377   7.310 -0.6796 -0.8899 -0.3692
   35MOL   C30613294   2.008   6.348   7.168 -0.7846  0.2481 -0.3134
   35MOL   C30713295   1.993   6.461   7.274  0.4064 -0.0462 -0.5383
   35MOL   O30813296   1.992   6.583   7.195 -0.5040 -0.1946 -0.4181
   35MOL   C30913297   2.086   6.685   7.230  0.0223 -0.0676  0.0798
   35MOL   C31013298   2.086   6.784   7.116 -0.7634  0.2232  0.2272
   35MOL   C31113299   1.960   6.871   7.106 -0.3920  0.2103  0.4431
   35MOL   C31213300   2.107   6.709   6.976 -0.1150  0.3456 -0.0429
   35MOL   H31313301   1.983   6.257   7.223  2.8996 -0.0268  1.0630
   35MOL   H31413302   1.937   6.367   7.088 -1.2002 -1.1793 -0.3051
   35MOL   H31513303   2.083   6.465   7.335 -0.4361 -0.2769  0.7348
   35MOL   H31613304   2.182   6.635   7.238  0.9846  1.8038  0.3471
   35MOL   H31713305   2.066   6.735   7.325 -2.0353 -0.8917  0.1086
   35MOL   H31813306   2.166   6.856   7.124 -0.4826  0.0381 -0.8572
   35MOL   H31913307   1.877   6.833   7.046 -1.8255  2.5033  0.9280
   35MOL   H32013308   1.975   6.964   7.051  0.2277 -0.7131 -0.9731
   35MOL   H32113309   1.923   6.891   7.206 -0.6483  0.6236  0.2663
   35MOL   H32213310   2.187   6.636   6.980 -0.2746  0.1683 -0.0801
   35MOL   H32313311   2.141   6.765   6.889 -2.6366  0.2980 -1.0886
   35MOL   H32413312   2.009   6.663   6.962 -0.4335  0.4625  1.5897
   35MOL   C32513313   1.872   6.445   7.369  0.4894  0.2986 -0.3591
   35MOL   C32613314   1.910   6.372   7.500  0.2921 -0.2492 -0.2714
   35MOL   O32713315   1.806   6.354   7.588 -0.1046 -0.0181  0.2254
   35MOL   C32813316   1.747   6.477   7.630 -0.7071  0.2145  1.1979
   35MOL   C32913317   1.669   6.440   7.756  0.1703  0.1012  0.1738
   35MOL   C33013318   1.586   6.309   7.748  0.0686 -0.1972  0.3272
   35MOL   C33113319   1.742   6.439   0.067  0.7872  0.4775 -0.2594
   35MOL   H33213320   1.789   6.396   7.318  1.5084  1.2930 -3.0593
   35MOL   H33313321   1.838   6.546   7.392  0.6012  0.3871 -0.5862
   35MOL   H33413322   1.978   6.442   7.549 -0.7173  0.3232  0.3278
   35MOL   H33513323   1.819   6.555   7.650  0.1230 -0.2997  0.2428
   35MOL   H33613324   1.683   6.518   7.552  1.1251  2.1403  0.6740
   35MOL   H33713325   1.608   6.529   7.762  0.1100  0.0622  0.1306
   35MOL   H33813326   1.536   6.310   7.651  2.4318  0.5178 -0.9225
   35MOL   H33913327   1.650   6.223   7.767 -0.7033 -0.3590  2.3321
   35MOL   H34013328   1.519   6.298   0.008  1.1846  0.9638  1.3821
   35MOL   H34113329   1.824   6.370   0.085  0.1203 -0.1744  0.3232
   35MOL   H34213330   1.786   6.539   0.076 -0.1345  0.7991  0.7607
   35MOL   H34313331   1.679   6.427   0.155  0.2679  0.0782 -0.6839
   35MOL   C34413332   1.982   6.233   7.490  0.5103 -0.1215  0.4742
   35MOL   C34513333   2.009   6.164   7.619  0.4475  0.3347  1.3624
   35MOL   O34613334   2.100   6.044   7.609  0.1103 -0.1076  0.0202
   35MOL   C34713335   2.038   5.924   7.564 -0.2086 -0.5021  0.5829
   35MOL   C34813336   2.144   5.835   7.495  0.1930  0.2932  0.5342
   35MOL   C34913337   2.207   5.908   7.370 -0.3846  0.2953 -0.1432
   35MOL   C35013338   2.090   5.700   7.448  0.0703 -0.1785 -0.3177
   35MOL   H35113339   2.068   6.238   7.422  1.0200  0.8772  1.1747
   35MOL   H35213340   1.907   6.173   7.438  0.5714  1.1581 -1.1154
   35MOL   H35313341   1.914   6.129   7.658  0.1608 -1.1546 -0.5715
   35MOL   H35413342   1.962   5.957   7.493 -0.5015 -1.0523  0.6301
   35MOL   H35513343   1.977   5.877   7.642 -2.1041  1.3815  0.2747
   35MOL   H35613344   2.223   5.814   7.566  1.1577 -1.1719 -0.9268
   35MOL   H35713345   2.260   5.999   7.399  0.8570 -0.1720 -0.9072
   35MOL   H35813346   2.133   5.951   7.303 -2.7500 -0.9464  1.5929
   35MOL   H35913347   2.269   5.834   7.319 -0.5293  0.9886 -1.3340
   35MOL   H36013348   2.135   5.674   7.353 -1.9576  0.7682 -1.5856
   35MOL   H36113349   2.108   5.621   7.522  0.2207  0.2723  0.1290
   35MOL   H36213350   1.984   5.703   7.421 -0.2265  1.2882  0.9793
   35MOL   C36313351   2.085   6.247   7.727 -0.4530 -0.7003 -0.3009
   35MOL   C36413352   2.083   6.194   0.042 -0.2567  0.4178 -0.3515
   35MOL   O36513353   2.153   6.264   0.140  0.6157 -0.4258 -0.1416
   35MOL   C36613354   2.121   6.221   0.269  0.2953  0.0534 -0.0890
   35MOL   C36713355   2.183   6.318   0.377 -0.0835  0.2464  0.2217
   35MOL   C36813356   2.328   6.268   0.400 -0.2780  0.2676 -0.8648
   35MOL   C36913357   2.106   6.310   0.515  0.1159 -0.2445 -0.1013
   35MOL   H37013358   2.184   6.262   7.684 -0.2659 -0.1101  0.3388
   35MOL   H37113359   2.049   6.347   7.751 -0.6566 -0.9459  0.4461
   35MOL   H37213360   2.124   6.093   0.038 -1.5021 -0.1591  0.9409
   35MOL   H37313361   2.014   6.240   0.276  0.3596  1.1893 -1.8493
   35MOL   H37413362   2.128   6.117   0.302  1.0718 -0.3287 -1.4042
   35MOL   H37513363   2.173   6.414   0.328 -0.4529  0.7672  1.3049
   35MOL   H37613364   2.375   6.260   0.302 -3.9311  0.1953 -2.7262
   35MOL   H37713365   2.329   6.175   0.457 -1.2628  1.4946  1.2377
   35MOL   H37813366   2.380   6.349   0.451 -0.5991  0.6131 -1.0791
   35MOL   H37913367   2.146   6.371   0.596 -0.4093  0.8162 -0.6351
   35MOL   H38013368   2.107   6.211   0.559  1.6392 -0.1669  0.0894
   35MOL   H38113369   2.004   6.340   0.493  0.1286 -0.7506 -0.8425
   35MOL   H38213370   1.980   6.187   0.079 -1.0701  2.3138 -2.1435
   36MOL     C113371   7.804   3.713   7.328 -0.2039 -0.3319 -0.1661
   36MOL     C213372   0.086   3.612   7.376 -0.5251 -0.3104 -0.4042
   36MOL     O313373   0.143   3.651   7.509 -0.0694  0.1134  0.4374
   36MOL     C413374   0.216   3.767   7.489 -0.2959 -0.5742 -0.4454
   36MOL     C513375   0.322   3.779   7.605  0.0006  0.2639 -0.0223
   36MOL     C613376   0.374   3.929   7.600 -0.0873  0.3125  0.3278
   36MOL     C713377   0.426   3.670   7.611  0.3536  0.1679  0.2305
   36MOL     H813378   0.010   3.817   7.340  1.9701 -0.9529 -0.0843
   36MOL     H913379   7.788   3.704   7.220  3.5287 -0.0791 -0.8071
   36MOL    H1013380   0.165   3.602   7.301  0.2454 -3.1356  0.7409
   36MOL    H1113381   0.148   3.851   7.502  1.1917  0.4156  1.2247
   36MOL    H1213382   0.273   3.772   7.396  1.8728  0.2891  0.8972
   36MOL    H1313383   0.271   3.778   7.701  0.2787 -2.4462  0.1164
   36MOL    H1413384   0.405   3.961   7.500  0.0413  0.3184  0.3690
   36MOL    H1513385   0.288   3.992   7.620 -0.0202  1.3889 -2.5917
   36MOL    H1613386   0.448   3.958   7.675  0.8038 -0.1374 -0.3735
   36MOL    H1713387   0.489   3.663   7.699 -1.2574 -1.4737  1.2762
   36MOL    H1813388   0.368   3.578   7.607  0.6110 -0.0188  0.8874
   36MOL    H1913389   0.491   3.686   7.525  1.6327  1.1483  1.3571
   36MOL    H2013390   7.708   3.702   7.378 -0.9318 -2.0349 -1.8783
   36MOL    C2113391   0.023   3.473   7.378 -0.8457 -0.1405  0.0491
   36MOL    C2213392   7.790   3.424   7.240 -0.3812 -0.6982  0.1646
   36MOL    O2313393   0.045   3.450   7.121 -0.0846 -0.3978  1.0086
   36MOL    C2413394   0.161   3.368   7.093  0.0535 -0.3788 -0.2229
   36MOL    C2513395   0.227   3.414   6.960  0.0860  0.8360 -0.9566
   36MOL    C2613396   0.123   3.405   6.848 -0.0107  0.2128  0.6022
   36MOL    C2713397   0.279   3.562   6.980 -0.4968 -0.4501 -0.0336
   36MOL    H2813398   0.095   3.396   7.404 -0.5330  0.0775 -0.1651
   36MOL    H2913399   7.765   3.464   7.449 -0.9558 -2.4324 -0.3396
   36MOL    H3013400   7.706   3.489   7.216  0.2218 -0.7082 -2.1057
   36MOL    H3113401   0.127   3.264   7.086  0.3853 -0.6580  2.0409
   36MOL    H3213402   0.238   3.356   7.170  0.6503 -0.2140 -0.7908
   36MOL    H3313403   0.312   3.349   6.938 -0.2427  0.4512 -1.0793
   36MOL    H3413404   0.054   3.321   6.857 -0.3812  0.4442 -0.0335
   36MOL    H3513405   0.179   3.406   6.754  1.4918  1.2403  1.4769
   36MOL    H3613406   0.067   3.498   6.858  0.4514  0.5756 -0.0905
   36MOL    H3713407   0.375   3.570   7.031  1.2700 -1.2486 -3.1520
   36MOL    H3813408   0.289   3.618   6.887 -1.4527  1.1872  0.8112
   36MOL    H3913409   0.197   3.613   7.031  0.2832  0.9067 -0.0904
   36MOL    C4013410   7.733   3.283   7.238 -0.9314 -0.1742 -0.6021
   36MOL    C4113411   7.637   3.250   7.121 -0.0139  0.0939 -0.9070
   36MOL    O4213412   7.518   3.317   7.150 -0.0614 -0.7043  0.5443
   36MOL    C4313413   7.487   3.415   7.052 -0.7330  0.3571  0.1819
   36MOL    C4413414   7.380   3.505   7.109 -0.1852 -0.3515 -0.2435
   36MOL    C4513415   7.433   3.584   7.228 -0.3896 -0.0731  0.0127
   36MOL    C4613416   7.318   3.596   7.003 -0.5588  0.1285  0.5603
   36MOL    H4713417   7.677   3.274   7.331 -1.7889  3.1512 -0.7426
   36MOL    H4813418   7.808   3.206   7.256 -0.1608  0.9336  1.0516
   36MOL    H4913419   7.686   3.291   7.033  3.1981 -1.3332  0.1433
   36MOL    H5013420   7.430   3.361   6.976  0.5521  1.2058 -1.3986
   36MOL    H5113421   7.565   3.466   6.996 -2.0903 -1.7115 -3.8344
   36MOL    H5213422   7.295   3.443   7.138  0.9320 -0.3931  3.1936
   36MOL    H5313423   7.469   3.514   7.304 -1.6285 -1.7243 -0.8845
   36MOL    H5413424   7.514   3.647   7.192 -0.2400 -0.5041 -0.4127
   36MOL    H5513425   7.355   3.648   7.270 -1.0087 -0.1921 -0.9413
   36MOL    H5613426   7.283   3.537   6.919 -0.6955 -0.1945  0.8450
   36MOL    H5713427   7.390   3.674   6.975 -0.9052 -0.3365 -1.7245
   36MOL    H5813428   7.234   3.646   7.050 -1.2380  1.0643 -1.5466
   36MOL    C5913429   7.620   3.101   7.117  0.3085  0.6113 -0.5961
   36MOL    C6013430   7.559   3.046   6.986  0.9143  0.0310  0.1953
   36MOL    O6113431   7.559   2.903   7.003  0.0194 -0.2589 -0.1740
   36MOL    C6213432   7.436   2.848   7.049  0.0572  0.0763  0.1950
   36MOL    C6313433   7.433   2.698   7.040  0.2725 -0.3853  0.2290
   36MOL    C6413434   7.521   2.627   7.149  0.0106 -0.3307 -0.0332
   36MOL    C6513435   7.290   2.639   7.049 -0.4588  0.0336  0.3733
   36MOL    H6613436   7.544   3.073   7.190  0.2573  1.1094 -0.4555
   36MOL    H6713437   7.713   3.050   7.141  1.1255  1.8850 -1.0056
   36MOL    H6813438   7.454   3.078   6.984  0.7649 -0.4690  0.0181
   36MOL    H6913439   7.421   2.873   7.154 -1.5514 -2.7004  0.6716
   36MOL    H7013440   7.350   2.889   6.996  0.0905 -0.5123 -0.3220
   36MOL    H7113441   7.474   2.670   6.943 -0.1456 -0.4628  0.0734
   36MOL    H7213442   7.531   2.518   7.144  0.3018 -0.2124 -3.2617
   36MOL    H7313443   7.492   2.657   7.250 -1.1282 -1.8098  0.1080
   36MOL    H7413444   7.620   2.666   7.128 -0.0279  0.2416  0.8097
   36MOL    H7513445   7.262   2.625   7.153  0.5476  0.4020  0.6967
   36MOL    H7613446   7.208   2.698   7.009 -0.9942 -0.1178  1.2348
   36MOL    H7713447   7.271   2.547   6.993 -0.8475 -0.2469  0.9640
   36MOL    C7813448   7.634   3.069   6.850  0.6030  0.1493  0.0669
   36MOL    C7913449   7.558   3.006   6.728 -0.2000 -0.1300  0.0660
   36MOL    O8013450   7.579   3.091   6.615 -0.3951  0.5971 -0.2877
   36MOL    C8113451   7.488   3.206   6.617  0.0569  0.0504 -0.2513
   36MOL    C8213452   7.517   3.291   6.496  0.3411 -0.3614 -0.5037
   36MOL    C8313453   7.393   3.388   6.482  0.5729  0.3642 -0.0973
   36MOL    C8413454   7.539   3.207   6.366  0.1827  0.7385 -0.1217
   36MOL    H8513455   7.737   3.039   6.868  0.2157 -0.3870  1.5060
   36MOL    H8613456   7.646   3.176   6.835 -0.7606  0.2571 -0.3225
   36MOL    H8713457   7.451   3.003   6.747 -0.1586 -0.6776  0.2227
   36MOL    H8813458   7.386   3.171   6.628  0.6959 -1.4365  1.1244
   36MOL    H8913459   7.501   3.279   6.697 -1.7610  0.5716 -0.4329
   36MOL    H9013460   7.612   3.340   6.518  0.5975 -1.6299  1.2181
   36MOL    H9113461   7.426   3.475   6.425  0.9132 -0.4688 -1.2079
   36MOL    H9213462   7.353   3.424   6.576 -2.1732 -0.6420 -0.8351
   36MOL    H9313463   7.305   3.344   6.434 -0.3827  1.9200  0.1970
   36MOL    H9413464   7.545   3.263   6.273 -1.0690  1.5030  0.2325
   36MOL    H9513465   7.448   3.147   6.361  0.8490 -0.1527 -1.8705
   36MOL    H9613466   7.628   3.146   6.378  0.7572  1.5556 -0.1984
   36MOL    C9713467   7.611   2.870   6.684  0.6960  0.4439  0.8318
   36MOL    C9813468   7.529   2.800   6.571  0.2239 -0.2564  0.2236
   36MOL    O9913469   7.551   2.657   6.588 -0.1984  0.0404 -0.2285
   36MOL   C10013470   7.441   2.592   6.645 -0.6004  0.4881 -0.4485
   36MOL   C10113471   7.492   2.444   6.666 -0.2977 -0.3447  0.0033
   36MOL   C10213472   7.607   2.440   6.766 -0.1032  0.1802 -0.1997
   36MOL   C10313473   7.375   2.364   6.710  0.2790 -0.0792  0.3039
   36MOL   H10413474   7.598   2.806   6.771 -0.4777 -2.2219 -1.2338
   36MOL   H10513475   7.717   2.861   6.661  0.4421  0.1495 -0.2610
   36MOL   H10613476   7.424   2.828   6.584  0.3013 -0.1690  0.6688
   36MOL   H10713477   7.356   2.587   6.576 -1.7344  1.6623  0.8336
   36MOL   H10813478   7.416   2.633   6.743  3.2083  2.4105 -0.1743
   36MOL   H10913479   7.513   2.397   6.570  0.9110  1.0993 -0.4607
   36MOL   H11013480   7.634   2.336   6.780  0.1035  0.4201  1.3078
   36MOL   H11113481   7.696   2.485   6.722  0.1518  0.4723  0.5987
   36MOL   H11213482   7.581   2.484   6.862  0.4057 -2.2284  1.0772
   36MOL   H11313483   7.307   2.358   6.625  2.4949  1.1026 -1.6304
   36MOL   H11413484   7.416   2.264   6.724 -0.3512 -0.0703  2.3600
   36MOL   H11513485   7.318   2.401   6.795 -0.5165 -0.8044  0.0908
   36MOL   C11613486   7.583   2.835   6.429  0.2801  0.8813  0.1975
   36MOL   C11713487   7.496   2.809   6.296  0.0353  0.4502 -0.0656
   36MOL   O11813488   7.586   2.823   6.181  0.4533  0.4222  0.0307
   36MOL   C11913489   7.550   2.930   6.096 -0.7339 -0.5958  0.5037
   36MOL   C12013490   7.657   2.946   5.979 -0.1869 -0.0006 -0.3041
   36MOL   C12113491   7.635   3.082   5.925  0.0871 -1.3281 -0.1031
   36MOL   C12213492   7.805   2.944   6.034  0.1679  0.0706  0.1536
   36MOL   H12313493   7.614   2.939   6.417 -2.2040  2.1882  4.1428
   36MOL   H12413494   7.670   2.772   6.413  0.6268  1.3033  0.4179
   36MOL   H12513495   7.417   2.883   6.288  1.1889  1.8921  1.3751
   36MOL   H12613496   7.541   3.021   6.155 -1.3934  0.1406 -0.7017
   36MOL   H12713497   7.449   2.915   6.055 -0.7482 -1.7134  0.9205
   36MOL   H12813498   7.642   2.878   5.895 -1.2718 -1.2245  0.8726
   36MOL   H12913499   7.533   3.110   5.901  0.6894  1.9050  0.8793
   36MOL   H13013500   7.693   3.097   5.834 -0.7964 -0.4407 -0.5181
   36MOL   H13113501   7.676   3.166   5.982  1.6298  0.0201 -3.0646
   36MOL   H13213502   0.038   2.934   5.942 -0.6549 -1.6292 -0.1979
   36MOL   H13313503   0.002   3.040   6.080  0.5414  0.4415 -0.7937
   36MOL   H13413504   7.812   2.864   6.107 -3.3930 -0.7495 -0.2880
   36MOL   C13513505   7.437   2.669   6.293  1.3259 -0.1212  0.1636
   36MOL   C13613506   7.347   2.644   6.170 -0.6453  0.0774  0.2167
   36MOL   O13713507   7.310   2.509   6.172 -0.0014  0.4242 -0.2611
   36MOL   C13813508   7.420   2.425   6.121  0.9133  0.3200  0.4339
   36MOL   C13913509   7.402   2.276   6.155  0.3497  0.5169  0.3536
   36MOL   C14013510   7.502   2.190   6.074  0.8043 -0.0940 -0.5576
   36MOL   C14113511   7.413   2.262   6.307  0.1542  0.4425  0.2425
   36MOL   H14213512   7.519   2.597   6.299  0.6909 -0.7414  1.5715
   36MOL   H14313513   7.373   2.642   6.377 -0.7720  0.6679 -1.1447
   36MOL   H14413514   7.403   2.677   6.082 -1.0164  0.3178  0.0732
   36MOL   H14513515   7.517   2.453   6.161  1.6254  0.5746 -1.4019
   36MOL   H14613516   7.434   2.446   6.015  1.0789 -0.9943  0.1866
   36MOL   H14713517   7.305   2.234   6.129  0.0840  0.4343  1.4465
   36MOL   H14813518   7.475   2.169   5.971 -0.2854 -1.0094 -0.0955
   36MOL   H14913519   7.512   2.093   6.123  0.6617  1.0119  1.7478
   36MOL   H15013520   7.599   2.239   6.079  0.4118  0.5478  1.2457
   36MOL   H15113521   7.502   2.311   6.347  1.6464 -1.3665 -0.7980
   36MOL   H15213522   7.325   2.311   6.348 -2.1627 -1.1810 -2.6193
   36MOL   H15313523   7.421   2.160   6.345 -0.9732  0.5635  0.8188
   36MOL   C15413524   7.213   2.716   6.178 -0.6195  0.1499 -0.5784
   36MOL   C15513525   7.121   2.724   6.053  0.7052  0.5288  0.0721
   36MOL   O15613526   6.980   2.727   6.099  0.3644 -0.2357  0.7569
   36MOL   C15713527   6.892   2.680   5.993 -0.2101  0.3118 -0.8236
   36MOL   C15813528   6.742   2.704   6.028  0.3092  0.2365 -0.3666
   36MOL   C15913529   6.710   2.850   6.067  0.3431 -0.0933 -0.0962
   36MOL   C16013530   6.654   2.642   5.920  0.3336  0.4841  0.3270
   36MOL   H16113531   7.226   2.819   6.214  2.1925  0.2351 -1.7015
   36MOL   H16213532   7.161   2.655   6.251 -0.6346  1.4727  0.5399
   36MOL   H16313533   7.142   2.640   5.987  0.5957  0.0235  0.6715
   36MOL   H16413534   6.912   2.575   5.970  0.4488  0.2166  0.1559
   36MOL   H16513535   6.914   2.741   5.906  0.3154  0.6597 -0.4460
   36MOL   H16613536   6.719   2.647   6.118  2.1633 -0.8346 -0.5397
   36MOL   H16713537   6.777   2.923   6.022  1.6060 -0.6622  0.8080
   36MOL   H16813538   6.712   2.856   6.176  1.3638 -0.4865 -0.0896
   36MOL   H16913539   6.606   2.872   6.043  0.4220  0.2589 -0.1140
   36MOL   H17013540   6.677   2.673   5.818  0.1414  0.2120  0.1986
   36MOL   H17113541   6.667   2.534   5.928 -0.0873  0.3909 -0.1962
   36MOL   H17213542   6.550   2.668   5.935 -0.3715 -0.6245 -2.3431
   36MOL   C17313543   7.168   2.854   5.980  0.2382 -0.5034 -0.4358
   36MOL   C17413544   7.201   2.838   5.832 -0.0264 -0.6787 -0.2649
   36MOL   O17513545   7.218   2.973   5.792 -0.4590 -0.0783  0.2134
   36MOL   C17613546   7.101   3.033   5.739 -0.1031  0.0810  0.1894
   36MOL   C17713547   7.136   3.177   5.700  0.4985 -0.3298  0.2065
   36MOL   C17813548   7.259   3.197   5.620 -0.4738  0.2720  1.1557
   36MOL   C17913549   7.019   3.231   5.607 -0.2795 -0.7161 -0.0859
   36MOL   H18013550   7.089   2.927   5.994  1.3205  0.6064 -0.0932
   36MOL   H18113551   7.252   2.905   6.025 -1.5481  2.4472 -0.3607
   36MOL   H18213552   7.125   2.792   5.769 -2.4395  0.9145  1.4063
   36MOL   H18313553   7.025   3.042   5.817 -0.8990  0.9586 -0.6764
   36MOL   H18413554   7.058   2.979   5.655  0.1234 -0.2568  0.2904
   36MOL   H18513555   7.144   3.230   5.794 -2.7291  1.1730 -0.3115
   36MOL   H18613556   7.267   3.303   5.599  1.7350 -0.1650 -0.4777
   36MOL   H18713557   7.348   3.169   5.677 -0.6089 -0.3862  1.0517
   36MOL   H18813558   7.247   3.138   5.529  1.4271  2.7481 -0.7593
   36MOL   H18913559   6.921   3.242   5.652 -0.9092  1.5974 -1.9613
   36MOL   H19013560   7.021   3.164   5.521  0.9730 -2.2013  1.0610
   36MOL   H19113561   7.028   3.332   5.568 -0.4431  0.2884  2.3894
   36MOL   C19213562   7.336   2.774   5.804 -0.3755  0.8256  0.4967
   36MOL   C19313563   7.389   2.785   5.659  0.3255 -0.2859  0.2400
   36MOL   O19413564   7.291   2.736   5.568  0.5900 -0.0258 -0.2358
   36MOL   C19513565   7.301   2.792   5.434 -0.0165 -0.2886  0.0552
   36MOL   C19613566   7.172   2.760   5.361  0.2921 -0.2299 -0.6005
   36MOL   C19713567   7.186   2.821   5.221  0.1646 -0.2657 -0.2954
   36MOL   C19813568   7.043   2.803   5.427  0.3524 -0.0959 -0.5647
   36MOL   H19913569   7.323   2.668   5.826 -0.0813  0.4656 -1.0411
   36MOL   H20013570   7.415   2.803   5.873 -0.6129 -1.7518  1.8984
   36MOL   H20113571   7.415   2.889   5.636 -0.5308  0.2376  1.5924
   36MOL   H20213572   7.391   2.753   5.387  0.0289 -1.1385  0.8166
   36MOL   H20313573   7.312   2.900   5.427 -1.7177 -0.2254 -2.3480
   36MOL   H20413574   7.182   2.652   5.355 -0.7428 -0.3133 -0.9978
   36MOL   H20513575   7.267   2.780   5.161 -1.0180 -2.9253 -0.1393
   36MOL   H20613576   7.095   2.821   5.161 -0.7280  1.3687  0.9851
   36MOL   H20713577   7.216   2.926   5.228  1.5841 -0.5200 -2.2505
   36MOL   H20813578   7.024   2.909   5.442 -0.2178 -0.0271 -1.7665
   36MOL   H20913579   6.957   2.769   5.370  0.3851 -0.5055 -0.3795
   36MOL   H21013580   7.027   2.764   5.528  1.1226 -2.3277 -1.2738
   36MOL   C21113581   7.516   2.716   5.643 -0.6296 -0.1944 -0.1272
   36MOL   C21213582   7.514   2.561   5.675  0.0384  0.9047 -0.4526
   36MOL   O21313583   7.402   2.495   5.606 -0.3316  0.2018  0.4007
   36MOL   C21413584   7.359   2.373   5.665  0.0837 -0.4312  0.1646
   36MOL   C21513585   7.210   2.332   5.640 -0.0695 -0.3719  0.2208
   36MOL   C21613586   7.172   2.181   5.665 -0.1620 -0.5937  0.6352
   36MOL   C21713587   7.108   2.421   5.701  0.0478  0.4661 -0.2987
   36MOL   H21813588   7.595   2.773   5.692 -0.8939  0.2722 -0.2393
   36MOL   H21913589   7.550   2.718   5.539  0.1949  1.4054  0.1496
   36MOL   H22013590   7.509   2.561   5.784 -2.2533  2.8142 -0.5078
   36MOL   H22113591   7.389   2.368   5.770 -1.8881 -0.3916  0.7430
   36MOL   H22213592   7.418   2.294   5.618  0.9974 -0.9136  2.0577
   36MOL   H22313593   7.189   2.341   5.534  2.2165 -4.5581 -0.7220
   36MOL   H22413594   7.069   2.167   5.631 -0.7923  1.3832  1.6348
   36MOL   H22513595   7.238   2.114   5.609 -1.2864 -1.4005  0.2656
   36MOL   H22613596   7.177   2.155   5.770  0.4770  1.4744  1.1526
   36MOL   H22713597   7.123   2.446   5.806 -2.6393  2.5156 -0.3603
   36MOL   H22813598   7.009   2.375   5.706  0.3020 -0.2821 -1.6715
   36MOL   H22913599   7.103   2.518   5.652 -0.9875  0.4760 -0.1970
   36MOL   C23013600   7.647   2.493   5.633  0.6443 -0.4021  0.6805
   36MOL   C23113601   7.763   2.527   5.727  0.1394 -0.9904  0.3467
   36MOL   O23213602   7.813   2.653   5.710 -0.1048  0.0704 -0.3272
   36MOL   C23313603   0.043   2.695   5.586 -0.8576 -0.1194  0.0496
   36MOL   C23413604   0.083   2.841   5.607  0.2754  0.4716  0.3901
   36MOL   C23513605   0.220   2.852   5.664  0.2785 -0.4604 -0.1472
   36MOL   C23613606   0.088   2.906   5.467  0.1441 -0.1975 -0.3348
   36MOL   H23713607   7.658   2.521   5.529 -1.3011  3.2093  1.3410
   36MOL   H23813608   7.638   2.385   5.638  1.7485 -0.5476 -0.4893
   36MOL   H23913609   0.012   2.462   5.681  0.1302 -0.6060 -0.2059
   36MOL   H24013610   0.132   2.639   5.558 -0.3050  0.3713  0.8230
   36MOL   H24113611   7.795   2.688   5.505 -0.2204 -1.6931 -0.3994
   36MOL   H24213612   0.014   2.886   5.678 -0.0939  0.3531  0.1106
   36MOL   H24313613   0.245   2.951   5.701  0.4747 -0.1418 -1.1201
   36MOL   H24413614   0.298   2.829   5.591 -0.7735 -0.2786 -1.3441
   36MOL   H24513615   0.237   2.781   5.745  0.4520  0.0015  0.2220
   36MOL   H24613616   0.173   2.868   5.410 -0.1935  0.2863 -1.1676
   36MOL   H24713617   7.824   2.903   5.404  0.0599  1.8125 -0.3545
   36MOL   H24813618   0.106   3.013   5.479 -1.0756 -0.0819  0.4802
   36MOL   C24913619   7.761   2.488   5.873 -0.4891 -0.2031 -0.3493
   36MOL   C25013620   0.066   2.458   5.947 -0.1518  0.2391  0.7977
   36MOL   O25113621   0.155   2.370   5.874  0.0494 -0.1116  0.3394
   36MOL   C25213622   0.101   2.235   5.855 -0.7681 -0.1840 -0.4414
   36MOL   C25313623   0.197   2.157   5.760  0.2152 -0.0768  0.3201
   36MOL   C25413624   0.332   2.137   5.824  0.4491  0.2474 -0.3048
   36MOL   C25513625   0.197   2.218   5.622  0.4819 -0.1916  0.5780
   36MOL   H25613626   7.707   2.395   5.885  1.9383 -1.6222 -0.0448
   36MOL   H25713627   7.698   2.557   5.929  0.1874 -0.1244  0.3178
   36MOL   H25813628   0.030   2.406   6.036 -1.9511  0.7440  0.3855
   36MOL   H25913629   0.097   2.198   5.957 -0.3227  2.3067  0.5208
   36MOL   H26013630   0.002   2.237   5.809 -2.1576 -0.3170  2.4554
   36MOL   H26113631   0.157   2.056   5.750 -1.9147  0.7517  0.0500
   36MOL   H26213632   0.324   2.098   5.925 -3.0165  0.3311 -0.4819
   36MOL   H26313633   0.382   2.233   5.837  0.3564  0.2711 -0.1241
   36MOL   H26413634   0.403   2.072   5.773 -0.3170 -0.8568  0.0065
   36MOL   H26513635   0.261   2.165   5.552 -1.0735  1.5732 -2.2377
   36MOL   H26613636   0.097   2.217   5.579  1.7779  0.1255 -2.5137
   36MOL   H26713637   0.235   2.319   5.610  0.7542 -0.4429 -0.6503
   36MOL   C26813638   0.145   2.581   5.979 -0.2602 -0.4228  0.1750
   36MOL   C26913639   0.254   2.554   6.083 -0.0841 -0.1961 -0.2159
   36MOL   O27013640   0.206   2.513   6.205 -0.3768  0.4935  0.1873
   36MOL   C27113641   0.132   2.598   6.290  0.3113 -0.1791 -0.1582
   36MOL   C27213642   0.098   2.534   6.433  0.8099  0.2107 -0.2015
   36MOL   C27313643   7.809   2.436   6.409 -0.2594 -0.2101  0.2764
   36MOL   C27413644   0.220   2.484   6.519 -0.1142  0.5161  0.0876
   36MOL   H27513645   0.082   2.656   6.027 -1.8010 -1.5461 -0.0292
   36MOL   H27613646   0.187   2.615   5.884  1.4044  0.6241  1.2730
   36MOL   H27713647   0.311   2.466   6.054 -1.3472 -1.4641  1.0268
   36MOL   H27813648   0.187   2.686   6.323  0.2889 -0.1516 -0.1951
   36MOL   H27913649   0.033   2.619   6.247 -0.4848  0.7674  2.0746
   36MOL   H28013650   0.058   2.616   6.491  1.9999 -1.2264  2.7557
   36MOL   H28113651   7.818   2.355   6.337 -1.8131 -1.1465  1.1241
   36MOL   H28213652   7.723   2.495   6.377 -1.2291 -1.0466  1.3158
   36MOL   H28313653   7.779   2.382   6.498  0.8651  0.4533  1.0681
   36MOL   H28413654   0.281   2.565   6.560 -0.0605 -0.5589  2.1768
   36MOL   H28513655   0.283   2.407   6.474 -2.1418 -2.1621  1.7125
   36MOL   H28613656   0.172   2.441   6.606 -2.1393 -0.0770 -1.2862
   36MOL   C28713657   0.354   2.668   6.092  0.4407 -0.3496  0.4920
   36MOL   C28813658   0.468   2.649   6.193  0.0371  0.0181  0.0748
   36MOL   O28913659   0.526   2.784   6.195  0.3174  0.0335 -0.2243
   36MOL   C29013660   0.496   2.857   6.311 -0.0079  0.7442 -0.2754
   36MOL   C29113661   0.477   3.013   6.280  0.4963  0.0336  0.2726
   36MOL   C29213662   0.372   3.033   6.178  1.3317 -0.1147  0.0591
   36MOL   C29313663   0.606   3.064   6.226 -0.1245 -0.2460  0.0522
   36MOL   H29413664   0.296   2.758   6.115 -2.8976 -1.9363 -1.3385
   36MOL   H29513665   0.389   2.685   5.990 -0.9135 -0.4765 -0.0101
   36MOL   H29613666   0.434   2.622   6.293 -1.7317  1.3199 -0.1446
   36MOL   H29713667   0.403   2.822   6.355  0.8002 -1.0779  0.0061
   36MOL   H29813668   0.572   2.840   6.388 -0.6378 -0.0145  0.1747
   36MOL   H29913669   0.445   3.069   6.369 -1.8632 -0.7018 -0.0836
   36MOL   H30013670   0.280   2.998   6.226  1.7739  1.4362  2.0849
   36MOL   H30113671   0.393   2.991   6.080 -0.6463  1.2857 -1.0171
   36MOL   H30213672   0.351   3.139   6.165 -2.3935 -0.6354  1.2069
   36MOL   H30313673   0.681   3.053   6.305 -0.0130  0.0205 -0.0156
   36MOL   H30413674   0.630   3.002   6.140  0.9849  0.4137 -0.1208
   36MOL   H30513675   0.594   3.165   6.187 -2.9213 -0.5894 -0.0761
   36MOL   C30613676   0.585   2.556   6.156  0.4650 -0.1119  1.2679
   36MOL   C30713677   0.696   2.523   6.255  0.1842 -0.2441  0.3917
   36MOL   O30813678   0.780   2.636   6.275  0.4463  0.1138 -0.1794
   36MOL   C30913679   0.902   2.622   6.208 -0.2296 -0.0352  0.0082
   36MOL   C31013680   0.975   2.747   6.214  0.0587  0.3962  0.2017
   36MOL   C31113681   1.016   2.768   6.360 -0.3755 -0.0859 -0.4922
   36MOL   C31213682   0.896   2.873   6.156 -0.3807 -0.6424 -0.5068
   36MOL   H31313683   0.637   2.584   6.065 -1.4922 -0.0607  0.1239
   36MOL   H31413684   0.535   2.465   6.120 -1.7651  2.1007 -1.4328
   36MOL   H31513685   0.755   2.439   6.217 -0.6950 -0.7918  0.2270
   36MOL   H31613686   0.882   2.603   6.103 -0.8759  2.0038 -0.2732
   36MOL   H31713687   0.964   2.544   6.250  0.9366  0.5408 -0.6295
   36MOL   H31813688   1.071   2.740   6.164  0.5848 -2.3881  1.5418
   36MOL   H31913689   1.091   2.695   6.388  0.9039  1.0078 -1.0385
   36MOL   H32013690   0.935   2.759   6.432 -1.1857  0.9519 -1.2513
   36MOL   H32113691   1.066   2.865   6.366  1.7380 -1.0658 -1.9283
   36MOL   H32213692   0.949   2.962   6.189  3.5453 -3.1656  0.3658
   36MOL   H32313693   0.803   2.879   6.211 -0.0940 -1.5772  0.0912
   36MOL   H32413694   0.872   2.882   6.050  0.0966  0.8070 -0.5001
   36MOL   C32513695   0.649   2.500   6.400  0.8062 -0.1682  0.0179
   36MOL   C32613696   0.768   2.462   6.495 -0.1706  0.0419 -0.8676
   36MOL   O32713697   0.724   2.492   6.627 -0.0893  0.4037 -0.3286
   36MOL   C32813698   0.760   2.622   6.673  0.0230 -0.0663 -0.2427
   36MOL   C32913699   0.669   2.647   6.790 -0.2049  0.5459 -0.7698
   36MOL   C33013700   0.527   2.692   6.745 -0.2603 -0.1982  1.1182
   36MOL   C33113701   0.662   2.535   6.894  0.3609  0.6417 -0.7856
   36MOL   H33213702   0.573   2.422   6.406 -0.1080  0.7708  0.7896
   36MOL   H33313703   0.601   2.592   6.433 -0.1337 -0.6908  0.1223
   36MOL   H33413704   0.860   2.518   6.479  0.1330 -0.4699 -0.9241
   36MOL   H33513705   0.859   2.628   6.718 -1.1138  0.6568  2.2583
   36MOL   H33613706   0.745   2.704   6.602 -0.8572  0.0440  0.0620
   36MOL   H33713707   0.714   2.725   6.851  0.3799 -1.4150  1.3746
   36MOL   H33813708   0.466   2.702   6.835  1.6790 -2.3945  2.7313
   36MOL   H33913709   0.528   2.788   6.693  1.4794 -0.8958 -0.1659
   36MOL   H34013710   0.472   2.621   6.683 -1.1597  2.2075 -0.9773
   36MOL   H34113711   0.761   2.504   6.927  0.2030 -1.8583 -2.5346
   36MOL   H34213712   0.620   2.582   6.983  0.2468 -1.1569  0.1452
   36MOL   H34313713   0.599   2.452   6.862  1.4454 -0.4583 -0.1055
   36MOL   C34413714   0.794   2.304   6.487 -0.6499  0.3665  0.6260
   36MOL   C34513715   0.925   2.266   6.561  0.3148  0.8030  0.8014
   36MOL   O34613716   0.918   2.133   6.602 -0.4926 -0.6930 -0.1379
   36MOL   C34713717   0.905   2.115   6.749 -0.7911  0.7619 -0.0546
   36MOL   C34813718   1.028   2.153   6.834 -0.8924  0.8664 -0.5938
   36MOL   C34913719   1.147   2.057   6.803  0.3032 -0.2086  0.5403
   36MOL   C35013720   0.997   2.131   6.986  0.0841  0.4490  0.3499
   36MOL   H35113721   0.780   2.267   6.386  1.5551  2.3398 -0.4297
   36MOL   H35213722   0.709   2.250   6.530 -1.3212 -0.6825 -1.9568
   36MOL   H35313723   0.920   2.332   6.649  1.2889  1.6782  0.2183
   36MOL   H35413724   0.872   2.015   6.776 -0.9673  0.7268 -0.3949
   36MOL   H35513725   0.822   2.181   6.776 -0.3240  2.3150 -2.2787
   36MOL   H35613726   1.063   2.255   6.815  2.8091 -0.3695 -0.6899
   36MOL   H35713727   1.185   2.063   6.701  1.9896 -1.8360  1.0476
   36MOL   H35813728   1.134   1.949   6.811 -0.1169 -0.3596 -1.8890
   36MOL   H35913729   1.231   2.084   6.867  0.4644  0.6779 -0.0442
   36MOL   H36013730   0.930   2.046   7.002 -0.0327  0.3676 -0.5645
   36MOL   H36113731   1.094   2.115   7.034 -0.3353  1.8920  1.7410
   36MOL   H36213732   0.944   2.214   7.035 -2.2263  0.0343 -1.3600
   36MOL   C36313733   1.047   2.294   6.480  0.2168 -0.0989 -0.7726
   36MOL   C36413734   1.150   2.376   6.557  0.1468  1.3776  0.3770
   36MOL   O36513735   1.269   2.381   6.468 -0.7746  0.3378  1.0513
   36MOL   C36613736   1.364   2.480   6.492  0.0909 -0.0526  0.0721
   36MOL   C36713737   1.451   2.496   6.366  0.7804 -0.1245  0.1831
   36MOL   C36813738   1.362   2.514   6.237 -0.1798  0.1481 -0.1829
   36MOL   C36913739   1.553   2.376   6.359 -0.0196 -0.8149 -0.4622
   36MOL   H37013740   1.095   2.200   6.450  1.7887  0.7012 -0.8171
   36MOL   H37113741   1.020   2.359   6.398 -0.0057  2.1610  1.0382
   36MOL   H37213742   1.177   2.326   6.650  1.9246  0.6739 -0.4917
   36MOL   H37313743   1.302   2.568   6.509  0.1417  0.3502 -1.6563
   36MOL   H37413744   1.438   2.465   6.570 -0.4092 -0.2177  0.5249
   36MOL   H37513745   1.513   2.585   6.377  0.4161  0.3513 -1.4764
   36MOL   H37613746   1.284   2.582   6.270 -1.8581 -1.0411 -1.6242
   36MOL   H37713747   1.320   2.420   6.202 -0.1854 -1.2291  3.3426
   36MOL   H37813748   1.435   2.537   6.159 -0.9711 -0.6074 -1.1564
   36MOL   H37913749   1.601   2.369   6.262  1.4789  1.0803  0.1260
   36MOL   H38013750   1.504   2.280   6.378 -2.3555  0.3191 -0.5506
   36MOL   H38113751   1.628   2.386   6.438 -1.1969  0.3543  0.5400
   36MOL   H38213752   1.116   2.475   6.587 -3.0516  0.6921 -0.8216
   37MOL     C113753   1.147   5.691   2.039 -1.1099  1.0136 -0.0603
   37MOL     C213754   1.102   5.831   2.088  0.0476 -0.0482  0.4564
   37MOL     O313755   0.965   5.819   2.117  0.0061  1.0496  0.5287
   37MOL     C413756   0.883   5.853   2.003 -0.0375 -0.0465 -0.1381
   37MOL     C513757   0.737   5.817   2.016 -0.5959 -0.4616  0.3974
   37MOL     C613758   0.677   5.881   2.139 -0.3038  0.0186  0.3467
   37MOL     C713759   0.720   5.672   1.998  0.4752  0.7793 -0.3976
   37MOL     H813760   1.252   5.688   2.009 -0.8261 -0.7379  1.0433
   37MOL     H913761   1.124   5.618   2.116  2.1265 -0.6360 -0.5885
   37MOL    H1013762   1.119   5.901   2.006 -0.7917 -2.6968 -2.0265
   37MOL    H1113763   0.929   5.809   1.914 -3.1770 -0.8366 -1.4439
   37MOL    H1213764   0.892   5.960   1.984 -1.0105 -0.1929 -1.4814
   37MOL    H1313765   0.686   5.859   1.929  1.0588 -0.8027 -0.7778
   37MOL    H1413766   0.701   5.987   2.130  2.3399 -0.5470  0.4535
   37MOL    H1513767   0.570   5.882   2.158 -0.1560  1.1259  1.1558
   37MOL    H1613768   0.728   5.834   2.223  1.6724 -2.8165 -2.3249
   37MOL    H1713769   0.616   5.642   1.990  1.4976 -3.2007  0.0468
   37MOL    H1813770   0.773   5.629   1.912 -0.7183  2.4238 -1.9888
   37MOL    H1913771   0.763   5.619   2.083 -0.1171  0.0606 -0.5400
   37MOL    H2013772   1.091   5.649   1.955 -0.3117 -0.4635  0.1332
   37MOL    C2113773   1.182   5.867   2.216 -0.2238  0.1344 -0.0850
   37MOL    C2213774   1.326   5.895   2.196  0.6351  0.0374  0.7537
   37MOL    O2313775   1.333   5.997   2.091 -0.1481 -0.3731  0.6554
   37MOL    C2413776   1.453   6.000   2.008  0.0275 -0.4990 -0.2992
   37MOL    C2513777   1.432   6.086   1.884  0.9292  0.5265  0.2666
   37MOL    C2613778   1.312   6.034   1.806 -0.0789 -0.7670  0.5849
   37MOL    C2713779   1.415   6.237   1.919 -0.2812 -0.3089  0.9493
   37MOL    H2813780   1.133   5.956   2.258 -0.9950 -1.1963  1.9295
   37MOL    H2913781   1.165   5.789   2.290  0.0149  0.8240  0.7088
   37MOL    H3013782   1.375   5.803   2.166 -0.2622 -0.1534 -0.1474
   37MOL    H3113783   1.462   5.896   1.979 -1.6325 -0.1911 -1.9747
   37MOL    H3213784   1.527   6.026   2.084 -2.4240  0.7581  1.7659
   37MOL    H3313785   1.525   6.072   1.829 -0.3528  0.4513 -1.9578
   37MOL    H3413786   1.322   5.930   1.776  1.8844  0.0338 -1.6903
   37MOL    H3513787   1.275   6.085   1.717  1.7803  0.3898  0.4562
   37MOL    H3613788   1.224   6.027   1.871 -1.2866 -2.5124 -1.1810
   37MOL    H3713789   1.316   6.257   1.961 -1.4738 -1.1868 -1.3397
   37MOL    H3813790   1.487   6.281   1.988  1.7817 -0.0077 -1.3430
   37MOL    H3913791   1.435   6.286   1.824  2.8633 -2.0378  0.6540
   37MOL    C4013792   1.395   5.934   2.325 -0.2105 -0.9101 -0.6711
   37MOL    C4113793   1.463   5.820   2.405 -0.2535 -0.0079  0.4022
   37MOL    O4213794   1.355   5.744   2.451 -0.4678  0.2322  0.1258
   37MOL    C4313795   1.356   5.609   2.395  0.0915  0.1320  0.3889
   37MOL    C4413796   1.260   5.531   2.485  0.2803 -0.0905  0.1074
   37MOL    C4513797   1.312   5.530   2.631  0.3238  0.1630 -1.2136
   37MOL    C4613798   1.114   5.571   2.461  0.0952  0.5036 -0.5137
   37MOL    H4713799   1.326   5.994   2.384 -0.1964 -1.7090  0.1588
   37MOL    H4813800   1.471   6.009   2.307  0.5385 -1.9162 -1.7814
   37MOL    H4913801   1.530   5.763   2.340 -0.5569  1.0398 -0.8443
   37MOL    H5013802   1.456   5.564   2.399  1.1898  2.5595  1.4006
   37MOL    H5113803   1.332   5.612   2.289 -0.8139 -1.5410  0.5211
   37MOL    H5213804   1.264   5.425   2.462  1.2834 -0.0978  0.2845
   37MOL    H5313805   1.417   5.501   2.634 -0.1260 -1.4453 -0.3531
   37MOL    H5413806   1.307   5.628   2.678 -3.9530  0.4590 -2.1374
   37MOL    H5513807   1.252   5.462   2.691 -0.8745  1.3318 -1.0634
   37MOL    H5613808   1.089   5.563   2.355 -0.3262  0.6994 -0.4273
   37MOL    H5713809   1.091   5.674   2.487  0.6129  1.4720 -3.6007
   37MOL    H5813810   1.048   5.502   2.513 -0.1542 -0.8951 -2.5926
   37MOL    C5913811   1.547   5.870   2.532  0.0436  0.6598 -0.0897
   37MOL    C6013812   1.636   5.763   2.597 -0.5846  0.1001 -0.5610
   37MOL    O6113813   1.685   5.824   2.715  0.1756  0.4794  0.3967
   37MOL    C6213814   1.623   5.776   2.833 -0.1513  0.1838  0.9440
   37MOL    C6313815   1.655   5.872   2.944  0.0711 -0.4716 -0.7878
   37MOL    C6413816   1.813   5.887   2.976 -0.3086 -0.0335 -0.3913
   37MOL    C6513817   1.610   6.008   2.897  0.4158 -0.3450  0.4720
   37MOL    H6613818   1.482   5.922   2.603  1.9694  0.1688  2.0813
   37MOL    H6713819   1.603   5.959   2.502 -1.6348  1.6063 -0.5162
   37MOL    H6813820   1.572   5.675   2.608 -0.1441 -0.2305 -0.6512
   37MOL    H6913821   1.515   5.786   2.825 -0.2032 -1.3733 -0.5255
   37MOL    H7013822   1.646   5.672   2.858 -1.2627  0.0792  1.5659
   37MOL    H7113823   1.601   5.834   3.030 -0.5272  1.4176 -0.3055
   37MOL    H7213824   1.853   5.786   2.990  0.3938  0.1891 -0.7722
   37MOL    H7313825   1.838   5.950   3.061  0.2310 -1.2227  0.3538
   37MOL    H7413826   1.870   5.923   2.891  0.4026 -1.9629 -0.7646
   37MOL    H7513827   1.504   6.012   2.872  0.7708  0.3255 -1.0350
   37MOL    H7613828   1.618   6.079   2.979  1.2532  1.1162 -0.8209
   37MOL    H7713829   1.663   6.048   2.810 -0.6395 -0.6852 -0.3392
   37MOL    C7813830   1.758   5.727   2.509 -0.0583  0.3013 -0.1136
   37MOL    C7913831   1.856   5.619   2.568 -0.3342 -0.1985  0.2159
   37MOL    O8013832   1.814   5.490   2.529  0.0596  0.4145 -0.2506
   37MOL    C8113833   1.715   5.432   2.612  0.2210 -0.2128 -1.2751
   37MOL    C8213834   1.739   5.283   2.615  0.7720 -1.0414  0.0193
   37MOL    C8313835   1.649   5.212   2.709 -0.7807 -0.5350 -0.0453
   37MOL    C8413836   1.886   5.247   2.656  0.1548 -1.0060  0.0249
   37MOL    H8513837   1.815   5.819   2.496  0.7171  0.6066  4.6629
   37MOL    H8613838   1.729   5.691   2.410 -0.3673 -1.0314  0.4509
   37MOL    H8713839   1.873   5.633   2.675 -0.2758  3.9498 -0.2410
   37MOL    H8813840   1.717   5.477   2.711  2.4389  0.2429 -1.5032
   37MOL    H8913841   1.617   5.446   2.568 -0.9396 -1.0241  0.9743
   37MOL    H9013842   1.699   5.249   2.519 -0.3885 -2.3426  0.9330
   37MOL    H9113843   1.687   5.225   2.811 -0.5969 -0.2867 -0.1461
   37MOL    H9213844   1.632   5.107   2.687 -0.4440 -0.6009  0.0051
   37MOL    H9313845   1.553   5.262   2.693  0.1734  0.5824 -2.3742
   37MOL    H9413846   1.953   5.293   2.583 -0.9647  1.2783  0.3985
   37MOL    H9513847   1.894   5.139   2.665  0.4555 -0.8496  1.8621
   37MOL    H9613848   1.894   5.298   2.752 -1.0700 -0.6032 -0.0763
   37MOL    C9713849   2.003   5.631   2.505 -0.0384 -0.6455  0.5722
   37MOL    C9813850   2.088   5.753   2.543  0.4275 -0.5461 -0.0012
   37MOL    O9913851   2.213   5.725   2.481 -0.4083 -0.5411  0.4460
   37MOL   C10013852   2.215   5.736   2.338 -0.4267 -0.0267 -0.3461
   37MOL   C10113853   2.361   5.725   2.294  0.2879  1.4759  0.6466
   37MOL   C10213854   2.376   5.732   2.142  0.6858  0.1352 -0.5162
   37MOL   C10313855   2.452   5.824   2.377 -0.6108  0.6037  0.1767
   37MOL   H10413856   1.983   5.642   2.398  0.0929 -0.3303  0.5794
   37MOL   H10513857   2.057   5.537   2.520  0.4274 -0.5451 -0.4524
   37MOL   H10613858   2.044   5.845   2.506  2.4273  1.5005  2.4705
   37MOL   H10713859   2.172   5.826   2.292 -1.2743 -0.7616 -1.0274
   37MOL   H10813860   2.168   5.646   2.300 -0.1781 -0.1264 -0.4147
   37MOL   H10913861   2.397   5.628   2.326  0.0954  0.8324 -1.0373
   37MOL   H11013862   2.307   5.680   2.077  0.8282  0.6198 -1.0621
   37MOL   H11113863   2.363   5.838   2.120 -0.0848 -0.0629 -1.0264
   37MOL   H11213864   2.475   5.698   2.111  0.9005 -0.8605  1.2019
   37MOL   H11313865   2.418   5.927   2.365  0.0348  0.8812  0.6560
   37MOL   H11413866   2.444   5.807   2.485  0.8316  2.1897  0.5506
   37MOL   H11513867   2.558   5.836   2.355 -0.8429 -0.6703 -1.6903
   37MOL   C11613868   2.111   5.761   2.695  0.2517 -0.2987 -0.1416
   37MOL   C11713869   2.210   5.861   2.750 -0.6625 -0.0726 -0.1260
   37MOL   O11813870   2.131   5.981   2.749  0.1858 -0.5138 -0.0568
   37MOL   C11913871   2.176   6.076   2.661 -0.1950  0.9285 -0.3092
   37MOL   C12013872   2.076   6.189   2.666  0.2143 -0.1635  0.3716
   37MOL   C12113873   2.137   6.312   2.590 -0.3741 -1.0675  0.0859
   37MOL   C12213874   1.948   6.144   2.603 -0.1058  0.0679 -0.0145
   37MOL   H12313875   2.011   5.758   2.739 -0.4228  0.4466 -1.6196
   37MOL   H12413876   2.155   5.664   2.721  0.4059 -0.0581  0.5157
   37MOL   H12513877   2.303   5.863   2.693 -0.0458  0.6085  0.8937
   37MOL   H12613878   2.196   6.035   2.562  2.2411 -0.2142  0.6270
   37MOL   H12713879   2.268   6.115   2.705 -0.1387 -0.5491  0.9134
   37MOL   H12813880   2.055   6.210   2.771 -1.0422 -0.5798  0.2090
   37MOL   H12913881   2.191   6.288   2.498 -0.5749  0.5508 -0.4676
   37MOL   H13013882   2.202   6.370   2.655 -0.3750 -0.7876 -0.1614
   37MOL   H13113883   2.062   6.387   2.565 -0.7849 -0.6912  2.3709
   37MOL   H13213884   1.962   6.147   2.495  3.0762 -1.6050  0.2896
   37MOL   H13313885   1.923   6.042   2.634  1.5287 -0.2674  0.2470
   37MOL   H13413886   1.856   6.193   2.635 -0.2514  0.0695 -0.4293
   37MOL   C13513887   2.238   5.843   2.900  0.1843  0.9492  0.0491
   37MOL   C13613888   2.319   5.723   2.942  0.4048  0.5994 -0.1021
   37MOL   O13713889   2.398   5.741   3.055 -0.2153 -0.4589  0.4396
   37MOL   C13813890   2.517   5.822   3.038 -0.2039 -0.2500  0.0886
   37MOL   C13913891   2.594   5.833   3.175 -0.8176 -0.1503  0.3009
   37MOL   C14013892   2.733   5.877   3.137  0.4942  0.2207  0.6405
   37MOL   C14113893   2.522   5.925   3.280  0.5674  0.0343 -0.5904
   37MOL   H14213894   2.286   5.935   2.935 -0.1348  1.0429  0.2403
   37MOL   H14313895   2.146   5.846   2.958  0.8466 -1.0701  1.2512
   37MOL   H14413896   2.396   5.714   2.865  1.3466  1.7614  0.6760
   37MOL   H14513897   2.484   5.922   3.010 -0.1490 -0.2083  0.1718
   37MOL   H14613898   2.581   5.797   2.954  0.6662  1.6218  0.1631
   37MOL   H14713899   2.603   5.735   3.222  1.2964  0.4220  1.1474
   37MOL   H14813900   2.788   5.792   3.098  1.6379  1.3971 -0.3455
   37MOL   H14913901   2.796   5.913   3.218  3.1131 -3.3298  0.2764
   37MOL   H15013902   2.726   5.958   3.063 -1.0337 -0.8623 -0.4524
   37MOL   H15113903   2.429   5.882   3.319  1.2357 -1.0775 -0.2120
   37MOL   H15213904   2.587   5.951   3.364 -0.0160  0.9300 -0.4065
   37MOL   H15313905   2.491   6.021   3.238 -0.9289 -0.1597  0.0462
   37MOL   C15413906   2.241   5.596   2.980  0.0366  0.7874  0.0935
   37MOL   C15513907   2.323   5.466   3.013 -0.2585 -0.2759 -0.0346
   37MOL   O15613908   2.238   5.352   3.011 -0.6470 -0.4155 -0.0437
   37MOL   C15713909   2.149   5.340   3.113  0.4912 -0.4423 -0.4379
   37MOL   C15813910   2.140   5.187   3.133  0.0955 -0.2909  0.7526
   37MOL   C15913911   2.076   5.114   3.022 -0.6627  0.0047  0.2310
   37MOL   C16013912   2.272   5.118   3.173 -0.1076  0.2980  0.0732
   37MOL   H16113913   2.181   5.556   2.899  0.1158 -1.1067  0.9307
   37MOL   H16213914   2.162   5.613   3.053  0.6556  0.1148  0.9306
   37MOL   H16313915   2.347   5.488   3.117 -0.8901 -0.0671  0.0643
   37MOL   H16413916   2.058   5.397   3.099  0.7736  0.0769 -0.1587
   37MOL   H16513917   2.195   5.373   3.206  1.7037  1.6082 -1.7354
   37MOL   H16613918   2.075   5.173   3.219 -1.1266 -0.1898 -0.1456
   37MOL   H16713919   2.054   5.009   3.045  0.6373 -0.3772 -0.2100
   37MOL   H16813920   2.147   5.105   2.940 -0.2941 -1.6591  0.7102
   37MOL   H16913921   1.992   5.168   2.979  1.0669  2.8093  0.2897
   37MOL   H17013922   2.265   5.010   3.173  0.5916  0.2548  0.4461
   37MOL   H17113923   2.337   5.129   3.086 -0.3198 -0.4824 -0.1819
   37MOL   H17213924   2.333   5.143   3.260  0.7718  2.8544 -1.2189
   37MOL   C17313925   2.445   5.444   2.931 -0.3949 -0.5986  0.2075
   37MOL   C17413926   2.417   5.427   2.780  0.0071  0.8307  0.3750
   37MOL   O17513927   2.546   5.460   2.714  0.2683  0.2230 -0.1786
   37MOL   C17613928   2.544   5.582   2.636 -0.0768 -0.0683  0.0506
   37MOL   C17713929   2.679   5.620   2.577  0.2291 -0.1208  0.2699
   37MOL   C17813930   2.787   5.613   2.690 -0.0826  0.7591  0.0218
   37MOL   C17913931   2.709   5.547   2.445 -0.4296 -0.1692  0.4887
   37MOL   H18013932   2.510   5.531   2.939 -1.8666  0.5508 -0.3573
   37MOL   H18113933   2.501   5.356   2.962 -0.6976 -1.5226 -1.7624
   37MOL   H18213934   2.346   5.501   2.744  0.1659  1.1479  0.7167
   37MOL   H18313935   2.506   5.656   2.705 -0.8137  0.0827 -0.5099
   37MOL   H18413936   2.468   5.586   2.557 -1.9545  1.6109  1.8866
   37MOL   H18513937   2.659   5.721   2.543 -3.0093 -1.2726 -1.4710
   37MOL   H18613938   2.766   5.690   2.764 -2.0833  1.0311 -0.7834
   37MOL   H18713939   2.797   5.518   2.741  0.2737 -0.0980 -1.5944
   37MOL   H18813940   2.886   5.628   2.646  0.7982 -1.3833  1.2103
   37MOL   H18913941   2.616   5.522   2.394  0.3066  0.1574 -1.0525
   37MOL   H19013942   2.768   5.455   2.449 -2.4298 -1.4545  0.8097
   37MOL   H19113943   2.756   5.620   2.378  0.3434  0.8215  2.0704
   37MOL   C19213944   2.376   5.284   2.736 -0.0093 -0.6078 -0.3042
   37MOL   C19313945   2.346   5.243   2.584 -0.6100  0.0149  0.9191
   37MOL   O19413946   2.334   5.102   2.562  0.0388 -0.1587  0.2084
   37MOL   C19513947   2.235   5.031   2.640  0.2836 -0.7084  0.4562
   37MOL   C19613948   2.186   4.897   2.575  0.2237 -0.2157 -0.4492
   37MOL   C19713949   2.111   4.810   2.671 -0.1501 -0.2516 -0.5165
   37MOL   C19813950   2.301   4.824   2.514 -0.4118  0.0006  0.3255
   37MOL   H19913951   2.290   5.252   2.795 -0.1106  2.1081  1.1006
   37MOL   H20013952   2.456   5.219   2.772 -0.0449 -0.4144  0.1254
   37MOL   H20113953   2.252   5.293   2.562 -0.1234  0.7697  0.5367
   37MOL   H20213954   2.152   5.099   2.657  1.5452  1.3746 -1.3782
   37MOL   H20313955   2.276   5.014   2.739 -1.2364 -0.4903  1.1293
   37MOL   H20413956   2.123   4.929   2.492  0.0054  0.5668  0.0128
   37MOL   H20513957   2.146   4.801   2.774 -3.7545  2.1458  1.0426
   37MOL   H20613958   2.011   4.853   2.684  0.4586  1.9362 -2.7312
   37MOL   H20713959   2.098   4.713   2.624 -1.4780 -0.3721  0.0640
   37MOL   H20813960   2.308   4.868   2.415 -0.7553  0.1443  0.3645
   37MOL   H20913961   2.392   4.823   2.575 -0.2637 -0.5899  0.0937
   37MOL   H21013962   2.270   4.721   2.500 -0.7906 -0.0600  1.5735
   37MOL   C21113963   2.450   5.286   2.484  0.8448  0.1655  0.1748
   37MOL   C21213964   2.444   5.235   2.340 -0.6259  0.2126 -0.1480
   37MOL   O21313965   2.323   5.291   2.276 -0.0014 -0.9017 -0.8426
   37MOL   C21413966   2.209   5.206   2.274 -0.2693  0.4877  0.0997
   37MOL   C21513967   2.078   5.281   2.259 -0.6652 -0.0155 -0.7731
   37MOL   C21613968   2.080   5.365   2.132 -0.2408 -0.6681  1.2020
   37MOL   C21713969   1.952   5.185   2.249 -0.0327 -0.6193 -0.5199
   37MOL   H21813970   2.545   5.252   2.524  1.1473 -0.0500 -0.7158
   37MOL   H21913971   2.446   5.395   2.483 -1.4555  0.1167  0.6661
   37MOL   H22013972   2.441   5.126   2.350  3.1002 -0.1819 -2.4524
   37MOL   H22113973   2.205   5.141   2.361 -1.5001  0.8205  0.3026
   37MOL   H22213974   2.221   5.143   2.186 -2.2363  1.1367 -0.6608
   37MOL   H22313975   2.067   5.352   2.341 -1.3050  0.9361 -1.6659
   37MOL   H22413976   1.997   5.435   2.123  1.8135  1.5554 -1.1900
   37MOL   H22513977   2.170   5.425   2.143 -0.8208  0.2141  1.2099
   37MOL   H22613978   2.094   5.304   2.042  1.5310  0.1324  0.9105
   37MOL   H22713979   1.958   5.109   2.327 -0.6281  0.8197  0.9460
   37MOL   H22813980   1.956   5.136   2.152  1.9493 -0.0177 -0.7694
   37MOL   H22913981   1.859   5.240   2.253  0.3699 -0.0535  1.9266
   37MOL   C23013982   2.563   5.263   2.253  0.2053  0.1947 -0.0505
   37MOL   C23113983   2.553   5.182   2.116  0.1390  0.2181 -0.0950
   37MOL   O23213984   2.644   5.233   2.023 -0.2730 -0.3583  0.1244
   37MOL   C23313985   2.593   5.346   1.956  0.0172 -0.1525 -0.7658
   37MOL   C23413986   2.699   5.448   1.913  0.6769 -0.1632 -0.1089
   37MOL   C23513987   2.775   5.494   2.039  0.0617  0.4612  0.1693
   37MOL   C23613988   2.799   5.392   1.800 -0.1113  0.2928 -0.2164
   37MOL   H23713989   2.656   5.243   2.307 -0.7640  1.1541  2.0012
   37MOL   H23813990   2.564   5.370   2.233 -0.0344  0.1495 -0.3167
   37MOL   H23913991   2.453   5.185   2.074  0.1594  0.1297 -0.1510
   37MOL   H24013992   2.536   5.306   1.871 -1.3354  0.5505 -0.2083
   37MOL   H24113993   2.523   5.399   2.021  0.9919 -0.1505  0.2916
   37MOL   H24213994   2.642   5.530   1.870  0.7634  0.6675  1.3168
   37MOL   H24313995   2.824   5.407   2.083 -1.3089  0.5031  1.8899
   37MOL   H24413996   2.717   5.541   2.119  3.3283  1.3828  2.0733
   37MOL   H24513997   2.848   5.569   2.009 -0.0811 -0.5878 -2.9703
   37MOL   H24613998   2.746   5.360   1.710  1.4020 -2.9349 -0.0332
   37MOL   H24713999   2.872   5.467   1.770  0.2550  0.2710  0.6060
   37MOL   H24814000   2.863   5.308   1.827 -0.1552  0.3392  0.0380
   37MOL   C24914001   2.594   5.034   2.140  0.7340  0.0375 -0.4477
   37MOL   C25014002   2.585   4.945   2.009 -0.6528  0.0535  0.0852
   37MOL   O25114003   2.665   4.835   2.041 -0.0629 -0.1868 -0.0777
   37MOL   C25214004   2.780   4.820   1.963  0.7615 -0.2107  0.2381
   37MOL   C25314005   2.886   4.936   1.968  0.0123  0.0641  0.0657
   37MOL   C25414006   2.989   4.935   1.859 -0.2660  0.3310  0.1579
   37MOL   C25514007   2.953   4.928   2.110  0.0495  0.1296 -0.6986
   37MOL   H25614008   2.542   4.983   2.221  1.2330  0.4948  0.1679
   37MOL   H25714009   2.700   5.037   2.169  0.2772  0.9792  1.2137
   37MOL   H25814010   2.625   5.005   1.927 -0.9482 -0.7881 -0.6841
   37MOL   H25914011   2.824   4.721   1.978 -1.4947 -1.4244 -0.8664
   37MOL   H26014012   2.739   4.810   1.863  2.1419 -0.4322 -0.3084
   37MOL   H26114013   2.828   5.027   1.951 -0.1587  0.2737  1.6376
   37MOL   H26214014   3.077   4.993   1.886 -0.7277  1.3309 -0.4620
   37MOL   H26314015   2.950   4.970   1.763  0.6716 -0.8959 -0.6991
   37MOL   H26414016   3.031   4.838   1.832  0.9326  0.8054  0.2973
   37MOL   H26514017   2.879   4.921   2.189 -0.7920  0.5946 -1.4443
   37MOL   H26614018   3.025   4.846   2.117 -0.3560 -0.0571  1.9601
   37MOL   H26714019   3.009   5.020   2.125 -1.6778  1.2649 -1.1233
   37MOL   C26814020   2.439   4.896   1.992  0.9404 -0.0323  0.2248
   37MOL   C26914021   2.415   4.831   1.854  1.4816  0.3244 -0.8094
   37MOL   O27014022   2.438   4.924   1.756  0.4228  0.3349  0.2322
   37MOL   C27114023   2.431   4.872   1.622  0.5789 -0.8130  0.6494
   37MOL   C27214024   2.569   4.890   1.555  0.1221  1.9514 -0.0574
   37MOL   C27314025   2.636   5.027   1.580  0.1439  0.3062 -0.5757
   37MOL   C27414026   2.673   4.777   1.589  0.5257 -0.0439 -0.2035
   37MOL   H27514027   2.367   4.978   2.004  0.5821 -0.4233  0.7536
   37MOL   H27614028   2.409   4.834   2.076 -1.2499 -0.5752 -0.9090
   37MOL   H27714029   2.482   4.749   1.828 -0.6252 -0.7679 -3.1156
   37MOL   H27814030   2.391   4.772   1.607 -0.1946 -0.4815  0.4915
   37MOL   H27914031   2.363   4.935   1.564 -1.5714 -1.4298  2.4377
   37MOL   H28014032   2.551   4.886   1.448  1.6469 -0.7078 -0.2822
   37MOL   H28114033   2.565   5.104   1.550 -0.0623 -1.2109 -4.3263
   37MOL   H28214034   2.726   5.044   1.522  0.2287  0.8359 -0.2811
   37MOL   H28314035   2.670   5.041   1.682  0.2900  0.1804 -0.6059
   37MOL   H28414036   2.616   4.696   1.634  0.2073  0.4320  0.2615
   37MOL   H28514037   2.746   4.813   1.661  0.3267  0.1077 -0.0765
   37MOL   H28614038   2.721   4.751   1.495 -1.2830 -1.2944 -0.8272
   37MOL   C28714039   2.272   4.770   1.850  0.2745 -0.4952 -0.5266
   37MOL   C28814040   2.253   4.655   1.945 -0.4959 -0.2509  0.8275
   37MOL   O28914041   2.228   4.549   1.859  0.3169  0.0621 -0.1225
   37MOL   C29014042   2.327   4.444   1.856 -0.3525 -0.0745  0.3184
   37MOL   C29114043   2.280   4.333   1.762 -0.1713 -0.8615 -0.2013
   37MOL   C29214044   2.275   4.394   1.624 -0.0617 -0.2898  0.0873
   37MOL   C29314045   2.138   4.287   1.796 -0.8279 -0.2287 -0.5953
   37MOL   H29414046   2.221   4.744   1.757  1.8972 -1.6622 -1.1082
   37MOL   H29514047   2.207   4.857   1.863 -0.6283 -1.0249 -1.4289
   37MOL   H29614048   2.341   4.648   2.008  0.6971 -0.2107 -0.7879
   37MOL   H29714049   2.426   4.483   1.835 -1.3625  1.7071 -1.4366
   37MOL   H29814050   2.327   4.410   1.959 -1.0728 -0.9301  0.0494
   37MOL   H29914051   2.350   4.249   1.769 -1.8876 -2.2492  0.9932
   37MOL   H30014052   2.379   4.405   1.593  1.3832  0.1784  4.7309
   37MOL   H30114053   2.232   4.493   1.632  1.4531  0.2754  1.7218
   37MOL   H30214054   2.222   4.328   1.555  1.2076  0.3877 -1.5854
   37MOL   H30314055   2.127   4.279   1.904 -0.2828 -0.0575 -0.5284
   37MOL   H30414056   2.069   4.365   1.762 -0.7457  0.1695  0.1346
   37MOL   H30514057   2.104   4.197   1.744 -0.0505  0.6832 -2.7375
   37MOL   C30614058   2.122   4.692   2.033 -0.3367 -0.1805  1.0369
   37MOL   C30714059   2.089   4.613   2.163  0.1589 -0.3266  0.1497
   37MOL   O30814060   1.969   4.659   2.218  0.7358 -0.0594  0.1263
   37MOL   C30914061   1.989   4.761   2.322 -0.0540  0.2232 -0.2771
   37MOL   C31014062   1.852   4.814   2.378 -0.6235 -0.1300  0.0033
   37MOL   C31114063   1.793   4.698   2.469  0.3373  0.3336  0.9322
   37MOL   C31214064   1.764   4.859   2.261 -0.0376 -0.1280 -0.3135
   37MOL   H31314065   2.042   4.674   1.961  0.6924  0.5740 -0.3223
   37MOL   H31414066   2.128   4.795   2.069  2.6976 -0.3788  1.2245
   37MOL   H31514067   2.175   4.621   2.228  1.7792  0.6343 -2.0492
   37MOL   H31614068   2.055   4.840   2.287  3.4502 -2.1183  0.7710
   37MOL   H31714069   2.047   4.719   2.404 -0.2304 -1.8684 -1.1867
   37MOL   H31814070   1.863   4.904   2.438 -0.0840 -0.1922  0.0007
   37MOL   H31914071   1.792   4.603   2.416 -0.5233  0.8755 -0.0188
   37MOL   H32014072   1.691   4.726   2.492 -0.3272 -0.1854 -1.3045
   37MOL   H32114073   1.855   4.689   2.558  0.6770  0.3342  0.6969
   37MOL   H32214074   1.732   4.778   2.195 -0.2429 -0.8749  0.6849
   37MOL   H32314075   1.793   4.948   2.205 -1.3117  1.2713  1.2263
   37MOL   H32414076   1.666   4.877   2.304  0.4722  2.0812 -0.0349
   37MOL   C32514077   2.072   4.469   2.128  0.0917  0.1309  0.4300
   37MOL   C32614078   2.029   4.375   2.243 -0.3385 -0.6135 -1.0752
   37MOL   O32714079   1.944   4.285   2.180  0.2817 -0.0293  0.1941
   37MOL   C32814080   1.805   4.314   2.191 -0.1891  0.3867  0.4772
   37MOL   C32914081   1.716   4.247   2.090  0.0644  0.0221 -0.0498
   37MOL   C33014082   1.720   4.321   1.964 -0.4449  0.6661  0.5423
   37MOL   C33114083   1.749   4.098   2.079 -0.0259 -1.0845  0.1097
   37MOL   H33214084   2.163   4.432   2.081  1.1457  1.7461  1.1342
   37MOL   H33314085   1.996   4.460   2.050  0.2172  1.0448  0.1986
   37MOL   H33414086   1.974   4.424   2.323  2.7625 -2.0722  2.1066
   37MOL   H33514087   1.775   4.294   2.294 -0.8563  0.4996  0.3084
   37MOL   H33614088   1.788   4.420   2.174  1.3112  0.3759 -1.2343
   37MOL   H33714089   1.614   4.254   2.127 -0.0213  2.8680 -0.6914
   37MOL   H33814090   1.824   4.313   1.931 -0.7895 -0.9255 -0.2051
   37MOL   H33914091   1.656   4.268   1.893 -0.5027 -0.9711  1.7980
   37MOL   H34014092   1.688   4.424   1.977 -1.7042  0.0838  2.1732
   37MOL   H34114093   1.840   4.084   2.020 -0.5445  2.4104 -1.6435
   37MOL   H34214094   1.772   4.056   2.177  0.5801 -0.6932  0.1390
   37MOL   H34314095   1.662   4.045   2.040 -1.9149  1.0586  1.2920
   37MOL   C34414096   2.137   4.290   2.307 -0.5814  0.5481 -0.6111
   37MOL   C34514097   2.232   4.359   2.409 -0.2187  0.2809  0.4262
   37MOL   O34614098   2.318   4.456   2.341 -0.4854 -0.2863 -0.1147
   37MOL   C34714099   2.442   4.482   2.395 -0.1970  0.4896 -0.3547
   37MOL   C34814100   2.494   4.604   2.316 -0.2320 -0.1289 -0.3823
   37MOL   C34914101   2.539   4.543   2.177 -0.8040  0.0617 -0.1285
   37MOL   C35014102   2.604   4.684   2.386  0.2697  0.1280  0.1811
   37MOL   H35114103   2.189   4.236   2.228  0.8446 -0.0694  0.6968
   37MOL   H35214104   2.080   4.215   2.362  1.1013 -0.8137 -0.6677
   37MOL   H35314105   2.299   4.277   2.436 -1.3949 -0.9972 -0.4946
   37MOL   H35414106   2.503   4.396   2.367  0.1276  1.5514 -3.0227
   37MOL   H35514107   2.446   4.512   2.500 -0.3045  1.6126 -0.6599
   37MOL   H35614108   2.402   4.660   2.300 -0.6949 -0.9961 -0.7864
   37MOL   H35714109   2.447   4.510   2.129 -1.0054  1.4349 -0.7174
   37MOL   H35814110   2.605   4.458   2.190  0.0199  0.7405  0.1612
   37MOL   H35914111   2.591   4.612   2.111 -1.2997  2.5607  2.0133
   37MOL   H36014112   2.652   4.751   2.315 -0.8622  0.9641  0.2023
   37MOL   H36114113   2.564   4.759   2.453  0.7198 -0.2938  0.9405
   37MOL   H36214114   2.680   4.623   2.436 -0.8895 -2.3979 -1.0347
   37MOL   C36314115   2.157   4.431   2.521 -0.4356  0.1580  0.3752
   37MOL   C36414116   2.064   4.333   2.612  0.1649 -0.1196 -0.8328
   37MOL   O36514117   2.064   4.380   2.746  0.1602  0.0077  0.0432
   37MOL   C36614118   2.000   4.289   2.835  0.2094  0.2373 -0.0171
   37MOL   C36714119   1.985   4.351   2.971 -0.1440 -0.2622 -0.2886
   37MOL   C36814120   1.891   4.466   2.974  0.0302 -0.1113 -0.0862
   37MOL   C36914121   2.125   4.398   3.033  0.1386 -0.9954  0.5676
   37MOL   H37014122   2.226   4.481   2.588  0.2579 -1.0183  0.5581
   37MOL   H37114123   2.091   4.513   2.492 -1.5191 -0.4268  1.1176
   37MOL   H37214124   2.091   4.227   2.604  2.1859  0.2732  0.4037
   37MOL   H37314125   1.903   4.267   2.788  0.9973  0.2179 -1.6669
   37MOL   H37414126   2.057   4.197   2.851  0.5301  0.1875 -1.3850
   37MOL   H37514127   1.945   4.274   3.038  0.2816  0.5475  0.9204
   37MOL   H37614128   1.936   4.552   2.925 -3.2058  0.8153 -1.5706
   37MOL   H37714129   1.876   4.495   3.079 -1.2775  1.7242 -0.7408
   37MOL   H37814130   1.794   4.454   2.926 -0.5832  1.7237  0.6306
   37MOL   H37914131   2.186   4.308   3.032 -0.8833 -1.7437  2.2539
   37MOL   H38014132   2.119   4.445   3.131  1.2141  0.2153  0.0662
   37MOL   H38114133   2.164   4.473   2.965 -1.0646 -0.0943  0.8706
   37MOL   H38214134   1.963   4.350   2.577 -0.0115  2.7416  0.9668
   38MOL     C114135   7.525   1.112   2.276  0.6596  0.1075 -0.1478
   38MOL     C214136   7.524   1.192   2.149 -0.0926 -0.3822  0.3266
   38MOL     O314137   7.665   1.235   2.137  0.0513  0.8676 -0.1143
   38MOL     C414138   7.663   1.378   2.136  0.5056 -0.5870 -0.1871
   38MOL     C514139   7.806   1.430   2.121 -0.7695 -0.0420  0.2850
   38MOL     C614140   0.080   1.387   2.232  0.4966 -0.3078  0.0303
   38MOL     C714141   7.801   1.585   2.108  0.0847 -0.3800 -0.2537
   38MOL     H814142   7.592   1.027   2.282  0.8216  0.1233 -1.4857
   38MOL     H914143   7.532   1.178   2.362  1.3488  0.4350 -0.4504
   38MOL    H1014144   7.453   1.272   2.167 -0.2700 -0.1874 -1.1756
   38MOL    H1114145   7.614   1.413   2.227 -0.1578 -1.2194 -0.2977
   38MOL    H1214146   7.602   1.419   2.056  1.4636  1.0083 -0.1237
   38MOL    H1314147   0.033   1.405   2.028  1.1954 -0.2261  1.3978
   38MOL    H1414148   0.168   1.451   2.235 -1.6406  2.7247  0.6057
   38MOL    H1514149   0.036   1.399   2.331  1.1561  0.3128  0.2474
   38MOL    H1614150   0.113   1.284   2.225  1.8286 -0.0176  1.8291
   38MOL    H1714151   7.717   1.606   2.042 -0.6625 -1.9578  0.1760
   38MOL    H1814152   7.783   1.646   2.197  2.1046 -1.2213  0.7911
   38MOL    H1914153   0.061   1.628   2.054  0.3815  0.8638  1.1590
   38MOL    H2014154   7.437   1.047   2.274 -0.2023  1.2765 -1.4543
   38MOL    C2114155   7.472   1.110   2.032  0.2102 -0.5019  0.1558
   38MOL    C2214156   7.493   1.163   1.885  0.1741  0.1179 -0.2401
   38MOL    O2314157   7.469   1.058   1.786  0.1887  0.3146  0.1775
   38MOL    C2414158   7.571   1.007   1.707  0.0705  0.1048  0.0000
   38MOL    C2514159   7.511   0.890   1.628 -0.6122 -0.0481 -0.0520
   38MOL    C2614160   7.411   0.948   1.527 -0.4563  0.8245  0.3943
   38MOL    C2714161   7.627   0.818   1.558  0.3790  0.1451 -0.3497
   38MOL    H2814162   7.516   1.011   2.044 -1.3605 -1.6098 -2.6641
   38MOL    H2914163   7.365   1.096   2.048  0.2702 -1.0158  0.1141
   38MOL    H3014164   7.595   1.203   1.882 -0.7634  2.6267 -0.1381
   38MOL    H3114165   7.644   0.976   1.782 -1.0833 -1.6562  0.4291
   38MOL    H3214166   7.613   1.080   1.638 -0.0517  1.3726  1.2434
   38MOL    H3314167   7.470   0.829   1.708  0.2353  2.2180  2.1855
   38MOL    H3414168   7.322   0.987   1.575 -0.7322  0.7508 -0.0551
   38MOL    H3514169   7.377   0.877   1.452  0.5163 -0.2026  0.9181
   38MOL    H3614170   7.458   1.032   1.474  0.3359  0.2484  0.1696
   38MOL    H3714171   7.714   0.810   1.623  0.5841  0.3466 -0.5959
   38MOL    H3814172   7.602   0.719   1.520 -0.3968  0.4913 -0.7740
   38MOL    H3914173   7.664   0.875   1.473  0.1212  0.8898  0.0319
   38MOL    C4014174   7.391   1.275   1.859  1.0092 -0.0055 -0.9910
   38MOL    C4114175   7.409   1.341   1.722  0.1670 -0.3467 -0.1324
   38MOL    O4214176   7.533   1.409   1.729 -0.1269 -0.4926 -0.0105
   38MOL    C4314177   7.607   1.424   1.609 -0.2492  0.3213 -0.0307
   38MOL    C4414178   7.747   1.461   1.653  0.1777  0.3143  0.0918
   38MOL    C4514179   7.818   1.340   1.724 -0.4327 -0.1208 -0.6648
   38MOL    C4614180   0.011   1.512   1.541 -0.6263  0.4388 -0.0203
   38MOL    H4714181   7.396   1.342   1.945 -0.2145 -0.8183 -0.2715
   38MOL    H4814182   7.290   1.234   1.857 -0.1631  2.5999  1.1520
   38MOL    H4914183   7.420   1.261   1.650  0.8090  1.0684 -1.6298
   38MOL    H5014184   7.560   1.508   1.557  1.0675  0.1607 -1.5246
   38MOL    H5114185   7.600   1.331   1.553 -1.3527 -0.0840  0.7817
   38MOL    H5214186   7.744   1.539   1.728 -0.1098  0.5809 -0.1952
   38MOL    H5314187   0.100   1.352   1.747 -0.5602 -1.1115  0.4642
   38MOL    H5414188   7.768   1.311   1.816 -0.1954 -0.6885 -0.7170
   38MOL    H5514189   7.816   1.255   1.656 -1.2137  0.9745 -2.0612
   38MOL    H5614190   0.113   1.522   1.578 -0.9362 -1.2579  1.3893
   38MOL    H5714191   7.788   1.593   1.485 -4.0482 -1.4598 -0.0240
   38MOL    H5814192   0.017   1.434   1.465 -1.8989 -0.6338  0.9568
   38MOL    C5914193   7.286   1.432   1.694 -0.4429  0.7650  0.4264
   38MOL    C6014194   7.153   1.349   1.666  0.1298 -0.1792  0.3129
   38MOL    O6114195   7.086   1.384   1.544  0.1440  0.0370  0.6341
   38MOL    C6214196   7.156   1.351   1.431  0.1584  0.5484  0.1777
   38MOL    C6314197   7.071   1.407   1.313  0.0748  0.1643 -0.8063
   38MOL    C6414198   6.928   1.350   1.293 -0.1701 -0.4386  0.2010
   38MOL    C6514199   7.090   1.559   1.298  0.0664 -0.1090 -0.6822
   38MOL    H6614200   7.312   1.501   1.614  0.3558  1.2562  1.0987
   38MOL    H6714201   7.266   1.489   1.785  1.0200  1.9399  0.0326
   38MOL    H6814202   7.160   1.240   1.662 -1.1914 -0.2970  0.9102
   38MOL    H6914203   7.260   1.382   1.421 -0.0819  1.0604 -0.8592
   38MOL    H7014204   7.158   1.242   1.430 -1.1260  0.5119  0.0346
   38MOL    H7114205   7.118   1.364   1.224 -0.7434 -1.9483 -0.2242
   38MOL    H7214206   6.926   1.247   1.329 -0.3424 -0.4572  0.1412
   38MOL    H7314207   6.898   1.354   1.189  0.9871 -2.2876 -0.2262
   38MOL    H7414208   6.857   1.407   1.353 -0.4506 -0.9651  0.3800
   38MOL    H7514209   7.034   1.608   1.378 -2.4806  0.8599 -2.9816
   38MOL    H7614210   7.195   1.587   1.307 -0.0477 -0.1883  1.0247
   38MOL    H7714211   7.050   1.596   1.204 -0.5920  1.6890  0.2770
   38MOL    C7814212   7.052   1.363   1.775 -0.0966 -0.0557  0.3119
   38MOL    C7914213   6.935   1.259   1.783  0.4816  0.4471 -0.0388
   38MOL    O8014214   6.993   1.135   1.840 -0.3591  0.2765 -0.4768
   38MOL    C8114215   6.972   1.015   1.763  0.8432 -0.5973  0.0885
   38MOL    C8214216   7.027   0.884   1.833  0.5388 -0.0472  0.6605
   38MOL    C8314217   7.158   0.897   1.903  0.7646 -0.0656 -0.7023
   38MOL    C8414218   7.013   0.755   1.753  0.2206  0.0258  0.4566
   38MOL    H8514219   7.021   1.466   1.788  1.0255  0.1693  1.2892
   38MOL    H8614220   7.106   1.351   1.869 -0.7110 -2.5226  0.3946
   38MOL    H8714221   6.898   1.233   1.684  0.7700 -2.0122  0.4628
   38MOL    H8814222   6.867   1.000   1.740  0.7247  0.7095 -0.2415
   38MOL    H8914223   7.019   1.035   1.666  0.5568  0.3786  0.1527
   38MOL    H9014224   6.960   0.869   1.919 -0.1225  2.2827  0.5804
   38MOL    H9114225   7.154   0.972   1.982 -1.3504 -1.0532  0.1651
   38MOL    H9214226   7.239   0.929   1.836  1.6732 -1.1595 -0.1461
   38MOL    H9314227   7.179   0.811   1.965 -1.8160 -0.0777  0.2132
   38MOL    H9414228   7.078   0.745   1.666  0.7493  1.0044  0.7302
   38MOL    H9514229   6.912   0.757   1.713 -0.1027  1.6800  1.2836
   38MOL    H9614230   7.008   0.673   1.824  4.2526  0.0589  0.8854
   38MOL    C9714231   6.832   1.308   1.879 -0.3793  0.1117 -0.0027
   38MOL    C9814232   6.701   1.234   1.870 -0.0322  0.2626 -0.5027
   38MOL    O9914233   6.647   1.290   1.754  0.5363 -0.0797 -0.1625
   38MOL   C10014234   6.565   1.199   1.676 -0.7412 -0.0729 -0.1301
   38MOL   C10114235   6.509   1.266   1.548 -0.0353  0.7436 -0.0868
   38MOL   C10214236   6.624   1.291   1.448 -0.9482 -0.0971  0.2207
   38MOL   C10314237   6.408   1.170   1.474 -0.0867  0.3622 -0.1135
   38MOL   H10414238   6.815   1.414   1.862 -0.2778  0.5292  2.3431
   38MOL   H10514239   6.865   1.307   1.982  0.1421 -1.5415 -0.1640
   38MOL   H10614240   6.711   1.127   1.854 -0.6074  0.0031  0.8238
   38MOL   H10714241   6.478   1.170   1.736  1.4840 -1.5834  2.4791
   38MOL   H10814242   6.617   1.107   1.648 -1.4385 -0.6574  0.4626
   38MOL   H10914243   6.456   1.359   1.569 -1.4488 -0.9668  4.5129
   38MOL   H11014244   6.673   1.384   1.477 -1.1145  0.5129 -1.4422
   38MOL   H11114245   6.703   1.216   1.448 -1.5098 -0.7053  1.0091
   38MOL   H11214246   6.590   1.319   1.349 -0.8425 -1.1323 -0.1190
   38MOL   H11314247   6.361   1.224   1.392  0.0227  2.9866  1.4724
   38MOL   H11414248   6.450   1.075   1.441  1.0211  0.8043 -0.0088
   38MOL   H11514249   6.341   1.129   1.550  0.8901 -0.9474  0.0629
   38MOL   C11614250   6.593   1.251   1.985  0.5177  0.5633  0.0719
   38MOL   C11714251   6.568   1.116   2.063  0.0246  0.1633  0.7481
   38MOL   O11814252   6.507   1.018   1.983  0.1522  0.4372  0.4018
   38MOL   C11914253   6.435   0.923   2.053 -0.4044  0.2397  0.1437
   38MOL   C12014254   6.312   0.883   1.970  0.4289 -0.2359  0.1024
   38MOL   C12114255   6.220   0.995   1.934  0.1138  0.0943  0.4307
   38MOL   C12214256   6.361   0.786   1.855  0.2613  0.2063 -0.6252
   38MOL   H12314257   6.613   1.330   2.057 -1.0329  1.4471 -0.4241
   38MOL   H12414258   6.500   1.287   1.939 -0.6970 -1.8113  0.6221
   38MOL   H12514259   6.501   1.146   2.143  0.3319  1.8963  0.3779
   38MOL   H12614260   6.399   0.967   2.146 -1.3119 -1.7593  0.7668
   38MOL   H12714261   6.499   0.837   2.076  0.7575  0.9169 -0.5043
   38MOL   H12814262   6.249   0.821   2.034 -1.3412  1.2470 -0.1350
   38MOL   H12914263   6.177   1.043   2.022  0.0688  0.2828  0.3057
   38MOL   H13014264   6.147   0.942   1.872  2.4067 -2.4038 -0.2340
   38MOL   H13114265   6.281   1.072   1.888  0.3772  1.0180  2.2773
   38MOL   H13214266   6.413   0.840   1.776 -1.3313  1.7615 -0.6329
   38MOL   H13314267   6.435   0.713   1.888  0.3036  0.4922 -0.0946
   38MOL   H13414268   6.277   0.736   1.806  0.0640 -0.7611  0.6883
   38MOL   C13514269   6.684   1.056   2.132 -0.3155  0.4152 -0.6584
   38MOL   C13614270   6.759   1.152   2.230 -0.6450  0.1684  0.3150
   38MOL   O13714271   6.659   1.176   2.333 -0.9112 -0.1197  0.0797
   38MOL   C13814272   6.671   1.297   2.411 -0.4555  0.5925  1.0911
   38MOL   C13914273   6.550   1.303   2.499  0.7437 -0.1981  1.0591
   38MOL   C14014274   6.539   1.427   2.596 -0.0849  0.3099 -0.2652
   38MOL   C14114275   6.421   1.293   2.410 -0.2340 -0.6310  0.2886
   38MOL   H14214276   6.654   0.965   2.184 -0.1897  0.6003 -0.2556
   38MOL   H14314277   6.752   1.024   2.053  0.1990  2.7930 -1.2317
   38MOL   H14414278   6.788   1.246   2.184 -1.0261  0.2025  0.1449
   38MOL   H14514279   6.660   1.383   2.345 -1.3104  0.0349  0.4932
   38MOL   H14614280   6.771   1.297   2.453 -0.2478  0.3705  0.5899
   38MOL   H14714281   6.546   1.210   2.556 -0.1811 -1.2094 -0.6186
   38MOL   H14814282   6.589   1.517   2.562  0.4472  0.0330 -0.2271
   38MOL   H14914283   6.601   1.400   2.681  1.9412  2.6044 -0.9794
   38MOL   H15014284   6.438   1.460   2.623  0.5844  0.1118  2.6043
   38MOL   H15114285   6.338   1.290   2.481 -0.6440  1.6338 -0.0521
   38MOL   H15214286   6.394   1.373   2.340 -1.8406 -0.6448  0.8727
   38MOL   H15314287   6.410   1.195   2.364 -1.1537 -1.4116  2.1513
   38MOL   C15414288   6.879   1.084   2.297  0.0663  0.3980 -0.6738
   38MOL   C15514289   7.017   1.129   2.240 -0.3682 -0.5759  0.2307
   38MOL   O15614290   7.022   1.272   2.251 -0.7472  0.4109  0.0861
   38MOL   C15714291   7.131   1.322   2.175 -0.1307 -0.2242  0.3662
   38MOL   C15814292   7.139   1.471   2.198  0.4191  0.4760 -0.1057
   38MOL   C15914293   7.265   1.534   2.152 -0.2843 -0.0341  0.5963
   38MOL   C16014294   7.018   1.544   2.126 -0.3000  0.1179 -0.3844
   38MOL   H16114295   6.872   0.976   2.285  0.8459 -0.2399  3.7347
   38MOL   H16214296   6.876   1.086   2.406  1.5981  0.1250 -0.6121
   38MOL   H16314297   7.021   1.104   2.133  1.0635 -1.3471  0.4484
   38MOL   H16414298   7.126   1.303   2.068 -1.1273 -0.8136  0.5114
   38MOL   H16514299   7.223   1.274   2.207 -1.5849 -1.2647  3.1342
   38MOL   H16614300   7.125   1.492   2.304  0.9120  0.1160  0.0290
   38MOL   H16714301   7.351   1.493   2.205  0.6368 -0.5881 -1.2804
   38MOL   H16814302   7.270   1.641   2.174 -4.2009  0.2204  0.4784
   38MOL   H16914303   7.269   1.521   2.044  0.2227  1.0961  0.4635
   38MOL   H17014304   7.036   1.651   2.113 -0.3666  0.0260 -1.2487
   38MOL   H17114305   7.016   1.513   2.021 -0.0469 -0.9766 -0.0733
   38MOL   H17214306   6.915   1.529   2.160 -0.8928  1.5557 -1.4778
   38MOL   C17314307   7.132   1.047   2.298  0.4054 -0.3681  0.0618
   38MOL   C17414308   7.154   1.038   2.449 -0.7393 -0.0935 -0.2545
   38MOL   O17514309   7.260   0.946   2.463 -0.1326 -0.1017  0.0906
   38MOL   C17614310   7.221   0.805   2.484  0.6367  0.6090 -0.1108
   38MOL   C17714311   7.356   0.724   2.506 -0.3868 -0.6854 -0.1723
   38MOL   C17814312   7.460   0.765   2.613 -0.4298 -1.3836  0.4078
   38MOL   C17914313   7.337   0.572   2.506 -0.2766 -0.0176  0.6997
   38MOL   H18014314   7.106   0.946   2.265 -0.0258 -0.2337 -0.0175
   38MOL   H18114315   7.224   1.067   2.243 -0.3843  3.3070 -0.0538
   38MOL   H18214316   7.066   0.999   2.501 -1.3113  1.4911 -0.0069
   38MOL   H18314317   7.163   0.757   2.406  2.4430 -1.1056 -0.4401
   38MOL   H18414318   7.157   0.797   2.572  1.0396  1.2268  0.2466
   38MOL   H18514319   7.403   0.743   2.409  1.0641  1.0747  0.8338
   38MOL   H18614320   7.428   0.753   2.717  1.8336  0.9754  1.4235
   38MOL   H18714321   7.560   0.722   2.606 -0.2998 -0.8511 -1.1293
   38MOL   H18814322   7.468   0.873   2.610 -4.1953 -1.0556 -1.2948
   38MOL   H18914323   7.272   0.544   2.422 -0.8957 -0.9126  1.4668
   38MOL   H19014324   7.295   0.549   2.604  1.7556  0.8785  1.8125
   38MOL   H19114325   7.432   0.520   2.506  1.5505  3.1943  1.4087
   38MOL   C19214326   7.206   1.170   2.514  1.0748 -0.0687  0.0037
   38MOL   C19314327   7.237   1.167   2.663  0.5058  0.1537  0.3545
   38MOL   O19414328   7.130   1.109   2.737 -0.4833 -0.4062  0.6361
   38MOL   C19514329   7.002   1.167   2.732 -0.1792  0.2468  0.2565
   38MOL   C19614330   6.899   1.111   2.834 -0.3917  0.2829 -0.5141
   38MOL   C19714331   6.956   1.134   2.975  0.5594  0.1048  0.2605
   38MOL   C19814332   6.854   0.963   2.805 -0.4807 -0.5801  0.5248
   38MOL   H19914333   7.123   1.236   2.488  0.7960 -1.3548 -2.5416
   38MOL   H20014334   7.293   1.195   2.454  1.9169  1.9560  2.0002
   38MOL   H20114335   7.329   1.111   2.681  1.6482  1.9064  0.1050
   38MOL   H20214336   6.969   1.165   2.629  0.1310  1.2403  0.1285
   38MOL   H20314337   7.018   1.272   2.758 -2.3817  0.8237 -0.6637
   38MOL   H20414338   6.812   1.172   2.813 -1.3914 -1.3343 -1.0915
   38MOL   H20514339   7.036   1.065   3.004 -0.0797 -1.6779 -2.0598
   38MOL   H20614340   6.978   1.238   2.998  0.5705 -0.1621  1.5004
   38MOL   H20714341   6.878   1.125   3.050 -0.3218 -0.2195 -0.6731
   38MOL   H20814342   6.943   0.901   2.819 -1.4110 -2.3318 -1.1411
   38MOL   H20914343   6.777   0.927   2.873 -1.7201 -0.7470 -0.9387
   38MOL   H21014344   6.822   0.948   2.702 -0.5446  1.2820  0.2564
   38MOL   C21114345   7.269   1.310   2.707 -0.3638 -0.7483 -0.2683
   38MOL   C21214346   7.318   1.317   2.851  1.0718  0.0740 -0.6129
   38MOL   O21314347   7.436   1.230   2.844 -0.3927 -0.1124 -0.1523
   38MOL   C21414348   7.427   1.144   2.954 -0.2812  0.5349  0.2891
   38MOL   C21514349   7.565   1.089   2.976 -0.5319  0.0954  0.4986
   38MOL   C21614350   7.551   0.971   3.073  0.3373 -0.6843 -0.5921
   38MOL   C21714351   7.634   1.027   2.841  0.8349  0.0888  0.2286
   38MOL   H21814352   7.184   1.378   2.697 -1.8024 -2.1743  1.9376
   38MOL   H21914353   7.348   1.347   2.642 -2.0239  0.4935 -1.6681
   38MOL   H22014354   7.247   1.276   2.923  0.1940  0.0588 -1.4823
   38MOL   H22114355   7.350   1.067   2.952  0.9863 -0.7268 -0.6168
   38MOL   H22214356   7.407   1.205   3.042 -1.2241 -0.0860  0.5105
   38MOL   H22314357   7.626   1.169   3.017 -0.6610  0.1267  0.6270
   38MOL   H22414358   7.498   0.890   3.023 -0.0437 -0.4893 -0.5083
   38MOL   H22514359   7.645   0.925   3.102  0.6949 -0.7023 -1.7859
   38MOL   H22614360   7.490   1.004   3.157  0.7202  1.6085 -1.1734
   38MOL   H22714361   7.741   1.010   2.853  0.7689  0.7386  1.8173
   38MOL   H22814362   7.619   1.090   2.753  1.6633  0.0868  0.0792
   38MOL   H22914363   7.588   0.933   2.808  0.4184  0.5765 -0.6215
   38MOL   C23014364   7.360   1.457   2.906 -0.4618 -0.0479  0.0139
   38MOL   C23114365   7.247   1.536   2.984 -0.0714  0.2372 -0.4298
   38MOL   O23214366   7.296   1.643   3.066  0.0999 -0.4195  0.1352
   38MOL   C23314367   7.357   1.609   3.187  0.4032 -0.2422  0.0917
   38MOL   C23414368   7.380   1.755   3.257 -0.0594 -0.0019  0.3748
   38MOL   C23514369   7.415   1.718   3.398 -0.4124 -0.6489  0.3701
   38MOL   C23614370   7.487   1.833   3.175 -0.4215  0.6509 -0.4333
   38MOL   H23714371   7.404   1.528   2.835  0.3904  0.7451  1.3187
   38MOL   H23814372   7.451   1.441   2.964  1.0866 -0.2018 -2.3975
   38MOL   H23914373   7.190   1.464   3.043 -2.3807  1.7664 -0.7178
   38MOL   H24014374   7.288   1.543   3.239  0.9891 -0.7922  0.1722
   38MOL   H24114375   7.446   1.547   3.173 -1.4907 -2.4810 -2.6817
   38MOL   H24214376   7.283   1.804   3.261 -0.6329 -1.1016  0.2732
   38MOL   H24314377   7.512   1.673   3.420 -0.2925 -2.2076 -2.9457
   38MOL   H24414378   7.342   1.647   3.435  3.4894 -3.7957  2.4468
   38MOL   H24514379   7.400   1.800   3.468 -1.1487 -1.3341  1.0208
   38MOL   H24614380   7.455   1.852   3.072 -0.9278 -0.7281 -0.5438
   38MOL   H24714381   7.501   1.926   3.230  0.2977  0.3873 -0.1694
   38MOL   H24814382   7.585   1.787   3.167 -0.5191  0.4231 -0.3167
   38MOL   C24914383   7.153   1.599   2.880 -0.5174  0.0664  0.2463
   38MOL   C25014384   7.198   1.691   2.764  0.5325 -0.1361 -0.3273
   38MOL   O25114385   7.078   1.741   2.703  0.1902  0.5414  0.4942
   38MOL   C25214386   7.023   1.635   2.611 -0.6800 -0.9677  0.3197
   38MOL   C25314387   6.937   1.717   2.513  1.0064  0.5476 -0.2841
   38MOL   C25414388   7.020   1.793   2.414  0.5969  0.2880 -0.8611
   38MOL   C25514389   6.837   1.812   2.577 -0.6575  0.2651  0.1572
   38MOL   H25614390   7.086   1.664   2.935 -1.1100 -0.4283  0.1204
   38MOL   H25714391   7.090   1.518   2.842  3.5801 -1.7706 -3.0543
   38MOL   H25814392   7.259   1.618   2.711  1.1735 -0.8891  1.4147
   38MOL   H25914393   7.102   1.579   2.561 -2.7678 -1.6055 -2.4269
   38MOL   H26014394   6.954   1.566   2.659 -4.0441  1.0002 -1.4444
   38MOL   H26114395   6.874   1.644   2.462 -0.8765  0.2161  2.4182
   38MOL   H26214396   7.080   1.725   2.354  1.1494  0.1084 -0.1077
   38MOL   H26314397   7.077   1.863   2.474 -0.3724  0.9464 -0.6891
   38MOL   H26414398   6.946   1.840   2.349  0.3691  0.0144 -0.8016
   38MOL   H26514399   6.882   1.896   2.631 -0.0580 -0.8287  1.3803
   38MOL   H26614400   6.754   1.840   2.512  0.6889  1.4068 -1.1181
   38MOL   H26714401   6.791   1.760   2.661  0.5347 -0.7948  0.1553
   38MOL   C26814402   7.271   1.821   2.813  0.7068 -0.0058 -0.3110
   38MOL   C26914403   7.320   1.917   2.701 -0.0820 -0.8544 -0.0127
   38MOL   O27014404   7.424   1.855   2.625 -0.6223 -0.2464  0.2279
   38MOL   C27114405   7.389   1.800   2.501  0.2108  0.2596  0.1654
   38MOL   C27214406   7.517   1.769   2.423  0.3433 -0.2177 -0.0636
   38MOL   C27314407   7.620   1.895   2.413 -0.4113  0.5900  0.7938
   38MOL   C27414408   7.587   1.645   2.477  0.1456  0.6656 -0.2505
   38MOL   H27514409   7.361   1.812   2.874  1.0897  1.6976 -0.5891
   38MOL   H27614410   7.206   1.875   2.882  1.1178  0.5287 -0.3408
   38MOL   H27714411   7.242   1.939   2.628  1.7077 -0.1236 -1.7346
   38MOL   H27814412   7.326   1.711   2.505  1.1427 -0.4152 -0.1115
   38MOL   H27914413   7.338   1.872   2.438  1.2434 -0.0970 -1.0842
   38MOL   H28014414   7.477   1.743   2.325  0.7653 -0.1745 -0.2477
   38MOL   H28114415   7.586   1.997   2.423 -0.3596  0.6801  0.0684
   38MOL   H28214416   7.662   1.907   2.313 -1.2243  2.0180  0.6257
   38MOL   H28314417   7.702   1.902   2.486  0.2646  1.7647 -0.0734
   38MOL   H28414418   7.675   1.630   2.413  1.4936 -0.4091  1.7944
   38MOL   H28514419   7.530   1.555   2.502 -0.8553  1.1712 -0.7122
   38MOL   H28614420   7.629   1.665   2.576 -0.1625 -1.1979  0.2875
   38MOL   C28714421   7.365   2.052   2.758  0.1834 -0.9920  0.0285
   38MOL   C28814422   7.391   2.159   2.649 -0.2239 -0.1221  0.2191
   38MOL   O28914423   7.468   2.266   2.706 -0.0780  0.8068  0.3813
   38MOL   C29014424   7.549   2.342   2.622 -0.5278 -0.3459  0.1675
   38MOL   C29114425   7.661   2.414   2.697 -0.1126  0.6740  0.4501
   38MOL   C29214426   7.611   2.521   2.795 -0.9293  0.1131  0.5065
   38MOL   C29314427   7.758   2.465   2.598  0.5967  0.7727 -0.6837
   38MOL   H29414428   7.450   2.023   2.819 -0.5906  1.5859  2.4596
   38MOL   H29514429   7.304   2.098   2.836  0.1323 -1.8735  0.5048
   38MOL   H29614430   7.454   2.104   2.579 -0.1306 -0.0572  0.2519
   38MOL   H29714431   7.584   2.284   2.537  0.7660  0.2578  0.2761
   38MOL   H29814432   7.484   2.418   2.578  2.1734  1.9062 -0.0384
   38MOL   H29914433   7.708   2.337   2.758 -1.5739 -0.9914 -0.4840
   38MOL   H30014434   7.679   2.532   2.880 -0.3540 -3.3507  0.5423
   38MOL   H30114435   7.517   2.492   2.841 -0.8068  0.9832  1.3250
   38MOL   H30214436   7.595   2.620   2.752 -1.1386  0.6251  1.7425
   38MOL   H30314437   7.811   2.380   2.555  0.8816 -0.2341  1.5916
   38MOL   H30414438   7.714   2.531   2.522  2.5157  0.3231 -2.2170
   38MOL   H30514439   0.018   2.520   2.639 -1.2542  2.3841  1.0874
   38MOL   C30614440   7.265   2.211   2.592  1.0310 -0.0796  0.4756
   38MOL   C30714441   7.219   2.172   2.455  0.4444  0.1684  0.0272
   38MOL   O30814442   7.104   2.252   2.424  0.7371 -0.0539 -0.4555
   38MOL   C30914443   6.984   2.192   2.449 -0.1182  0.4885 -0.0949
   38MOL   C31014444   6.858   2.271   2.411  0.8841 -0.1011  0.5106
   38MOL   C31114445   6.848   2.287   2.264 -0.6370  0.6400  0.4998
   38MOL   C31214446   6.855   2.418   2.465  0.0356  0.1839  0.6746
   38MOL   H31314447   7.262   2.320   2.598 -2.4022 -0.0306 -0.8788
   38MOL   H31414448   7.184   2.168   2.651  2.2661  0.6880  2.8015
   38MOL   H31514449   7.196   2.066   2.461 -1.4918  0.6153  0.8785
   38MOL   H31614450   6.983   2.149   2.550 -0.7434 -0.1543 -0.3720
   38MOL   H31714451   6.986   2.102   2.389 -3.0972 -0.0772  0.5714
   38MOL   H31814452   6.763   2.221   2.428  0.8019 -1.3137 -3.0981
   38MOL   H31914453   6.932   2.333   2.212 -0.3707 -2.0013 -1.5178
   38MOL   H32014454   6.759   2.339   2.229 -1.8536 -0.4704  1.8584
   38MOL   H32114455   6.836   2.189   2.218  1.1538 -0.1454  1.6722
   38MOL   H32214456   6.763   2.475   2.450  0.2178  0.8621  1.9961
   38MOL   H32314457   6.934   2.467   2.409 -1.1604  0.6922 -0.5903
   38MOL   H32414458   6.892   2.427   2.567 -0.4845  2.6570  0.6739
   38MOL   C32514459   7.319   2.212   2.346 -0.1886 -0.2801  0.1146
   38MOL   C32614460   7.259   2.184   2.213  0.3040 -1.0286 -0.0790
   38MOL   O32714461   7.330   2.272   2.123 -0.3071  0.1386  0.1196
   38MOL   C32814462   7.247   2.367   2.057  0.2257  0.2326  0.3221
   38MOL   C32914463   7.320   2.431   1.941 -0.0131 -0.2733  0.0462
   38MOL   C33014464   7.369   2.313   1.851  0.0716 -0.3178  0.3948
   38MOL   C33114465   7.218   2.527   1.870 -0.4215  0.2223  0.4736
   38MOL   H33214466   7.413   2.159   2.361 -1.4080 -3.2639 -2.2284
   38MOL   H33314467   7.344   2.317   2.363  2.3499 -0.8769  0.2536
   38MOL   H33414468   7.153   2.209   2.218  0.4606 -0.5699  1.2721
   38MOL   H33514469   7.154   2.322   2.021 -1.0042  1.9270  1.2647
   38MOL   H33614470   7.220   2.446   2.128  2.5294  1.3839 -0.0598
   38MOL   H33714471   7.412   2.480   1.973 -0.4418  0.3333  0.3610
   38MOL   H33814472   7.425   2.232   1.898 -1.2105 -2.4041 -1.6095
   38MOL   H33914473   7.289   2.255   1.806 -0.6660  0.4134  0.7388
   38MOL   H34014474   7.442   2.357   1.783  0.8228 -0.1980  1.2649
   38MOL   H34114475   7.119   2.483   1.857 -0.9961  1.9398 -1.2109
   38MOL   H34214476   7.186   2.609   1.934 -1.4777  2.4892 -2.8673
   38MOL   H34314477   7.250   2.574   1.777  0.1328  1.3354  1.2182
   38MOL   C34414478   7.267   2.042   2.158  0.3469 -0.0254 -0.1854
   38MOL   C34514479   7.176   2.009   2.034 -0.1318 -0.1262  0.2408
   38MOL   O34614480   7.224   1.886   1.974  0.0491  0.2343  0.1554
   38MOL   C34714481   7.346   1.906   1.901 -0.2089 -0.3502  0.5294
   38MOL   C34814482   7.343   1.823   1.769  0.0246 -0.2727  0.6370
   38MOL   C34914483   7.465   1.856   1.685  0.5128  0.2520  0.1259
   38MOL   C35014484   7.219   1.846   1.687 -0.0111  0.5338 -0.2724
   38MOL   H35114485   7.245   1.970   2.237  1.4211  1.2459  1.3191
   38MOL   H35214486   7.372   2.022   2.140  0.6585 -0.5330  2.0100
   38MOL   H35314487   7.175   2.092   1.962  0.2852  0.8972  1.3959
   38MOL   H35414488   7.427   1.894   1.973  0.9795  3.5114 -0.0796
   38MOL   H35514489   7.348   2.009   1.867 -0.5231  0.7173  3.5730
   38MOL   H35614490   7.353   1.717   1.792 -1.2703 -0.6370 -0.3957
   38MOL   H35714491   7.451   1.811   1.586 -0.0448  0.5416  0.0738
   38MOL   H35814492   7.560   1.813   1.718  0.2682 -0.6105 -0.2690
   38MOL   H35914493   7.478   1.963   1.670 -0.4547  0.5113  1.0790
   38MOL   H36014494   7.133   1.825   1.751  0.1482 -4.1557 -1.4104
   38MOL   H36114495   7.216   1.945   1.642  2.4596  0.8707  0.2181
   38MOL   H36214496   7.205   1.768   1.612 -0.5445 -0.5985  0.9842
   38MOL   C36314497   7.033   2.000   2.064  0.7815  0.4292 -0.1419
   38MOL   C36414498   6.939   1.962   1.949 -0.6490 -0.0776  0.6366
   38MOL   O36514499   6.814   1.939   2.006  0.7593 -0.4069  0.5556
   38MOL   C36614500   6.794   1.815   2.076 -0.0714  0.4790 -0.1021
   38MOL   C36714501   6.644   1.819   2.128 -0.5218  0.2571  0.6975
   38MOL   C36814502   6.642   1.914   2.242  0.7378 -0.1199 -0.1925
   38MOL   C36914503   6.594   1.678   2.162  0.2924  0.0952 -0.2643
   38MOL   H37014504   7.025   1.923   2.141 -1.8936  1.4372  0.6539
   38MOL   H37114505   6.990   2.092   2.104  1.6361  0.1077  1.5378
   38MOL   H37214506   6.984   1.882   1.890 -0.5608  1.2684 -1.1695
   38MOL   H37314507   6.801   1.737   1.999  0.6047  0.0037  0.4297
   38MOL   H37414508   6.855   1.787   2.162 -1.6236 -0.1188  0.8250
   38MOL   H37514509   6.574   1.862   2.057 -0.4592  2.4037  1.9106
   38MOL   H37614510   6.732   1.906   2.304  1.1833 -2.9139 -1.1315
   38MOL   H37714511   6.558   1.880   2.303 -1.3041 -0.2738 -3.0218
   38MOL   H37814512   6.630   2.019   2.217 -0.7157 -0.6775 -1.9310
   38MOL   H37914513   6.605   1.624   2.069 -3.0479 -0.0911 -0.5780
   38MOL   H38014514   6.491   1.682   2.195  1.1746 -1.5448  2.9374
   38MOL   H38114515   6.649   1.620   2.237 -1.6974 -1.4262  0.0470
   38MOL   H38214516   6.944   2.043   1.877 -3.4341  1.2726  1.8756
   39MOL     C114517   4.005   4.254   1.485  0.7513  0.0253  0.3948
   39MOL     C214518   4.110   4.237   1.599  0.0167 -0.0212 -0.6428
   39MOL     O314519   4.119   4.364   1.656 -0.4466 -0.4396 -0.4583
   39MOL     C414520   4.246   4.423   1.670 -0.6838  0.9722 -0.2030
   39MOL     C514521   4.230   4.561   1.726  0.4249  0.0147  0.0053
   39MOL     C614522   4.199   4.549   1.878 -0.0816 -0.0890  0.3595
   39MOL     C714523   4.128   4.644   1.646  0.5136 -0.0914  0.5686
   39MOL     H814524   3.913   4.283   1.536 -0.7635 -1.5914 -1.3073
   39MOL     H914525   4.036   4.328   1.411  0.4162  1.4052  1.6228
   39MOL    H1014526   4.208   4.200   1.569  0.7486  1.2279  0.1274
   39MOL    H1114527   4.288   4.440   1.571  1.8920 -1.2235  0.4391
   39MOL    H1214528   4.312   4.360   1.731 -0.6001  0.4150 -0.8610
   39MOL    H1314529   4.325   4.614   1.718 -0.2671  1.2499 -0.2748
   39MOL    H1414530   4.118   4.481   1.905  0.5339 -1.1819 -0.5025
   39MOL    H1514531   4.281   4.507   1.937 -0.9230  0.4634  1.9471
   39MOL    H1614532   4.177   4.645   1.925 -1.3005  0.6805 -1.7156
   39MOL    H1714533   4.109   4.734   1.704 -0.0549 -0.1855  0.5358
   39MOL    H1814534   4.169   4.681   1.552 -1.2058  1.3939  0.3695
   39MOL    H1914535   4.034   4.592   1.625  0.1244  0.9155 -0.2120
   39MOL    H2014536   3.989   4.161   1.431  0.4515 -0.4030  1.2184
   39MOL    C2114537   4.081   4.130   1.700  0.1325  0.8428  0.1636
   39MOL    C2214538   3.969   4.161   1.807 -0.8535 -0.4725 -0.5127
   39MOL    O2314539   3.846   4.161   1.746  0.6240  0.2198  0.1321
   39MOL    C2414540   3.776   4.289   1.769  0.4870 -0.4572 -0.1267
   39MOL    C2514541   3.622   4.281   1.728  0.6818  0.4396  0.3210
   39MOL    C2614542   3.611   4.237   1.579 -0.2706  0.0510  0.0210
   39MOL    C2714543   3.542   4.197   1.820  0.3627 -0.1368 -0.0913
   39MOL    H2814544   4.071   4.032   1.655  1.4560 -0.5090  2.7059
   39MOL    H2914545   4.175   4.130   1.756 -0.0484  1.0460  0.4732
   39MOL    H3014546   3.994   4.255   1.856 -1.9995 -0.6253  0.3748
   39MOL    H3114547   3.831   4.363   1.711 -0.8254  0.0672 -0.7302
   39MOL    H3214548   3.787   4.329   1.870 -1.0363  3.6638 -1.4748
   39MOL    H3314549   3.589   4.385   1.724 -1.2269 -0.1763 -0.3513
   39MOL    H3414550   3.505   4.235   1.551 -0.6091 -0.4824  1.2882
   39MOL    H3514551   3.648   4.137   1.559 -0.9265 -0.1997  0.0225
   39MOL    H3614552   3.661   4.304   1.509 -0.9042  2.2520  1.6048
   39MOL    H3714553   3.566   4.092   1.805  2.1991  0.4328 -1.2764
   39MOL    H3814554   3.546   4.228   1.924 -3.2400  1.2003 -0.2879
   39MOL    H3914555   3.440   4.198   1.783 -0.1204 -0.0208  1.2144
   39MOL    C4014556   3.972   4.047   1.912 -0.1853 -1.0122  0.1472
   39MOL    C4114557   4.051   4.075   2.040  0.7651  0.2519 -0.7822
   39MOL    O4214558   4.183   4.071   1.993  0.4238 -0.1451  0.6090
   39MOL    C4314559   4.278   4.154   2.061  0.3169  0.4854  0.3507
   39MOL    C4414560   4.421   4.109   2.028 -0.6200  0.6943  0.9677
   39MOL    C4514561   4.470   3.984   2.109 -0.4890 -0.1942 -0.2882
   39MOL    C4614562   4.437   4.085   1.878  0.5821 -0.0161  0.2621
   39MOL    H4714563   3.983   3.948   1.869  1.8385 -0.5258 -0.5517
   39MOL    H4814564   3.871   4.036   1.951 -0.3754 -1.6428 -0.5156
   39MOL    H4914565   4.036   4.178   2.072 -2.0218  0.1634 -1.6605
   39MOL    H5014566   4.263   4.153   2.169  0.5882  2.3949  0.4077
   39MOL    H5114567   4.255   4.259   2.047 -0.4156  0.0505 -2.0438
   39MOL    H5214568   4.483   4.195   2.053  1.2329 -0.7497  1.5279
   39MOL    H5314569   4.568   3.943   2.084 -1.6467 -2.9995 -0.5140
   39MOL    H5414570   4.472   3.996   2.217 -1.0204 -0.1757 -0.2788
   39MOL    H5514571   4.398   3.903   2.097  0.0425 -0.9590  1.4830
   39MOL    H5614572   4.367   4.010   1.838  1.1748 -1.3931  1.7456
   39MOL    H5714573   4.532   4.034   1.859  1.0345  0.7377  0.5099
   39MOL    H5814574   4.438   4.180   1.825 -1.1879 -0.2704 -0.2578
   39MOL    C5914575   4.023   3.986   2.162  0.1145 -0.1019 -0.0493
   39MOL    C6014576   3.898   4.008   2.253  0.0993 -0.1179 -0.0163
   39MOL    O6114577   3.927   4.115   2.344 -0.1653 -0.3340  0.6209
   39MOL    C6214578   3.845   4.226   2.323 -0.3371  0.8409  0.3876
   39MOL    C6314579   3.888   4.345   2.411 -0.3263  0.3044  0.4742
   39MOL    C6414580   3.882   4.313   2.558 -0.1662  0.2558 -0.8359
   39MOL    C6514581   4.019   4.399   2.364  0.1331  0.3945 -0.3970
   39MOL    H6614582   4.105   3.978   2.233 -0.0902 -0.3678  0.1594
   39MOL    H6714583   4.009   3.891   2.111 -3.6580  0.2848  0.1017
   39MOL    H6814584   3.819   4.032   2.182 -0.6257 -1.2993  0.3693
   39MOL    H6914585   3.852   4.269   2.223  2.5492 -0.6156 -0.1047
   39MOL    H7014586   3.742   4.202   2.347 -0.0754 -0.9543 -0.2394
   39MOL    H7114587   3.809   4.421   2.403  0.1308  0.5682 -1.8220
   39MOL    H7214588   3.930   4.392   2.616  0.4014 -1.4411  1.0715
   39MOL    H7314589   3.932   4.218   2.578  0.6065  0.9403  0.5971
   39MOL    H7414590   3.780   4.308   2.596  0.2578  1.3725  0.5240
   39MOL    H7514591   4.005   4.427   2.259  2.4766  1.2910 -0.4913
   39MOL    H7614592   4.032   4.492   2.418 -2.1333 -1.0569  2.8014
   39MOL    H7714593   4.104   4.330   2.361  0.4318  0.7214  0.6303
   39MOL    C7814594   3.854   3.878   2.336  0.2653  0.6706  0.1074
   39MOL    C7914595   3.716   3.884   2.401  0.0206  0.1035  0.1979
   39MOL    O8014596   3.691   3.745   2.429  0.0037 -0.0320 -0.3078
   39MOL    C8114597   3.563   3.711   2.369 -0.8313  0.4024  0.1739
   39MOL    C8214598   3.525   3.566   2.407  0.3108 -0.7351 -0.0353
   39MOL    C8314599   3.537   3.538   2.557  0.2571  0.2920 -0.1423
   39MOL    C8414600   3.612   3.463   2.320 -0.1386 -0.3234  0.4164
   39MOL    H8514601   3.919   3.851   2.420 -2.8049 -0.8587  2.1036
   39MOL    H8614602   3.850   3.789   2.273 -3.4281 -1.2163  2.8008
   39MOL    H8714603   3.650   3.925   2.324 -2.9786 -1.9397  1.5744
   39MOL    H8814604   3.492   3.785   2.406 -2.5367 -1.6995  1.2218
   39MOL    H8914605   3.578   3.727   2.262 -0.3563 -2.6144 -0.2527
   39MOL    H9014606   3.421   3.559   2.373  0.9022 -0.9536 -1.8443
   39MOL    H9114607   3.505   3.436   2.573 -2.0183  1.0601  0.3798
   39MOL    H9214608   3.460   3.596   2.609  0.5764  1.2709 -0.7392
   39MOL    H9314609   3.637   3.562   2.595  0.0765 -0.7534  1.0182
   39MOL    H9414610   3.598   3.492   2.216 -1.3915 -0.4562  0.5328
   39MOL    H9514611   3.564   3.365   2.318 -0.5940 -0.0836 -0.6065
   39MOL    H9614612   3.719   3.464   2.342  0.0433 -0.8539 -0.4244
   39MOL    C9714613   3.711   3.969   2.528  0.2411 -0.2019  0.8060
   39MOL    C9814614   3.575   4.010   2.579  0.1870 -0.4744  0.3380
   39MOL    O9914615   3.523   4.100   2.480  0.2965  0.3132 -0.5758
   39MOL   C10014616   3.384   4.086   2.439 -0.0176  0.9131 -0.2242
   39MOL   C10114617   3.359   4.189   2.320 -0.0284 -0.3362 -0.4545
   39MOL   C10214618   3.404   4.127   2.186 -0.5125  0.0165 -0.0971
   39MOL   C10314619   3.220   4.240   2.329  0.3439  0.8460 -0.2183
   39MOL   H10414620   3.776   4.057   2.521 -0.6679  0.2768 -3.4952
   39MOL   H10514621   3.758   3.901   2.598  1.6253  0.1030  0.1951
   39MOL   H10614622   3.516   3.918   2.581  0.4684 -0.6308  2.0727
   39MOL   H10714623   3.333   4.114   2.531  1.1816 -0.7250  0.9668
   39MOL   H10814624   3.364   3.982   2.414  1.9738 -0.0654  2.0865
   39MOL   H10914625   3.412   4.281   2.345 -2.2897  1.2875 -1.4223
   39MOL   H11014626   3.505   4.090   2.199  0.2809  2.6077  1.2475
   39MOL   H11114627   3.340   4.044   2.154 -0.6526 -0.0611  0.3826
   39MOL   H11214628   3.397   4.200   2.105  0.3046  0.2214  0.0215
   39MOL   H11314629   3.217   4.316   2.251 -1.9153 -0.6170 -1.6273
   39MOL   H11414630   3.148   4.159   2.318  0.3002  0.4951  2.4239
   39MOL   H11514631   3.191   4.294   2.419  0.5284  2.1927 -0.9527
   39MOL   C11614632   3.575   4.102   2.708  0.2294 -0.7581 -0.0678
   39MOL   C11714633   3.610   4.024   2.836  0.8843 -0.6880 -0.8629
   39MOL   O11814634   3.750   3.973   2.848 -0.3630 -0.5034  1.0260
   39MOL   C11914635   3.855   4.066   2.869 -0.0282 -0.3169  0.0062
   39MOL   C12014636   3.985   3.992   2.909  0.0356  0.2924  0.1416
   39MOL   C12114637   3.960   3.925   3.044  0.0332  0.0067  0.2362
   39MOL   C12214638   4.018   3.897   2.797  0.4688  0.3747 -0.0742
   39MOL   H12314639   3.652   4.178   2.708  0.3427 -0.8704 -0.5748
   39MOL   H12414640   3.476   4.147   2.723  0.3107 -0.2074 -1.1664
   39MOL   H12514641   3.549   3.935   2.830 -0.7736  0.3567  0.1320
   39MOL   H12614642   3.822   4.131   2.950  1.7983  2.3259 -1.2791
   39MOL   H12714643   3.861   4.120   2.774 -0.2012 -0.8200 -0.2926
   39MOL   H12814644   4.055   4.076   2.912  1.8867 -1.2377  0.1940
   39MOL   H12914645   3.887   3.845   3.034  1.2464 -1.1913  0.6773
   39MOL   H13014646   3.928   3.996   3.120  1.2784 -0.4732  1.2310
   39MOL   H13114647   4.049   3.873   3.081 -0.6867  0.2288  2.3366
   39MOL   H13214648   3.937   3.828   2.777 -1.7094  2.3894  1.5700
   39MOL   H13314649   4.024   3.947   2.701 -1.4818 -0.4984 -0.6619
   39MOL   H13414650   4.111   3.840   2.805  1.2248  1.7739  1.5267
   39MOL   C13514651   3.568   4.100   2.969 -0.6022  0.0573  0.4745
   39MOL   C13614652   3.420   4.125   2.978  0.4776  0.4899 -0.2201
   39MOL   O13714653   3.343   4.004   2.972  0.1651  0.2925 -0.3109
   39MOL   C13814654   3.243   4.011   2.872  0.3539 -0.5015  0.6043
   39MOL   C13914655   3.171   3.874   2.869  0.1423 -0.2030 -0.2042
   39MOL   C14014656   3.262   3.755   2.842 -0.3882 -0.5037 -0.1425
   39MOL   C14114657   3.094   3.846   2.990  0.9386 -0.4137  0.4064
   39MOL   H14214658   3.602   4.047   3.059 -1.7385 -0.7710  0.4288
   39MOL   H14314659   3.620   4.196   2.968  1.6876 -1.1561 -1.8991
   39MOL   H14414660   3.388   4.190   2.897 -1.8788  1.6564  1.5529
   39MOL   H14514661   3.295   4.020   2.777 -0.9046  0.1327 -0.0357
   39MOL   H14614662   3.171   4.092   2.885  1.3554  0.3980  0.6156
   39MOL   H14714663   3.115   3.892   2.778  1.3761  0.9824 -0.7537
   39MOL   H14814664   3.210   3.660   2.824  0.1405 -1.0491  1.1049
   39MOL   H14914665   3.324   3.741   2.931 -0.5140  0.7478  0.1484
   39MOL   H15014666   3.329   3.778   2.760 -1.7617  1.5492 -0.7163
   39MOL   H15114667   3.025   3.919   3.034  1.2992  1.0708 -1.4405
   39MOL   H15214668   3.046   3.753   2.961 -2.4614  1.2444  0.4015
   39MOL   H15314669   3.162   3.825   3.072 -2.1274 -1.7998  2.7282
   39MOL   C15414670   3.381   4.181   3.121 -0.1848  0.4985 -0.0672
   39MOL   C15514671   3.245   4.243   3.138 -0.8159 -0.1468  0.3515
   39MOL   O15614672   3.229   4.289   3.275  0.1975 -0.4178  0.1384
   39MOL   C15714673   3.160   4.193   3.350 -0.6159 -0.1742  0.1172
   39MOL   C15814674   3.152   4.234   3.499 -0.0090  0.7858 -0.1959
   39MOL   C15914675   3.088   4.372   3.513  0.7154  0.1380 -0.7159
   39MOL   C16014676   3.082   4.128   3.585  0.4171 -0.2194  0.3561
   39MOL   H16114677   3.460   4.246   3.160 -0.2092 -1.5401  3.6342
   39MOL   H16214678   3.388   4.102   3.196 -1.9926  0.3641 -0.0311
   39MOL   H16314679   3.175   4.167   3.104  0.2758 -0.2369 -1.7856
   39MOL   H16414680   3.201   4.093   3.340 -1.7947 -0.8111  1.5156
   39MOL   H16514681   3.061   4.182   3.303 -1.2897 -0.6466  1.6322
   39MOL   H16614682   3.253   4.256   3.534 -0.4036 -0.0130  1.5032
   39MOL   H16714683   3.138   4.443   3.446  1.9361  0.5655  0.6270
   39MOL   H16814684   3.103   4.410   3.614  1.9421  1.0777 -1.2417
   39MOL   H16914685   2.984   4.371   3.481  0.9350  0.5829 -1.4635
   39MOL   H17014686   3.130   4.030   3.577 -1.0988 -0.9069 -0.8141
   39MOL   H17114687   3.078   4.161   3.688  0.2596 -0.4921  0.4370
   39MOL   H17214688   2.979   4.117   3.551 -0.2423  2.8878  1.2105
   39MOL   C17314689   3.236   4.376   3.051  0.4022 -0.2415  0.8653
   39MOL   C17414690   3.093   4.441   3.068 -0.3908  0.8383 -0.1225
   39MOL   O17514691   3.095   4.572   3.004  0.3177  0.3931  0.1891
   39MOL   C17614692   3.158   4.661   3.085 -0.8261 -0.1630 -0.0634
   39MOL   C17714693   3.191   4.787   2.998 -0.3330  0.2510 -0.2282
   39MOL   C17814694   3.282   4.746   2.880 -0.4726 -0.0366  0.2522
   39MOL   C17914695   3.068   4.871   2.948  0.0586 -0.0940 -0.4321
   39MOL   H18014696   3.315   4.448   3.074 -0.5584  1.1101  0.0631
   39MOL   H18114697   3.243   4.354   2.944 -0.5840 -0.4793  0.8493
   39MOL   H18214698   3.069   4.450   3.174 -0.2278 -0.4079  0.0347
   39MOL   H18314699   3.256   4.631   3.121  0.0154  2.2102 -0.2617
   39MOL   H18414700   3.093   4.685   3.169 -1.8011 -0.4414 -0.7199
   39MOL   H18514701   3.258   4.846   3.061  1.5912 -1.9529 -0.1740
   39MOL   H18614702   3.234   4.699   2.794 -2.7467 -1.2665  2.1198
   39MOL   H18714703   3.330   4.834   2.837  1.8820 -0.4209  2.0009
   39MOL   H18814704   3.361   4.679   2.914  0.3230  0.4439 -0.5983
   39MOL   H18914705   3.014   4.900   3.039  0.5315 -0.0864 -0.1547
   39MOL   H19014706   3.006   4.825   2.871  1.7927 -0.0264 -1.8877
   39MOL   H19114707   3.101   4.966   2.909 -2.2468  1.6319  1.6164
   39MOL   C19214708   2.990   4.360   2.991  0.1154 -0.1128 -0.5613
   39MOL   C19314709   2.847   4.399   3.037 -0.1819 -0.2452  0.1286
   39MOL   O19414710   2.793   4.321   3.143 -0.1496  0.0573  0.7576
   39MOL   C19514711   2.779   4.381   3.271  0.2979 -0.3273  0.1240
   39MOL   C19614712   2.671   4.314   3.354  0.0222  0.0978 -0.4844
   39MOL   C19714713   2.698   4.162   3.378  0.2521  0.3147  0.4992
   39MOL   C19814714   2.531   4.338   3.310 -0.4683 -0.4952  0.4013
   39MOL   H19914715   2.999   4.252   3.004  0.1476  0.0295  0.6811
   39MOL   H20014716   3.001   4.387   2.886 -0.1340  1.3517 -0.2235
   39MOL   H20114717   2.867   4.499   3.076  2.9356 -1.2189  1.1667
   39MOL   H20214718   2.765   4.489   3.280  2.0335  0.1015 -1.8166
   39MOL   H20314719   2.875   4.351   3.314  0.4963 -0.0421 -0.1112
   39MOL   H20414720   2.683   4.357   3.454 -0.1845  2.0389 -1.2842
   39MOL   H20514721   2.782   4.150   3.447 -0.5528  0.0479  1.4521
   39MOL   H20614722   2.604   4.128   3.422 -0.4122  0.3197 -0.9037
   39MOL   H20714723   2.718   4.117   3.281 -0.0107  1.1028  0.0726
   39MOL   H20814724   2.456   4.295   3.376  0.0960 -0.4177  1.1027
   39MOL   H20914725   2.515   4.443   3.287 -0.0489 -0.2570  1.1728
   39MOL   H21014726   2.519   4.284   3.215 -0.6115 -0.8210  0.6022
   39MOL   C21114727   2.755   4.401   2.915 -0.2488 -0.0222  0.1279
   39MOL   C21214728   2.604   4.447   2.921  0.5010  0.7648 -0.3384
   39MOL   O21314729   2.603   4.588   2.939 -0.4161  0.2266  0.0853
   39MOL   C21414730   2.561   4.636   3.065  0.4728 -0.1034 -0.4573
   39MOL   C21514731   2.559   4.786   3.048 -0.0134  0.6163  0.5274
   39MOL   C21614732   2.445   4.838   2.958 -0.0370 -0.2738  0.8843
   39MOL   C21714733   2.567   4.849   3.189 -0.2956  0.0789  0.1692
   39MOL   H21814734   2.751   4.297   2.880 -0.5881  0.2159 -0.5482
   39MOL   H21914735   2.798   4.448   2.827  2.5771 -2.8138 -0.0654
   39MOL   H22014736   2.558   4.392   3.003  1.0284  0.3952 -0.2857
   39MOL   H22114737   2.630   4.590   3.135  0.0004  0.2010  0.2208
   39MOL   H22214738   2.460   4.596   3.079 -0.0571  0.5637 -2.2506
   39MOL   H22314739   2.650   4.818   2.997  0.6118  0.9738  1.8398
   39MOL   H22414740   2.431   4.787   2.862  1.7305  1.1329 -0.1562
   39MOL   H22514741   2.346   4.817   3.000 -0.6929  2.2365  0.6717
   39MOL   H22614742   2.442   4.940   2.919 -0.7192 -0.9543 -0.8980
   39MOL   H22714743   2.581   4.955   3.170  1.4693 -0.1593 -0.0043
   39MOL   H22814744   2.646   4.807   3.252  1.6104  0.9075 -1.6053
   39MOL   H22914745   2.474   4.839   3.244  0.2291  1.5325  1.3520
   39MOL   C23014746   2.533   4.416   2.787  0.1316  0.6927 -0.5430
   39MOL   C23114747   2.525   4.273   2.724  0.1219  0.0226  0.1884
   39MOL   O23214748   2.652   4.221   2.684  0.4489 -0.0879 -0.0198
   39MOL   C23314749   2.682   4.234   2.548  0.0556  0.7095 -0.6785
   39MOL   C23414750   2.817   4.164   2.527  0.5502  0.5466  0.5730
   39MOL   C23514751   2.924   4.253   2.579 -0.3010 -0.0886 -0.7881
   39MOL   C23614752   2.828   4.023   2.581  0.0053 -0.1708  0.1674
   39MOL   H23714753   2.566   4.490   2.714  0.1359  1.7257  0.4812
   39MOL   H23814754   2.433   4.454   2.807  0.4315  2.2489 -1.8966
   39MOL   H23914755   2.454   4.276   2.642 -0.1182 -0.4344  0.3763
   39MOL   H24014756   2.600   4.193   2.488  0.3193 -1.6704  0.5469
   39MOL   H24114757   2.679   4.341   2.525 -0.3564  1.4993  2.7297
   39MOL   H24214758   2.829   4.164   2.419 -0.6153 -1.3096  0.4263
   39MOL   H24314759   2.917   4.256   2.687  0.6461 -1.1088 -0.6944
   39MOL   H24414760   2.923   4.351   2.531 -0.2568  1.0518  1.4981
   39MOL   H24514761   3.017   4.204   2.551  0.1168 -0.1152  0.6313
   39MOL   H24614762   2.817   4.016   2.690 -0.9329 -1.0019  0.0266
   39MOL   H24714763   2.742   3.966   2.546 -0.9606  0.9347  0.7167
   39MOL   H24814764   2.915   3.971   2.543 -1.2517 -0.4622 -2.3609
   39MOL   C24914765   2.454   4.174   2.822 -0.1302  0.4047  0.4889
   39MOL   C25014766   2.434   4.028   2.767 -0.1032 -0.6085 -0.0330
   39MOL   O25114767   2.405   3.947   2.877  0.1096  0.1148 -0.1963
   39MOL   C25214768   2.517   3.879   2.936  0.0983  0.2473 -0.6145
   39MOL   C25314769   2.609   3.947   3.041 -0.0010  0.3563  0.1798
   39MOL   C25414770   2.734   4.005   2.972  0.5633 -0.2065  0.2524
   39MOL   C25514771   2.645   3.853   3.156  0.9195 -0.2615  0.7132
   39MOL   H25614772   2.354   4.214   2.830  0.4749  1.9405  0.5431
   39MOL   H25714773   2.503   4.160   2.919  1.8028  0.4268 -0.4463
   39MOL   H25814774   2.515   3.998   2.700 -0.3540 -1.2462 -0.0548
   39MOL   H25914775   2.472   3.792   2.983  0.7829  0.0028 -0.4044
   39MOL   H26014776   2.582   3.831   2.862  0.6815  0.3244 -0.1561
   39MOL   H26114777   2.543   4.019   3.089  1.6618  0.9173  1.6426
   39MOL   H26214778   2.798   4.052   3.047  0.8382 -0.7741  0.3705
   39MOL   H26314779   2.703   4.072   2.891  1.3593  0.0674  0.1752
   39MOL   H26414780   2.794   3.934   2.917 -0.1640 -0.6705  0.0449
   39MOL   H26514781   2.700   3.908   3.232  0.2469  0.5064  0.6561
   39MOL   H26614782   2.549   3.819   3.196  0.6040 -0.5557 -0.2692
   39MOL   H26714783   2.699   3.770   3.111  1.8164  0.8189 -0.2371
   39MOL   C26814784   2.313   4.030   2.667  0.0862 -0.2878 -0.4443
   39MOL   C26914785   2.281   3.895   2.601 -0.4250  0.4566  0.1274
   39MOL   O27014786   2.400   3.858   2.538  0.2748 -0.2634  0.0671
   39MOL   C27114787   2.452   3.731   2.578  0.2608 -0.1870  0.6704
   39MOL   C27214788   2.574   3.697   2.500 -0.7045  0.2851  0.3170
   39MOL   C27314789   2.651   3.573   2.539  0.1957  0.5529 -0.0772
   39MOL   C27414790   2.540   3.685   2.354 -0.2432 -0.1581 -0.7367
   39MOL   H27514791   2.346   4.084   2.579 -2.8416 -1.5519 -2.3805
   39MOL   H27614792   2.233   4.093   2.705 -0.3930  0.3150 -2.4386
   39MOL   H27714793   2.250   3.819   2.673  1.0540 -0.0878  0.1978
   39MOL   H27814794   2.482   3.737   2.683  1.0110 -1.2380  0.5183
   39MOL   H27914795   2.380   3.649   2.573 -0.1184  0.1548  0.5015
   39MOL   H28014796   2.641   3.782   2.507  0.5392 -0.7702  1.3575
   39MOL   H28114797   2.715   3.538   2.458  0.9296  1.2008  0.2225
   39MOL   H28214798   2.596   3.491   2.585  0.5127 -0.4697 -1.4954
   39MOL   H28314799   2.717   3.607   2.618 -2.2481  0.1852  2.1880
   39MOL   H28414800   2.502   3.777   2.307  0.3885  1.3973  1.7042
   39MOL   H28514801   2.477   3.599   2.333  0.5940 -0.3057 -2.7788
   39MOL   H28614802   2.635   3.677   2.301  0.1287  0.2757 -0.1323
   39MOL   C28714803   2.163   3.906   2.499 -0.4437  0.3784 -0.0328
   39MOL   C28814804   2.105   3.772   2.448 -0.4910 -0.4537 -0.0087
   39MOL   O28914805   2.046   3.799   2.323 -0.7144  0.1600  0.1297
   39MOL   C29014806   2.073   3.706   2.222  0.3874 -0.0829  0.2919
   39MOL   C29114807   2.009   3.764   2.094 -0.6771  0.6072  0.5365
   39MOL   C29214808   1.968   3.660   1.997  0.2943  0.7559 -0.3288
   39MOL   C29314809   2.112   3.865   2.038  0.1836  0.5784  0.1143
   39MOL   H29414810   2.196   3.961   2.411  1.2115 -1.6746 -0.7536
   39MOL   H29514811   2.096   3.969   2.557  1.9539  2.0155  1.0685
   39MOL   H29614812   2.182   3.696   2.442 -1.4195 -1.5332  1.3568
   39MOL   H29714813   2.182   3.698   2.217  0.4194  1.3231 -3.3060
   39MOL   H29814814   2.037   3.606   2.246  0.9008  0.3947  3.1875
   39MOL   H29914815   1.922   3.826   2.117 -1.0705  0.3276 -0.1684
   39MOL   H30014816   1.905   3.707   1.921  0.1489  0.9266 -0.1018
   39MOL   H30114817   1.898   3.594   2.047 -0.4913  1.7698 -0.0748
   39MOL   H30214818   2.060   3.612   1.962  1.1326  2.5384 -0.6561
   39MOL   H30314819   2.058   3.923   1.962  0.1526 -0.4104 -0.6280
   39MOL   H30414820   2.140   3.938   2.114 -0.6632  1.0699 -0.0315
   39MOL   H30514821   2.194   3.803   2.002 -0.6672 -1.6681  1.9295
   39MOL   C30614822   1.995   3.721   2.542 -0.3938 -0.7489  0.0045
   39MOL   C30714823   1.955   3.576   2.522  0.4793  0.3781 -0.1225
   39MOL   O30814824   2.064   3.494   2.562  0.0098  0.0125  0.3690
   39MOL   C30914825   2.079   3.363   2.505 -0.2480 -0.5379 -0.8042
   39MOL   C31014826   2.204   3.281   2.551  0.4052  0.2619 -0.2409
   39MOL   C31114827   2.238   3.293   2.704  0.1139 -0.0658  0.3202
   39MOL   C31214828   2.320   3.316   2.463 -0.0606  0.0740  0.9042
   39MOL   H31314829   1.905   3.777   2.516 -0.7426 -2.3400 -2.3815
   39MOL   H31414830   2.021   3.734   2.647  3.7479  1.6564 -1.2008
   39MOL   H31514831   1.921   3.561   2.420 -0.5181  0.5081  0.1857
   39MOL   H31614832   2.058   3.368   2.399 -0.5938 -0.5475 -0.7377
   39MOL   H31714833   1.994   3.310   2.547 -0.3115  0.8112  0.8555
   39MOL   H31814834   2.187   3.174   2.536  1.3481 -0.3192  2.4622
   39MOL   H31914835   2.308   3.213   2.728 -1.5207 -2.9012 -3.7637
   39MOL   H32014836   2.147   3.287   2.764  0.5430  0.9398  1.0789
   39MOL   H32114837   2.276   3.393   2.726  1.2945 -0.6663  1.0094
   39MOL   H32214838   2.287   3.334   2.360  0.3637  0.5566  0.8563
   39MOL   H32314839   2.400   3.242   2.457 -0.3053 -0.1286 -0.0128
   39MOL   H32414840   2.369   3.409   2.490 -0.8463  1.6814 -2.9087
   39MOL   C32514841   1.836   3.531   2.607  0.7088  0.3374  0.5510
   39MOL   C32614842   1.708   3.596   2.578  1.3285 -0.3090  0.2313
   39MOL   O32714843   1.668   3.548   2.454 -0.3810  0.3031  0.1093
   39MOL   C32814844   1.636   3.640   2.355 -0.4908 -0.5043 -0.0339
   39MOL   C32914845   1.614   3.552   2.232 -0.4109 -0.3090 -0.1387
   39MOL   C33014846   1.507   3.442   2.252 -0.2160  0.1762  0.6746
   39MOL   C33114847   1.574   3.641   2.112 -0.5153  0.7766  0.1941
   39MOL   H33214848   1.854   3.555   2.711  1.3118 -1.6041  0.9181
   39MOL   H33314849   1.816   3.424   2.600  2.0553 -0.1116  3.0622
   39MOL   H33414850   1.709   3.705   2.582  2.1345 -0.2969 -0.2638
   39MOL   H33514851   1.542   3.691   2.378 -0.1338 -0.3626  1.1691
   39MOL   H33614852   1.722   3.707   2.357 -0.4668 -0.5412  0.1795
   39MOL   H33714853   1.713   3.507   2.218 -0.4196 -0.8572  1.4387
   39MOL   H33814854   1.409   3.484   2.275 -0.1135  1.3761 -1.0164
   39MOL   H33914855   1.492   3.377   2.166  1.1732  0.0118  0.5436
   39MOL   H34014856   1.526   3.377   2.338 -4.2888  0.7628  2.1411
   39MOL   H34114857   1.477   3.689   2.124 -1.4947 -1.6026  1.9399
   39MOL   H34214858   1.649   3.718   2.090 -1.2266  1.5222  0.3240
   39MOL   H34314859   1.569   3.578   2.023 -1.0271  0.7386  0.2487
   39MOL   C34414860   1.586   3.553   2.672  0.1981  0.1928  0.1057
   39MOL   C34514861   1.590   3.590   2.820 -0.0525 -0.1076  0.0133
   39MOL   O34614862   1.600   3.732   2.821 -0.1928  0.7251  0.5084
   39MOL   C34714863   1.668   3.788   2.928  0.8106 -0.2970 -0.3363
   39MOL   C34814864   1.696   3.937   2.912  0.2661 -0.0275  0.1876
   39MOL   C34914865   1.815   3.976   2.998 -0.3167  0.0724  0.4195
   39MOL   C35014866   1.571   4.022   2.949  1.1718 -0.0930  0.4852
   39MOL   H35114867   1.582   3.445   2.682 -4.0558  0.3007  0.7124
   39MOL   H35214868   1.493   3.587   2.625 -0.1291 -1.9264 -0.8344
   39MOL   H35314869   1.681   3.540   2.852  0.3592  0.1512 -0.7373
   39MOL   H35414870   1.767   3.742   2.931  1.3984  0.9818  0.5480
   39MOL   H35514871   1.642   3.760   3.031  0.8933  0.7482 -0.0211
   39MOL   H35614872   1.712   3.954   2.805 -1.9524  2.9009  0.2493
   39MOL   H35714873   1.830   4.082   2.978 -2.4016  0.3700  0.3498
   39MOL   H35814874   1.908   3.928   2.966 -0.7957  1.2319 -2.8557
   39MOL   H35914875   1.810   3.962   3.106 -3.9189  2.1634  0.5954
   39MOL   H36014876   1.553   4.038   3.056 -0.6839 -2.9783  0.6530
   39MOL   H36114877   1.585   4.123   2.910  1.4399 -0.1664  0.3938
   39MOL   H36214878   1.478   3.983   2.909  2.1614 -2.4379  0.4285
   39MOL   C36314879   1.466   3.553   2.901  0.0581  0.2366 -0.7616
   39MOL   C36414880   1.484   3.462   3.028 -0.0041  0.1691 -0.0321
   39MOL   O36514881   1.527   3.556   3.128 -0.3943 -0.3524 -0.0149
   39MOL   C36614882   1.642   3.507   3.196 -0.3729  0.4108  0.0084
   39MOL   C36714883   1.669   3.582   3.325  1.0900 -0.9904 -1.8769
   39MOL   C36814884   1.697   3.735   3.302  0.5233 -0.2253  0.6448
   39MOL   C36914885   1.806   3.527   3.383  0.4561  0.0054  0.2231
   39MOL   H37014886   1.416   3.646   2.927  0.9682  0.4029  0.4476
   39MOL   H37114887   1.408   3.506   2.821 -0.4594 -0.1856 -0.1417
   39MOL   H37214888   1.552   3.378   3.016  0.3485  0.4771 -0.2302
   39MOL   H37314889   1.630   3.403   3.227  0.3667  0.4375  0.3827
   39MOL   H37414890   1.715   3.506   3.115 -0.1792 -0.6273  0.1886
   39MOL   H37514891   1.584   3.571   3.392  2.2306  0.2999 -0.1810
   39MOL   H37614892   1.611   3.781   3.252 -0.0680 -0.0741  1.7848
   39MOL   H37714893   1.771   3.749   3.223  0.4029 -2.7637  0.0248
   39MOL   H37814894   1.714   3.783   3.398 -1.1056 -2.2485  1.9945
   39MOL   H37914895   1.879   3.544   3.304  0.7440 -0.3333  0.4163
   39MOL   H38014896   1.807   3.419   3.395  1.0076  0.1410  1.4564
   39MOL   H38114897   1.838   3.575   3.476 -0.6878  3.5282 -1.1108
   39MOL   H38214898   1.393   3.414   3.062 -1.0807  2.0936 -0.1238
   40MOL     C114899   4.996   2.545   6.517 -0.4020 -0.0461 -0.8613
   40MOL     C214900   5.099   2.625   6.434  0.2763  0.5751  0.0281
   40MOL     O314901   5.106   2.753   6.498  0.3865  0.0207  0.5318
   40MOL     C414902   5.088   2.848   6.398 -0.6146 -0.9938  1.3191
   40MOL     C514903   5.080   2.993   6.459  0.6579 -0.0274  0.2496
   40MOL     C614904   5.215   3.036   6.528  0.6374  0.4217  0.4248
   40MOL     C714905   4.958   2.986   6.547  0.2997  0.2335 -0.4840
   40MOL     H814906   5.047   2.487   6.594 -0.6117 -0.4060 -0.9922
   40MOL     H914907   4.916   2.604   6.562 -0.0889  1.4616 -2.2496
   40MOL    H1014908   5.065   2.626   6.331  0.4572  0.0158 -0.0401
   40MOL    H1114909   4.991   2.833   6.351 -1.0934 -1.6133  2.4909
   40MOL    H1214910   5.167   2.844   6.323 -2.6501 -1.1156 -0.8517
   40MOL    H1314911   5.066   3.054   6.370  2.9837  0.6182  0.2910
   40MOL    H1414912   5.300   3.014   6.464  2.0035  0.3064  2.2228
   40MOL    H1514913   5.203   3.139   6.562  1.2099  0.4798  0.4463
   40MOL    H1614914   5.240   2.971   6.612 -0.1421 -0.6838 -0.1892
   40MOL    H1714915   5.008   2.976   6.643 -0.3331 -0.2739 -0.1993
   40MOL    H1814916   4.915   3.086   6.556 -2.4313 -1.0236  1.0911
   40MOL    H1914917   4.874   2.921   6.521 -0.3657  0.6818  0.4904
   40MOL    H2014918   4.939   2.483   6.447  0.6109 -1.0823 -0.7789
   40MOL    C2114919   5.244   2.565   6.438  0.6735  0.4327  0.1952
   40MOL    C2214920   5.265   2.440   6.355  0.0559 -0.0710  0.2228
   40MOL    O2314921   5.289   2.486   6.223 -0.5874 -0.2630 -0.2532
   40MOL    C2414922   5.191   2.461   6.122  0.4523  0.0685  0.0488
   40MOL    C2514923   5.266   2.467   5.991 -0.6583 -0.2232  0.2690
   40MOL    C2614924   5.363   2.353   5.959  0.2399 -0.0030 -0.6806
   40MOL    C2714925   5.155   2.478   5.879 -0.8156  0.7061  0.1330
   40MOL    H2814926   5.315   2.643   6.411  0.1427  0.3258 -1.5506
   40MOL    H2914927   5.286   2.548   6.537  1.4342 -0.9464 -0.3390
   40MOL    H3014928   5.177   2.375   6.360 -0.7402  1.0660  1.3781
   40MOL    H3114929   5.112   2.535   6.119 -0.5579 -0.9971  0.0582
   40MOL    H3214930   5.150   2.360   6.129 -0.2682  0.3802  0.3275
   40MOL    H3314931   5.322   2.559   6.006 -1.5108  0.0192  2.2005
   40MOL    H3414932   5.395   2.362   5.855  0.8966  1.2878 -0.3659
   40MOL    H3514933   5.318   2.254   5.946  0.4872 -0.1267 -0.6130
   40MOL    H3614934   5.444   2.348   6.032  0.2373  0.6810 -0.6274
   40MOL    H3714935   5.109   2.576   5.891  1.5172  1.4568  3.5903
   40MOL    H3814936   5.184   2.465   5.775  1.2848  0.2949  0.7536
   40MOL    H3914937   5.081   2.402   5.906 -2.1808  1.9321 -0.0968
   40MOL    C4014938   5.391   2.368   6.411  0.4228  0.2569  0.1005
   40MOL    C4114939   5.361   2.259   6.516 -0.2730  1.0938  0.2218
   40MOL    O4214940   5.292   2.321   6.622 -0.1475 -0.5037 -0.2048
   40MOL    C4314941   5.229   2.245   6.722 -0.9509 -0.4198  1.0018
   40MOL    C4414942   5.132   2.322   6.816 -0.4016 -0.2728  0.0269
   40MOL    C4514943   5.104   2.218   6.930  0.0079  0.4469 -0.7104
   40MOL    C4614944   5.202   2.451   6.877  0.5455 -0.0058 -0.3111
   40MOL    H4714945   5.456   2.448   6.448  1.7263 -0.3921 -0.7666
   40MOL    H4814946   5.447   2.338   6.323  2.8105  1.9364  0.9894
   40MOL    H4914947   5.297   2.184   6.468  1.6515  0.9211 -2.1919
   40MOL    H5014948   5.320   2.208   6.770  1.2987  2.7244 -0.6636
   40MOL    H5114949   5.184   2.157   6.676  0.0703 -0.7403  0.6119
   40MOL    H5214950   5.046   2.360   6.761  0.0650  1.2939  0.3520
   40MOL    H5314951   5.054   2.126   6.901 -0.8267 -0.4731  3.3223
   40MOL    H5414952   5.194   2.186   6.982 -0.6835 -1.4847 -0.6718
   40MOL    H5514953   5.045   2.274   7.003 -0.1239 -1.5560  0.7559
   40MOL    H5614954   5.133   2.523   6.923 -1.1336 -1.1398 -1.0318
   40MOL    H5714955   5.261   2.511   6.808 -0.3323  1.7418  0.4060
   40MOL    H5814956   5.273   2.428   6.957  0.9884 -0.5007 -0.8530
   40MOL    C5914957   5.489   2.194   6.573  0.8998  0.0161  0.3971
   40MOL    C6014958   5.573   2.117   6.471 -0.3400 -1.4627 -0.1482
   40MOL    O6114959   5.496   2.009   6.428  0.5744  0.4129  0.0097
   40MOL    C6214960   5.548   1.925   6.328 -0.0596 -0.0551 -0.8198
   40MOL    C6314961   5.432   1.901   6.233  0.4612 -0.2616  0.0161
   40MOL    C6414962   5.415   2.017   6.129 -0.2965  0.6230  0.9943
   40MOL    C6514963   5.432   1.760   6.171 -0.6501  0.5504  0.1758
   40MOL    H6614964   5.466   2.125   6.655  1.9545 -2.3526 -1.2297
   40MOL    H6714965   5.545   2.274   6.622  2.3639 -0.4568 -0.4784
   40MOL    H6814966   5.591   2.182   6.385 -0.6994 -0.4060  0.5633
   40MOL    H6914967   5.634   1.979   6.288 -0.7054  2.9077  1.5623
   40MOL    H7014968   5.585   1.832   6.371 -0.7658 -1.1494 -2.5030
   40MOL    H7114969   5.343   1.899   6.296 -0.1317 -1.7101 -0.8313
   40MOL    H7214970   5.487   2.025   6.047 -0.0479  0.3724  1.1874
   40MOL    H7314971   5.408   2.112   6.182 -1.4579  1.6899 -1.0306
   40MOL    H7414972   5.320   2.015   6.076  1.8812  2.3186 -3.2207
   40MOL    H7514973   5.530   1.745   6.126 -0.8425  0.0656 -0.0900
   40MOL    H7614974   5.433   1.699   6.261  1.2806  1.6375  0.9126
   40MOL    H7714975   5.341   1.737   6.116  0.2688 -3.3184  0.1166
   40MOL    C7814976   5.705   2.070   6.534  0.0401 -1.0665 -0.1655
   40MOL    C7914977   5.808   2.176   6.541  0.6571 -0.5839 -0.1192
   40MOL    O8014978   5.926   2.115   6.606  0.2871 -0.3959 -0.1369
   40MOL    C8114979   5.912   2.092   6.746  0.3406  0.1452 -0.0329
   40MOL    C8214980   5.966   2.202   6.838  0.3339  0.6177 -0.0895
   40MOL    C8314981   5.868   2.320   6.869  0.6483 -0.6227 -0.1251
   40MOL    C8414982   6.102   2.258   6.786  0.3936 -0.4359  0.3927
   40MOL    H8514983   5.745   1.987   6.475  0.9322  0.8485 -2.3414
   40MOL    H8614984   5.674   2.031   6.631 -4.3702  0.4212 -0.8644
   40MOL    H8714985   5.778   2.256   6.610  1.0317  0.7739 -1.4964
   40MOL    H8814986   5.814   2.060   6.782 -0.3718  1.9648 -0.2978
   40MOL    H8914987   5.981   2.008   6.762 -0.9729 -0.9242  0.0767
   40MOL    H9014988   5.987   2.155   6.934 -1.8013 -1.3070 -0.5357
   40MOL    H9114989   5.865   2.387   6.782  0.8359 -0.1441  0.2388
   40MOL    H9214990   5.904   2.369   6.959  2.2231 -3.4124  0.8259
   40MOL    H9314991   5.768   2.283   6.893  0.8918 -0.1905  1.5719
   40MOL    H9414992   6.154   2.323   6.856  3.3375 -2.2428 -0.0292
   40MOL    H9514993   6.075   2.317   6.699 -0.0919  2.1878  2.2509
   40MOL    H9614994   6.167   2.181   6.745  0.7282  0.2991 -0.4682
   40MOL    C9714995   5.862   2.239   6.415 -0.2597  0.0557  0.1116
   40MOL    C9814996   5.832   2.394   6.408 -0.0431 -0.4974 -0.3259
   40MOL    O9914997   5.840   2.424   6.269  0.2695  0.3087 -0.3656
   40MOL   C10014998   5.712   2.424   6.200 -0.3707  0.1056 -0.6684
   40MOL   C10114999   5.720   2.430   6.046 -0.0956  0.3471 -0.4885
   40MOL   C10215000   5.781   2.559   5.996 -0.6234 -0.0853  0.4444
   40MOL   C10315001   5.779   2.306   5.985 -0.5784 -0.0156 -0.3437
   40MOL   H10415002   5.814   2.190   6.330 -1.9994  1.0451  0.4928
   40MOL   H10515003   5.965   2.207   6.404 -0.9416 -1.1947 -3.6403
   40MOL   H10615004   5.731   2.419   6.441  0.7207  0.7684  1.1311
   40MOL   H10715005   5.655   2.516   6.218  1.2327  0.7335  1.4854
   40MOL   H10815006   5.643   2.348   6.237 -1.2498  1.2119  0.0029
   40MOL   H10915007   5.615   2.442   6.016  0.2410  0.5802 -1.6248
   40MOL   H11015008   5.885   2.573   6.023 -0.8573  0.4119  1.1002
   40MOL   H11115009   5.784   2.570   5.887 -2.3158  0.0866  0.3911
   40MOL   H11215010   5.722   2.643   6.033 -0.6740  0.6643 -1.2606
   40MOL   H11315011   5.715   2.221   6.005  2.0839 -1.9977  0.0152
   40MOL   H11415012   5.776   2.306   5.876 -3.0137 -1.2309 -0.3145
   40MOL   H11515013   5.878   2.284   6.023 -0.0041  1.0832 -1.1701
   40MOL   C11615014   5.942   2.480   6.474  0.3359  0.4817 -0.3035
   40MOL   C11715015   5.899   2.630   6.471 -0.6494 -0.1967  0.6164
   40MOL   O11815016   5.819   2.659   6.584  0.0002 -0.3827 -0.3310
   40MOL   C11915017   5.690   2.710   6.541  0.8321 -0.2367  0.1449
   40MOL   C12015018   5.614   2.751   6.664  0.2541 -0.0011  0.4919
   40MOL   C12115019   5.490   2.827   6.629 -0.7157  0.3397 -0.0268
   40MOL   C12215020   5.594   2.636   6.763 -0.1118 -0.7999 -0.3656
   40MOL   H12315021   5.962   2.459   6.579 -0.3773  0.4795 -0.1678
   40MOL   H12415022   6.029   2.452   6.414  0.1765  0.5759 -0.5786
   40MOL   H12515023   5.845   2.654   6.380  1.7253 -2.4386 -1.4809
   40MOL   H12615024   5.633   2.637   6.486  0.7853  0.7892 -1.1891
   40MOL   H12715025   5.705   2.800   6.481  3.7153 -0.7452  0.0370
   40MOL   H12815026   5.688   2.820   6.706  1.2875 -0.2573 -0.8683
   40MOL   H12915027   5.436   2.861   6.718 -0.1612 -1.9285  1.2182
   40MOL   H13015028   5.416   2.766   6.578 -1.2417  0.1001  1.0189
   40MOL   H13115029   5.507   2.904   6.554  2.1663  1.7871  1.9992
   40MOL   H13215030   5.632   2.669   6.860 -2.0096 -1.5483  0.6587
   40MOL   H13315031   5.488   2.622   6.783 -0.4534  1.4581 -0.3849
   40MOL   H13415032   5.642   2.544   6.730  0.1158 -0.5587 -0.7186
   40MOL   C13515033   6.026   2.710   6.472  0.4387 -0.2778 -0.5522
   40MOL   C13615034   6.068   2.762   6.331 -0.4739 -0.6081  0.1438
   40MOL   O13715035   5.973   2.866   6.295 -0.7471 -0.4310 -0.6405
   40MOL   C13815036   5.948   2.885   6.152  0.1714 -0.2971 -0.0216
   40MOL   C13915037   5.827   2.977   6.129  0.3328 -0.3076 -0.1162
   40MOL   C14015038   5.778   2.983   5.984 -0.0700  0.2753 -0.1584
   40MOL   C14115039   5.713   2.938   6.221  0.5344  0.0030 -0.4716
   40MOL   H14215040   6.004   2.796   6.537 -1.2723  0.8290 -2.5446
   40MOL   H14315041   6.106   2.651   6.516  0.9961  1.1537  0.3903
   40MOL   H14415042   6.050   2.686   6.255  1.8232 -0.4734 -0.5804
   40MOL   H14515043   5.939   2.792   6.095  0.7665  0.0602 -0.7073
   40MOL   H14615044   6.036   2.940   6.120  0.3951 -1.0200 -0.6692
   40MOL   H14715045   5.858   3.079   6.148 -1.1711  0.1378 -0.0285
   40MOL   H14815046   5.777   2.887   5.933 -0.4668 -0.5216  1.3081
   40MOL   H14915047   5.846   3.043   5.924  0.8738 -0.2349  0.3847
   40MOL   H15015048   5.676   3.020   5.985 -0.7820 -1.6169  0.4763
   40MOL   H15115049   5.712   2.831   6.240 -0.6011 -0.0414 -0.7236
   40MOL   H15215050   5.740   2.983   6.317 -0.1006 -3.4401  1.3922
   40MOL   H15315051   5.621   2.973   6.174  1.3782  0.8582 -1.5394
   40MOL   C15415052   6.211   2.825   6.324  0.3497  0.5104 -0.9583
   40MOL   C15515053   6.319   2.721   6.300  0.1970 -0.6097  0.1930
   40MOL   O15615054   6.305   2.667   6.167  0.2850 -0.4823  0.5003
   40MOL   C15715055   6.365   2.544   6.139  0.2814  0.6079  0.6160
   40MOL   C15815056   6.294   2.488   6.016 -0.2746 -0.2936  1.1759
   40MOL   C15915057   6.370   2.368   5.957  0.2689  0.0617  0.2857
   40MOL   C16015058   6.152   2.458   6.055  0.3557 -0.4723  1.0551
   40MOL   H16115059   6.229   2.887   6.411  0.8095 -0.7462 -0.1376
   40MOL   H16215060   6.219   2.893   6.239  1.2316 -0.0441 -1.3249
   40MOL   H16315061   6.308   2.640   6.372 -1.1846  0.7234  1.5148
   40MOL   H16415062   6.352   2.479   6.225  1.6807 -0.2453  0.2055
   40MOL   H16515063   6.473   2.549   6.121  0.6087 -2.3621  1.4945
   40MOL   H16615064   6.293   2.563   5.937 -2.0708 -1.8806 -0.3757
   40MOL   H16715065   6.469   2.388   5.917  1.0261 -1.4224  1.3706
   40MOL   H16815066   6.301   2.324   5.886  1.3640  1.8901 -1.9542
   40MOL   H16915067   6.389   2.283   6.023  1.8666 -0.7157 -1.1536
   40MOL   H17015068   6.099   2.419   5.969 -0.3843 -2.0216  2.1768
   40MOL   H17115069   6.132   2.392   6.140  0.7635 -2.1652 -0.1438
   40MOL   H17215070   6.101   2.551   6.077 -0.3690 -0.3064 -1.2074
   40MOL   C17315071   6.463   2.777   6.297 -1.1277  0.4389 -0.5903
   40MOL   C17415072   6.527   2.785   6.447  0.5030 -0.3552  0.5710
   40MOL   O17515073   6.525   2.653   6.500 -0.2516 -0.0869 -0.3263
   40MOL   C17615074   6.511   2.647   6.640 -0.2273 -0.1400  0.6790
   40MOL   C17715075   6.487   2.500   6.684 -0.1046 -0.5262  0.4494
   40MOL   C17815076   6.349   2.439   6.644 -0.3377  0.1035  0.5044
   40MOL   C17915077   6.604   2.411   6.630 -0.0922 -0.4784  0.7209
   40MOL   H18015078   6.529   2.724   6.228  2.5669  0.4337  2.7175
   40MOL   H18115079   6.454   2.871   6.243 -0.9260 -0.3885 -2.0892
   40MOL   H18215080   6.449   2.838   6.501  1.0433 -0.0488  1.0594
   40MOL   H18315081   6.425   2.706   6.670  0.4866  2.5672 -2.3953
   40MOL   H18415082   6.593   2.694   6.694  0.3578  1.4330 -1.5174
   40MOL   H18515083   6.495   2.502   6.792  0.0162 -0.6792  0.4420
   40MOL   H18615084   6.263   2.504   6.659  0.3279  1.4079 -1.2318
   40MOL   H18715085   6.352   2.441   6.535 -1.3927 -0.7701  0.4563
   40MOL   H18815086   6.345   2.334   6.674 -0.1438  0.1282  0.6191
   40MOL   H18915087   6.586   2.310   6.666 -0.5899  0.1653  2.3141
   40MOL   H19015088   6.706   2.442   6.655 -0.0648 -0.7764  0.9922
   40MOL   H19115089   6.613   2.402   6.522  0.8140  0.5594  0.6962
   40MOL   C19215090   6.666   2.850   6.456 -0.1415  0.0647  0.2950
   40MOL   C19315091   6.684   3.001   6.429  0.3251  0.0123 -0.2039
   40MOL   O19415092   6.822   3.027   6.442  0.5927 -0.4676 -0.4394
   40MOL   C19515093   6.914   2.984   6.347 -0.6118 -0.1178  0.2793
   40MOL   C19615094   7.048   3.057   6.342  0.3528  0.1361 -0.4745
   40MOL   C19715095   7.131   3.024   6.468 -0.2869  0.0177  0.4039
   40MOL   C19815096   7.038   3.209   6.320  0.1091  0.2336 -0.0428
   40MOL   H19915097   6.740   2.792   6.400 -0.1544  0.5449 -0.2247
   40MOL   H20015098   6.699   2.832   6.558  0.8653 -1.3439 -0.2535
   40MOL   H20115099   6.656   3.028   6.327  2.2707 -1.4390 -1.1474
   40MOL   H20215100   6.873   2.990   6.247  2.1064 -0.8720 -0.9321
   40MOL   H20315101   6.940   2.878   6.354  0.7647  0.2797  1.4676
   40MOL   H20415102   7.106   3.014   6.260 -0.6121 -3.2376  0.5369
   40MOL   H20515103   7.236   3.053   6.454 -0.1242 -0.0436  1.4809
   40MOL   H20615104   7.102   3.086   6.552 -1.0158  0.4691 -0.1755
   40MOL   H20715105   7.140   2.922   6.504  2.3622  0.8132  2.1691
   40MOL   H20815106   6.993   3.231   6.223  0.0226 -0.4785 -0.1616
   40MOL   H20915107   6.984   3.262   6.399  0.5037 -1.0494  1.0957
   40MOL   H21015108   7.130   3.267   6.327  0.4238 -0.4392  1.7698
   40MOL   C21115109   6.607   3.084   6.535 -0.0574 -0.1426 -0.4374
   40MOL   C21215110   6.635   3.233   6.508  0.1305 -0.7396  0.1319
   40MOL   O21315111   6.585   3.258   6.371 -0.1555 -0.2807  0.1447
   40MOL   C21415112   6.674   3.346   6.294  0.4240  0.5377  0.2883
   40MOL   C21515113   6.625   3.350   6.151 -0.0543  0.2325  0.3469
   40MOL   C21615114   6.644   3.216   6.080  0.5665 -0.0557  0.3896
   40MOL   C21715115   6.481   3.406   6.132 -0.2999 -0.0844  0.2627
   40MOL   H21815116   6.632   3.052   6.636 -1.2828 -0.9569 -0.3684
   40MOL   H21915117   6.501   3.065   6.515 -0.5201  0.0489  1.6762
   40MOL   H22015118   6.743   3.249   6.501 -0.1719  2.8049  2.1597
   40MOL   H22115119   6.772   3.299   6.287 -0.3549 -1.1126  0.2409
   40MOL   H22215120   6.682   3.446   6.338  0.0680 -0.0950  1.8313
   40MOL   H22315121   6.695   3.417   6.102  0.1546  0.0037  0.3294
   40MOL   H22415122   6.572   3.142   6.115  0.0923  0.1598 -0.1310
   40MOL   H22515123   6.629   3.231   5.973 -0.9709 -0.6704  0.5089
   40MOL   H22615124   6.740   3.174   6.111 -0.4084  0.0809  3.8138
   40MOL   H22715125   6.462   3.503   6.177 -0.4908  1.4258 -2.9580
   40MOL   H22815126   6.419   3.347   6.200 -0.4541  1.2362  1.2969
   40MOL   H22915127   6.441   3.405   6.031  0.1159 -0.1066  0.0963
   40MOL   C23015128   6.570   3.325   6.615 -0.2231 -0.2033  0.4299
   40MOL   C23115129   6.654   3.316   6.746  0.1413  0.5100 -0.3994
   40MOL   O23215130   6.788   3.364   6.717 -0.0937 -0.0126 -0.5869
   40MOL   C23315131   6.885   3.304   6.803 -0.0918  0.5183  0.0280
   40MOL   C23415132   7.028   3.339   6.782 -0.3317 -0.6903 -0.2473
   40MOL   C23515133   7.035   3.496   6.758 -0.6643 -0.3723 -0.1982
   40MOL   C23615134   7.112   3.276   6.893  0.2820  0.1011  0.6668
   40MOL   H23715135   6.474   3.283   6.643 -0.2624  0.5229  1.4131
   40MOL   H23815136   6.566   3.430   6.586  1.1470 -0.1010  0.5636
   40MOL   H23915137   6.657   3.211   6.776  2.3141  0.9318  0.9825
   40MOL   H24015138   6.871   3.307   6.911 -0.8362 -0.1438 -0.0412
   40MOL   H24115139   6.884   3.198   6.779  0.1380  0.7376 -0.9525
   40MOL   H24215140   7.068   3.289   6.694  1.1468 -0.1895  0.1157
   40MOL   H24315141   6.962   3.518   6.680 -1.2836 -1.6580  0.0063
   40MOL   H24415142   7.137   3.521   6.728  0.1957 -0.3648  2.6425
   40MOL   H24515143   7.007   3.554   6.845 -0.3704  1.6902 -1.4427
   40MOL   H24615144   7.120   3.339   6.982 -0.7383 -0.5495  1.2359
   40MOL   H24715145   7.090   3.172   6.919  2.2141 -0.3139  0.7021
   40MOL   H24815146   7.215   3.264   6.860  0.5513  0.9935  1.1862
   40MOL   C24915147   6.595   3.409   6.855 -0.4293  1.0471  1.1632
   40MOL   C25015148   6.469   3.346   6.924  0.2430  0.0403 -0.0666
   40MOL   O25115149   6.508   3.226   7.002  0.3030 -0.6515 -0.2103
   40MOL   C25215150   6.418   3.117   6.991 -0.4174  0.2015 -0.5137
   40MOL   C25315151   6.456   3.023   6.869  0.1164  0.5742 -0.8037
   40MOL   C25415152   6.345   2.925   6.829  0.4672 -0.1953  0.1182
   40MOL   C25515153   6.583   2.942   6.911 -0.1595 -0.5507 -0.1372
   40MOL   H25615154   6.559   3.500   6.806  1.1589  1.3868  0.5889
   40MOL   H25715155   6.666   3.445   6.930  1.3538 -2.0460  1.0603
   40MOL   H25815156   6.404   3.309   6.845  0.2598  0.9027 -0.4886
   40MOL   H25915157   6.431   3.071   7.089  1.6625  1.4833 -0.1526
   40MOL   H26015158   6.310   3.134   6.981 -1.1137 -3.1993  0.5879
   40MOL   H26115159   6.475   3.090   6.785 -0.8609  2.3565  0.3728
   40MOL   H26215160   6.358   2.831   6.883 -0.0049 -0.6764 -0.6055
   40MOL   H26315161   6.358   2.905   6.723  0.8977 -1.1542  0.3495
   40MOL   H26415162   6.246   2.969   6.845  0.1917 -0.5674 -0.5586
   40MOL   H26515163   6.660   3.009   6.949 -0.9641 -0.6700  1.7806
   40MOL   H26615164   6.548   2.873   6.988 -4.2444  2.4977  0.9596
   40MOL   H26715165   6.622   2.878   6.832 -1.3943 -2.1063  0.4975
   40MOL   C26815166   6.396   3.447   7.012  0.4857 -0.3379 -0.3117
   40MOL   C26915167   6.264   3.410   7.091 -0.1559 -0.2164  0.4189
   40MOL   O27015168   6.159   3.345   7.016  0.2204  0.1307 -0.3510
   40MOL   C27115169   6.057   3.285   7.101  0.2718  0.0932  0.2489
   40MOL   C27215170   5.955   3.199   7.020 -1.0214  0.1187 -0.6780
   40MOL   C27315171   5.876   3.291   6.939  0.2987 -0.5602  0.5459
   40MOL   C27415172   6.038   3.096   6.938  0.9770 -0.1121  0.1939
   40MOL   H27515173   6.382   3.542   6.961 -5.0131 -1.7930 -1.8114
   40MOL   H27615174   6.471   3.466   7.090 -2.7394  0.8252  2.6217
   40MOL   H27715175   6.302   3.346   7.170  1.4433  0.6185  0.3309
   40MOL   H27815176   6.095   3.224   7.183  0.2145 -0.8328 -0.4142
   40MOL   H27915177   5.997   3.355   7.159 -2.9387 -2.8183  0.6284
   40MOL   H28015178   5.883   3.155   7.089  0.4532 -1.6440 -0.2078
   40MOL   H28115179   5.832   3.221   6.868  1.8509 -0.4696 -0.5263
   40MOL   H28215180   5.928   3.369   6.885  0.2189 -1.2239 -0.4972
   40MOL   H28315181   5.795   3.335   6.999  1.1472 -1.9274  2.7714
   40MOL   H28415182   6.106   3.147   6.869  0.6382 -0.3367 -0.3040
   40MOL   H28515183   5.962   3.042   6.882 -2.4959  2.3463  2.3408
   40MOL   H28615184   6.081   3.030   7.014  2.5210  3.7624  2.8521
   40MOL   C28715185   6.209   3.540   7.164  0.2061  0.5907  0.1051
   40MOL   C28815186   6.170   3.668   7.085  0.7594  0.2567  0.4121
   40MOL   O28915187   6.109   3.758   7.182 -0.4879 -0.0747 -0.5551
   40MOL   C29015188   6.192   3.843   7.247  0.6827 -0.2521  0.1430
   40MOL   C29115189   6.151   3.873   7.383  0.2714  0.3490  0.2292
   40MOL   C29215190   6.234   3.988   7.448 -0.2803  0.3319  0.4511
   40MOL   C29315191   6.167   3.744   7.458  0.8869 -0.6470 -0.0836
   40MOL   H29415192   6.289   3.574   7.230  0.9085  0.0889 -0.4760
   40MOL   H29515193   6.126   3.521   7.231  0.4040 -1.7791 -0.2697
   40MOL   H29615194   6.257   3.720   7.045  1.1523 -1.0495 -0.4495
   40MOL   H29715195   6.294   3.805   7.249  0.3721 -1.1192 -0.0859
   40MOL   H29815196   6.190   3.930   7.182 -1.0729  1.2699  2.1522
   40MOL   H29915197   6.049   3.912   7.381  0.8044  1.8083  0.2599
   40MOL   H30015198   6.340   3.963   7.442 -0.2107  0.1990  2.0305
   40MOL   H30115199   6.207   3.988   7.553  0.2233  0.3977  0.5826
   40MOL   H30215200   6.200   4.085   7.412 -0.8690  0.0049  0.1229
   40MOL   H30315201   6.100   3.663   7.428 -1.3060  1.5983 -1.4587
   40MOL   H30415202   6.270   3.711   7.469  0.9534 -0.1011  1.0781
   40MOL   H30515203   6.137   3.765   7.561 -0.3193 -2.0165 -0.1465
   40MOL   C30615204   6.060   3.656   6.980  1.0470  0.3568  0.2537
   40MOL   C30715205   6.058   3.772   6.879 -0.0854 -0.0220 -0.6629
   40MOL   O30815206   6.185   3.766   6.824  0.1069  0.6560 -0.0464
   40MOL   C30915207   6.248   3.881   6.767  0.6611 -0.6806  0.0815
   40MOL   C31015208   6.392   3.840   6.731 -0.4953  0.5393 -0.1122
   40MOL   C31115209   6.397   3.715   6.640  0.6874  0.4115 -0.5517
   40MOL   C31215210   6.482   3.826   6.858 -0.1129  0.1627 -0.3403
   40MOL   H31315211   5.965   3.646   7.032 -0.1396  0.8708 -1.7250
   40MOL   H31415212   6.071   3.558   6.932  0.1947  0.0273  0.7193
   40MOL   H31515213   6.051   3.858   6.946  1.9194 -2.4520  2.8627
   40MOL   H31615214   6.247   3.964   6.837  1.1556 -1.2427  0.7608
   40MOL   H31715215   6.192   3.903   6.677 -1.8008  0.6682  1.8966
   40MOL   H31815216   6.433   3.918   6.666  1.9796 -2.3305 -2.0871
   40MOL   H31915217   6.358   3.739   6.541 -1.3234  1.7666  0.5208
   40MOL   H32015218   6.332   3.642   6.688  0.3985  0.3619 -1.0082
   40MOL   H32115219   6.500   3.681   6.629 -0.7719 -3.8254 -2.2081
   40MOL   H32215220   6.583   3.789   6.840 -0.1012 -0.0203  0.0759
   40MOL   H32315221   6.444   3.766   6.941  1.5853  0.8006  0.9511
   40MOL   H32415222   6.482   3.925   6.904  0.4909  0.6370 -1.3451
   40MOL   C32515223   5.956   3.771   6.768  0.2727 -0.2671  0.1666
   40MOL   C32615224   5.809   3.762   6.816 -0.3417 -0.6359 -0.5806
   40MOL   O32715225   5.801   3.879   6.901  0.0201  0.0964 -0.0053
   40MOL   C32815226   5.695   3.896   6.988 -0.8914  0.5526  0.3216
   40MOL   C32915227   5.733   3.984   7.106  0.2187 -0.2295 -0.4662
   40MOL   C33015228   5.869   3.938   7.169 -0.2346  0.1882 -0.9503
   40MOL   C33115229   5.748   4.130   7.068 -0.2094  0.9550  0.2597
   40MOL   H33215230   5.961   3.692   6.693  0.0169  0.9134 -1.1028
   40MOL   H33315231   5.962   3.859   6.705 -2.0919 -1.2402 -1.5297
   40MOL   H33415232   5.792   3.666   6.866  0.2994  0.0078  0.9271
   40MOL   H33515233   5.621   3.952   6.931 -1.1387  1.1087  1.1855
   40MOL   H33615234   5.668   3.800   7.033  0.9497  0.7682  1.9127
   40MOL   H33715235   5.664   3.978   7.190  0.6451 -2.6530 -0.2604
   40MOL   H33815236   5.880   4.008   7.252 -1.8422 -2.6753  1.7683
   40MOL   H33915237   5.865   3.837   7.209 -0.5949  0.5356 -0.1061
   40MOL   H34015238   5.957   3.954   7.107 -0.3768 -0.5406 -1.3467
   40MOL   H34115239   5.811   4.132   6.979  3.4094  0.0068  2.7317
   40MOL   H34215240   5.652   4.181   7.057 -1.1497 -0.8780 -0.2660
   40MOL   H34315241   5.797   4.184   7.149  0.5096 -0.2366  0.6196
   40MOL   C34415242   5.702   3.773   6.710 -0.2834 -0.1969  0.1990
   40MOL   C34515243   5.673   3.645   6.621  0.2389 -0.3655 -0.0615
   40MOL   O34615244   5.600   3.550   6.707 -0.4486 -0.9364 -0.6547
   40MOL   C34715245   5.625   3.408   6.694  0.1174 -0.0545  0.2643
   40MOL   C34815246   5.500   3.341   6.754 -0.1824  0.0377  0.0890
   40MOL   C34915247   5.470   3.362   6.902  0.1060 -0.7779 -0.1933
   40MOL   C35015248   5.491   3.191   6.731 -0.1451 -0.4275 -0.1837
   40MOL   H35115249   5.722   3.856   6.642 -1.2809  1.3336  1.7149
   40MOL   H35215250   5.608   3.798   6.758  0.5416  1.7609  0.8606
   40MOL   H35315251   5.764   3.592   6.595  0.2123 -0.7147  0.5394
   40MOL   H35415252   5.719   3.389   6.744  0.6594  0.7079 -0.4393
   40MOL   H35515253   5.647   3.389   6.588 -1.9773  2.1139 -0.6116
   40MOL   H35615254   5.416   3.382   6.697 -0.9068 -0.2186  0.9449
   40MOL   H35715255   5.481   3.465   6.937 -1.1765 -1.1071  1.2501
   40MOL   H35815256   5.539   3.302   6.962 -0.7863 -0.1174  1.5381
   40MOL   H35915257   5.379   3.319   6.944  0.6809 -0.2538  1.6597
   40MOL   H36015258   5.493   3.173   6.624 -0.8421  0.7605 -0.4019
   40MOL   H36115259   5.586   3.145   6.762  0.4688  1.2424  0.4375
   40MOL   H36215260   5.413   3.133   6.780 -0.2736 -0.1912 -0.1120
   40MOL   C36315261   5.585   3.666   6.489  0.8826  0.8275 -0.0295
   40MOL   C36415262   5.438   3.705   6.525 -0.1706 -0.1174 -0.3749
   40MOL   O36515263   5.368   3.726   6.397  0.1715  0.2235 -0.7203
   40MOL   C36615264   5.242   3.787   6.406 -0.1939  0.3019 -0.1172
   40MOL   C36715265   5.126   3.686   6.429 -0.2684 -0.5743  0.4488
   40MOL   C36815266   4.995   3.758   6.398  0.8229  0.0577  0.1736
   40MOL   C36915267   5.112   3.633   6.568  0.5449  0.5903 -0.1486
   40MOL   H37015268   5.623   3.746   6.426 -1.0785  0.3660 -1.8826
   40MOL   H37115269   5.580   3.571   6.436 -1.2604  0.9103 -0.0540
   40MOL   H37215270   5.416   3.787   6.594 -3.0608 -0.1012 -1.2314
   40MOL   H37315271   5.235   3.858   6.489 -0.6789  1.5197 -1.1918
   40MOL   H37415272   5.235   3.830   6.306 -0.2230  0.1749 -0.1690
   40MOL   H37515273   5.137   3.601   6.362  1.7243  0.1636 -0.2030
   40MOL   H37615274   4.911   3.690   6.409  0.0901  0.6324 -1.6981
   40MOL   H37715275   4.988   3.794   6.296 -1.6511 -1.2079 -0.1376
   40MOL   H37815276   4.969   3.833   6.473  0.6674  0.4585 -0.2779
   40MOL   H37915277   5.093   3.713   6.640  0.3648 -2.9272  3.8531
   40MOL   H38015278   5.196   3.567   6.589  0.4756 -0.4434 -2.9090
   40MOL   H38115279   5.030   3.563   6.582  0.1241  1.6217  2.9328
   40MOL   H38215280   5.396   3.623   6.583  0.0422 -0.7510 -1.1198
   41MOL     C115281   2.620   5.500   6.918 -0.3336 -0.4068  0.5879
   41MOL     C215282   2.527   5.467   6.800  0.1434  0.8161 -0.3642
   41MOL     O315283   2.404   5.535   6.829 -0.2067  0.4254  0.2121
   41MOL     C415284   2.293   5.450   6.870  0.0676 -0.2999  0.4181
   41MOL     C515285   2.162   5.515   6.922 -0.0244 -0.0158 -0.1286
   41MOL     C615286   2.093   5.607   6.812 -0.3213  0.2357 -0.9082
   41MOL     C715287   2.203   5.590   7.049  0.5545  0.0276  0.5276
   41MOL     H815288   2.720   5.460   6.901  0.8424  2.5153  0.4367
   41MOL     H915289   2.619   5.607   6.938 -2.7578  0.1445 -2.1969
   41MOL    H1015290   2.500   5.362   6.789 -1.3281  1.1429  0.0178
   41MOL    H1115291   2.326   5.382   6.948 -0.3054  0.1474  0.9743
   41MOL    H1215292   2.265   5.382   6.790 -0.0077 -0.1152  0.2873
   41MOL    H1315293   2.100   5.430   6.952  0.2592 -1.0235 -2.3115
   41MOL    H1415294   2.074   5.564   6.714 -0.1057 -1.9995 -0.0128
   41MOL    H1515295   2.001   5.644   6.859 -0.6569 -1.2820 -0.3165
   41MOL    H1615296   2.158   5.691   6.789  2.4871 -1.2190  1.3512
   41MOL    H1715297   2.115   5.618   7.106 -0.8420 -2.7542 -0.1721
   41MOL    H1815298   2.261   5.530   7.119  2.3088  1.7784  0.6208
   41MOL    H1915299   2.247   5.687   7.024  0.2783  0.1628  0.5649
   41MOL    H2015300   2.592   5.443   7.007  0.4018 -1.5892  0.0780
   41MOL    C2115301   2.584   5.517   6.667  0.5219  1.0807 -0.4309
   41MOL    C2215302   2.522   5.455   6.534 -0.1911  0.4297  0.3475
   41MOL    O2315303   2.507   5.308   6.554  0.1046 -0.2855 -0.2152
   41MOL    C2415304   2.628   5.239   6.557 -0.5496 -0.5103 -0.3915
   41MOL    C2515305   2.615   5.097   6.520  0.0268 -0.1802  0.5768
   41MOL    C2615306   2.553   5.076   6.383  0.5008  0.3763 -0.4457
   41MOL    C2715307   2.751   5.032   6.533  0.1781 -0.6402  0.6711
   41MOL    H2815308   2.576   5.624   6.651  0.2275  1.0674 -0.3784
   41MOL    H2915309   2.692   5.504   6.662  0.6566  1.9382  0.1254
   41MOL    H3015310   2.590   5.484   6.453 -0.5874  1.4585  0.3816
   41MOL    H3115311   2.660   5.238   6.662 -1.3485  0.5904 -0.1280
   41MOL    H3215312   2.704   5.287   6.496 -1.3585  1.2470 -0.0516
   41MOL    H3315313   2.551   5.051   6.595 -1.1398  1.0408  0.3343
   41MOL    H3415314   2.505   4.978   6.383 -1.0872  1.1005  2.2339
   41MOL    H3515315   2.620   5.074   6.297 -1.2283  1.0162 -1.8471
   41MOL    H3615316   2.472   5.149   6.372  0.9913  0.7031 -2.0464
   41MOL    H3715317   2.809   5.053   6.443  0.8483  0.4210  1.3365
   41MOL    H3815318   2.811   5.044   6.623 -0.2118 -1.8366  1.0881
   41MOL    H3915319   2.737   4.925   6.522  3.6776 -1.0940  0.0599
   41MOL    C4015320   2.381   5.515   6.514 -0.7397  0.3326 -0.2597
   41MOL    C4115321   2.330   5.480   6.372  0.3528 -0.3828  1.0208
   41MOL    O4215322   2.393   5.573   6.279  0.3082  0.6055  0.3484
   41MOL    C4315323   2.463   5.514   6.176 -0.5173  0.7948 -0.1784
   41MOL    C4415324   2.513   5.621   6.080 -0.2402 -0.6982  0.5591
   41MOL    C4515325   2.412   5.709   6.016  0.0080 -0.1768 -0.4412
   41MOL    C4615326   2.626   5.713   6.143  0.4874  0.4984  0.0471
   41MOL    H4715327   2.387   5.622   6.536 -0.6403  0.3256 -0.2521
   41MOL    H4815328   2.317   5.482   6.596  0.7588  2.5066  1.8674
   41MOL    H4915329   2.355   5.375   6.356  0.5952  0.0412 -1.5949
   41MOL    H5015330   2.388   5.454   6.124 -1.6394  1.3861  0.7380
   41MOL    H5115331   2.552   5.462   6.212 -0.1347  0.8238 -1.0513
   41MOL    H5215332   2.560   5.563   6.001  0.6767  0.0177  0.5741
   41MOL    H5315333   2.376   5.781   6.089  0.7087 -1.2633  0.9910
   41MOL    H5415334   2.449   5.770   5.933 -0.1266  0.8913  0.2834
   41MOL    H5515335   2.327   5.661   5.966  1.6923 -1.8927 -1.7711
   41MOL    H5615336   2.714   5.650   6.155 -1.1404 -2.4850 -2.7506
   41MOL    H5715337   2.596   5.758   6.238 -0.9069 -1.5105  0.6022
   41MOL    H5815338   2.649   5.790   6.069  0.5412  1.3163  0.9081
   41MOL    C5915339   2.175   5.515   6.371 -0.3484 -0.9277 -0.3193
   41MOL    C6015340   2.111   5.483   6.229  0.1518  0.3156 -0.1601
   41MOL    O6115341   1.973   5.514   6.239  0.6196 -0.1540 -0.0161
   41MOL    C6215342   1.927   5.644   6.215  0.0487 -0.5442 -0.3083
   41MOL    C6315343   1.776   5.654   6.214 -0.0959 -0.5324 -0.0179
   41MOL    C6415344   1.737   5.799   6.191 -0.7304  0.7035 -0.4353
   41MOL    C6515345   1.698   5.567   6.112 -0.4594  0.4096 -0.0110
   41MOL    H6615346   2.158   5.618   6.402 -0.2062 -1.4186  1.4214
   41MOL    H6715347   2.120   5.455   6.444 -0.6317  0.5872  0.7238
   41MOL    H6815348   2.162   5.546   6.156  0.4338 -1.2562 -1.3250
   41MOL    H6915349   1.980   5.707   6.286  2.7232 -0.0850 -2.6439
   41MOL    H7015350   1.964   5.671   6.116  0.4579 -2.9463 -0.8399
   41MOL    H7115351   1.747   5.618   6.313  0.1464  0.9185  0.5907
   41MOL    H7215352   1.634   5.834   6.199 -0.9975  0.1535 -1.3903
   41MOL    H7315353   1.768   5.835   6.093 -0.3135 -2.0264 -1.3482
   41MOL    H7415354   1.779   5.858   6.272 -0.2501 -0.7711  0.4022
   41MOL    H7515355   1.739   5.583   6.012  0.5167 -0.5894  0.2155
   41MOL    H7615356   1.697   5.461   6.138 -0.4988 -0.1863 -2.3504
   41MOL    H7715357   1.594   5.599   6.101  0.0376  1.8889 -0.5108
   41MOL    C7815358   2.125   5.337   6.185  0.4916  0.1830 -0.0924
   41MOL    C7915359   2.133   5.298   6.032 -0.1627 -0.4711 -0.0573
   41MOL    O8015360   2.131   5.158   6.020  0.5188 -0.1404 -0.0808
   41MOL    C8115361   2.251   5.083   6.062  0.3062  0.1229 -0.7031
   41MOL    C8215362   2.291   4.995   5.945 -0.1624  0.4283 -0.2624
   41MOL    C8315363   2.185   4.906   5.887  0.5830 -0.8410 -0.0512
   41MOL    C8415364   2.418   4.910   5.984 -0.1130 -0.3560 -0.9154
   41MOL    H8515365   2.038   5.279   6.217 -0.4362  0.9091 -1.2159
   41MOL    H8615366   2.205   5.287   6.239  0.0995  1.1351  1.4156
   41MOL    H8715367   2.223   5.341   5.988  0.7760 -0.8950  1.4194
   41MOL    H8815368   2.324   5.158   6.095 -0.0298 -0.4288  1.3663
   41MOL    H8915369   2.219   5.038   6.156 -0.6507  1.0453 -0.5747
   41MOL    H9015370   2.320   5.066   5.867 -0.5218  1.5160  0.5938
   41MOL    H9115371   2.155   4.815   5.939  1.2065 -0.9928  0.0437
   41MOL    H9215372   2.225   4.861   5.797 -1.1399  0.7302 -1.6418
   41MOL    H9315373   2.094   4.960   5.860  0.6451  0.1357  1.6017
   41MOL    H9415374   2.491   4.974   6.034  0.1492 -1.7931  0.5954
   41MOL    H9515375   2.465   4.858   5.900  0.2070 -0.8983 -0.4068
   41MOL    H9615376   2.393   4.831   6.055 -1.2861  1.5030  0.8022
   41MOL    C9715377   2.013   5.353   5.958 -0.4701 -0.0534 -0.2691
   41MOL    C9815378   2.013   5.339   5.808  0.8006 -0.5127  0.5412
   41MOL    O9915379   2.127   5.399   5.757 -0.6480 -0.1401  0.0901
   41MOL   C10015380   2.155   5.354   5.624  0.3163  0.1941  0.1334
   41MOL   C10115381   2.303   5.381   5.586 -0.6350 -0.0198  0.2548
   41MOL   C10215382   2.341   5.530   5.605 -0.4207  0.2371  0.4902
   41MOL   C10315383   2.397   5.285   5.663  0.2140 -0.2153  0.3148
   41MOL   H10415384   2.006   5.460   5.980  1.2548 -0.0293  0.2515
   41MOL   H10515385   1.925   5.309   6.006 -2.9469  1.5221 -3.1762
   41MOL   H10615386   2.002   5.233   5.788  0.1953 -0.0772 -1.6072
   41MOL   H10715387   2.100   5.409   5.548 -0.4125 -0.8730 -0.1303
   41MOL   H10815388   2.135   5.249   5.600  0.6080  0.2768 -0.4871
   41MOL   H10915389   2.309   5.356   5.480  0.7088  1.3275 -0.0006
   41MOL   H11015390   2.437   5.550   5.558  0.4607 -1.3774  1.5778
   41MOL   H11115391   2.273   5.595   5.549 -2.1452 -1.0509  1.0345
   41MOL   H11215392   2.341   5.564   5.708 -0.5230  2.0134 -0.0799
   41MOL   H11315393   2.361   5.182   5.659 -0.3217 -0.0809  1.6966
   41MOL   H11415394   2.501   5.298   5.633  0.4471 -1.3194  0.6155
   41MOL   H11515395   2.389   5.309   5.769 -1.3697 -1.1273  0.4193
   41MOL   C11615396   1.889   5.417   5.747  0.3320  0.0140  0.2635
   41MOL   C11715397   1.744   5.359   5.753  0.7139 -0.1906  0.9046
   41MOL   O11815398   1.653   5.437   5.675 -0.3774  0.1893  0.5152
   41MOL   C11915399   1.586   5.541   5.743 -0.4032  0.0287  0.6241
   41MOL   C12015400   1.479   5.600   5.651  0.1498  0.0983 -0.4655
   41MOL   C12115401   1.389   5.484   5.599  0.8290  0.8346 -0.8637
   41MOL   C12215402   1.395   5.700   5.717  0.0676  0.2530  0.1848
   41MOL   H12315403   1.884   5.519   5.787  1.5424 -0.0790  0.6733
   41MOL   H12415404   1.899   5.434   5.640 -0.7298  3.8435  0.7003
   41MOL   H12515405   1.708   5.352   5.855 -0.4586 -0.9668  0.4550
   41MOL   H12615406   1.653   5.615   5.787  0.4334 -0.7269  0.6247
   41MOL   H12715407   1.540   5.502   5.833 -1.3769 -0.4906 -0.0830
   41MOL   H12815408   1.528   5.650   5.566 -0.6287  1.0673 -0.3475
   41MOL   H12915409   1.436   5.425   5.521  0.5503  1.2137 -1.3175
   41MOL   H13015410   1.293   5.522   5.565  0.4817  2.0544  1.3490
   41MOL   H13115411   1.371   5.416   5.683  0.9874  0.7306 -0.9124
   41MOL   H13215412   1.449   5.742   5.802  1.1685 -0.1584 -0.2990
   41MOL   H13315413   1.356   5.774   5.647  2.6014 -0.3592 -1.9704
   41MOL   H13415414   1.303   5.653   5.751 -0.3472  0.7603 -0.2200
   41MOL   C13515415   1.734   5.217   5.689 -0.5133  0.6531 -0.2317
   41MOL   C13615416   1.588   5.151   5.671 -0.0259 -0.5006 -0.4266
   41MOL   O13715417   1.603   5.035   5.591 -0.4083  0.4221 -0.1121
   41MOL   C13815418   1.645   5.053   5.456  0.6305 -0.0100 -0.1847
   41MOL   C13915419   1.579   4.956   5.354  0.3648 -0.0577  0.1390
   41MOL   C14015420   1.431   5.000   5.336 -0.6073  0.0198 -0.5225
   41MOL   C14115421   1.649   4.960   5.221  0.2757  0.0978  0.5417
   41MOL   H14215422   1.791   5.228   5.597  0.9023  2.1357  0.7968
   41MOL   H14315423   1.793   5.144   5.744 -3.6041 -2.4099 -0.8304
   41MOL   H14415424   1.528   5.224   5.616  1.5366  1.5848  0.5351
   41MOL   H14515425   1.750   5.024   5.469 -0.2894 -2.7114  1.7603
   41MOL   H14615426   1.643   5.158   5.426 -2.1718 -0.1359 -0.5528
   41MOL   H14715427   1.573   4.853   5.389 -1.0810 -0.1187 -0.2536
   41MOL   H14815428   1.392   4.964   5.241 -0.3916  0.9332 -0.9690
   41MOL   H14915429   1.438   5.109   5.336  3.7141 -0.1583  1.2190
   41MOL   H15015430   1.369   4.965   5.418  1.5507 -0.0584  1.1259
   41MOL   H15115431   1.594   4.910   5.141 -2.0798 -2.2866  3.5276
   41MOL   H15215432   1.686   5.057   5.187 -3.6574  1.5376  0.1713
   41MOL   H15315433   1.738   4.898   5.237 -0.8809 -1.2131  2.0652
   41MOL   C15415434   1.526   5.117   5.802 -0.8335 -0.6776 -0.0178
   41MOL   C15515435   1.396   5.043   5.806 -0.0851  0.5096  0.0330
   41MOL   O15615436   1.306   5.137   5.742  0.0171  0.1788  0.6573
   41MOL   C15715437   1.168   5.122   5.767 -0.3132 -0.1645 -0.4661
   41MOL   C15815438   1.088   5.238   5.706  0.2892 -0.3814 -0.0696
   41MOL   C15915439   1.130   5.247   5.559 -0.2544 -0.1325 -0.3730
   41MOL   C16015440   0.938   5.239   5.723 -0.0678  0.7317  0.3014
   41MOL   H16115441   1.509   5.202   5.868  0.8902 -0.7676  0.5942
   41MOL   H16215442   1.599   5.046   5.844 -0.0367 -0.1303 -0.4665
   41MOL   H16315443   1.364   5.026   5.909 -2.1721 -0.0020 -0.6773
   41MOL   H16415444   1.158   5.120   5.876 -1.0463 -1.8105 -0.5450
   41MOL   H16515445   1.142   5.027   5.720 -3.7490  0.8228 -0.6848
   41MOL   H16615446   1.128   5.332   5.743  2.4034 -1.7574  1.2535
   41MOL   H16715447   1.131   5.148   5.514 -1.3714  0.3614 -1.5206
   41MOL   H16815448   1.234   5.279   5.549 -0.5258  1.0304  0.3690
   41MOL   H16915449   1.075   5.313   5.493  1.4340  0.6274 -1.0409
   41MOL   H17015450   0.909   5.140   5.689 -0.7625  1.0356 -0.0064
   41MOL   H17115451   0.914   5.238   5.829 -0.7546 -0.5749  0.1423
   41MOL   H17215452   0.890   5.310   5.656 -2.6381 -1.3678 -0.1462
   41MOL   C17315453   1.394   4.908   5.731  0.3315 -0.3428 -0.3152
   41MOL   C17415454   1.488   4.803   5.794  0.2884  0.0141 -1.1062
   41MOL   O17515455   1.454   4.784   5.930  0.6820  0.0350  0.3483
   41MOL   C17615456   1.563   4.813   6.018  0.5048 -0.1095  0.8371
   41MOL   C17715457   1.539   4.773   6.166  0.5408  0.5053 -0.1383
   41MOL   C17815458   1.403   4.817   6.218  0.2614 -0.1502  0.2176
   41MOL   C17915459   1.544   4.616   6.166  0.6539 -0.4346 -0.2275
   41MOL   H18015460   1.295   4.862   5.741  0.6619 -0.6384  1.7739
   41MOL   H18115461   1.409   4.926   5.625 -1.9337  1.2196 -0.4100
   41MOL   H18215462   1.595   4.823   5.783  0.3789 -0.1995 -0.6225
   41MOL   H18315463   1.594   4.916   6.002 -1.8004  0.5699  0.5682
   41MOL   H18415464   1.652   4.764   5.979  0.2403  1.0197 -1.2888
   41MOL   H18515465   1.618   4.815   6.228  0.5681  1.6410 -0.9211
   41MOL   H18615466   1.316   4.799   6.155  1.2670 -1.6812 -0.7665
   41MOL   H18715467   1.382   4.758   6.307 -2.2422 -0.1614 -0.3402
   41MOL   H18815468   1.408   4.923   6.242 -2.1307 -0.2507  1.3060
   41MOL   H18915469   1.458   4.573   6.114 -1.1309  3.7647 -0.9559
   41MOL   H19015470   1.542   4.575   6.267  1.6578  0.1015  0.0147
   41MOL   H19115471   1.640   4.583   6.126  0.8827  0.1155 -0.1376
   41MOL   C19215472   1.454   4.666   5.743 -0.2287  0.4107  0.1906
   41MOL   C19315473   1.544   4.551   5.778  0.1502  0.3165 -0.0707
   41MOL   O19415474   1.678   4.594   5.747 -0.0819  0.1585 -0.4758
   41MOL   C19515475   1.707   4.628   5.611 -0.2300  0.2982  0.3706
   41MOL   C19615476   1.850   4.655   5.588 -0.4824 -0.0554 -0.2616
   41MOL   C19715477   1.916   4.764   5.670 -0.0547 -0.7798 -0.4066
   41MOL   C19815478   1.898   4.677   5.447 -0.2328 -0.5967 -0.8094
   41MOL   H19915479   1.460   4.677   5.635 -0.8353 -0.2235  0.0885
   41MOL   H20015480   1.348   4.647   5.762 -0.3514  2.4870  1.7396
   41MOL   H20115481   1.546   4.537   5.886  0.7763  3.2581  0.3620
   41MOL   H20215482   1.653   4.723   5.602  1.5004  1.1315 -1.5755
   41MOL   H20315483   1.673   4.562   5.531  0.4684  1.4309 -0.8893
   41MOL   H20415484   1.902   4.561   5.610 -1.2805 -0.0759  1.5526
   41MOL   H20515485   1.911   4.736   5.775  1.0768 -1.5332 -0.5551
   41MOL   H20615486   2.023   4.777   5.653  0.1197  1.3402  1.9577
   41MOL   H20715487   1.858   4.857   5.662 -0.4226 -0.7832  1.9733
   41MOL   H20815488   1.847   4.613   5.375  0.2131 -1.7392 -0.1124
   41MOL   H20915489   1.883   4.783   5.427  1.5375 -0.1599  0.0719
   41MOL   H21015490   2.007   4.668   5.441  0.1672  2.2089  1.2560
   41MOL   C21115491   1.517   4.413   5.702  0.2957  0.3673 -0.4330
   41MOL   C21215492   1.605   4.292   5.746 -0.3967  0.2790  0.4434
   41MOL   O21315493   1.579   4.251   5.878 -0.6153  0.2022  0.9630
   41MOL   C21415494   1.681   4.276   5.975  0.0558 -0.0867 -0.1501
   41MOL   C21515495   1.642   4.222   6.120  0.5681  0.8424  0.6373
   41MOL   C21615496   1.735   4.271   6.229  0.5191 -0.2806 -0.8463
   41MOL   C21715497   1.495   4.240   6.159  0.1502  0.3804 -0.3779
   41MOL   H21815498   1.522   4.425   5.594  2.2379 -0.1610 -0.4114
   41MOL   H21915499   1.415   4.379   5.722  0.3919  0.7845  0.7997
   41MOL   H22015500   1.708   4.326   5.738  0.3498 -1.5210  1.8947
   41MOL   H22115501   1.706   4.381   5.966 -0.8429  0.1555  0.1563
   41MOL   H22215502   1.772   4.224   5.944 -0.6950 -0.6979 -1.3601
   41MOL   H22315503   1.655   4.114   6.109 -2.8343  0.5613 -1.4367
   41MOL   H22415504   1.744   4.379   6.221  0.4618 -0.3027 -1.1989
   41MOL   H22515505   1.690   4.249   6.326  1.0269 -2.9888 -1.1704
   41MOL   H22615506   1.839   4.239   6.226  1.4019  2.3977  0.0776
   41MOL   H22715507   1.467   4.344   6.179 -0.9072  0.3597 -1.6909
   41MOL   H22815508   1.465   4.179   6.244  0.0398 -0.6858 -1.1717
   41MOL   H22915509   1.427   4.213   6.078  0.1753 -2.3455  0.4805
   41MOL   C23015510   1.593   4.164   5.655 -1.0564  0.2413  0.0495
   41MOL   C23115511   1.718   4.072   5.651  0.6694  0.0964 -0.4118
   41MOL   O23215512   1.679   3.952   5.576 -0.6542  0.0467  0.5818
   41MOL   C23315513   1.644   3.838   5.650  0.1625 -0.3034  0.2475
   41MOL   C23415514   1.622   3.720   5.551  0.1734  0.2058  0.0525
   41MOL   C23515515   1.498   3.738   5.456  0.0163 -0.1387  0.2939
   41MOL   C23615516   1.751   3.713   5.477 -0.1825 -0.5587  0.5578
   41MOL   H23715517   1.576   4.196   5.552 -0.1540 -0.5334 -0.3461
   41MOL   H23815518   1.507   4.102   5.681 -0.3809 -0.9673 -0.5421
   41MOL   H23915519   1.756   4.049   5.750  1.2116 -0.0735 -0.6594
   41MOL   H24015520   1.717   3.803   5.723 -0.3719 -0.8477  0.5244
   41MOL   H24115521   1.557   3.855   5.713  0.3806  1.2787  0.1527
   41MOL   H24215522   1.610   3.630   5.612 -1.6922 -0.4284 -1.2122
   41MOL   H24315523   1.486   3.656   5.385  1.0563  0.7196 -0.8962
   41MOL   H24415524   1.509   3.822   5.387 -1.9237 -1.2370 -1.4444
   41MOL   H24515525   1.411   3.753   5.519  0.9673  1.1700  1.3388
   41MOL   H24615526   1.847   3.703   5.529  1.3912  2.0022 -1.7384
   41MOL   H24715527   1.759   3.635   5.401  2.0400 -1.7063  1.8970
   41MOL   H24815528   1.773   3.801   5.417 -0.8898 -0.0465  1.0561
   41MOL   C24915529   1.827   4.131   5.557  0.0913 -0.1400 -0.4772
   41MOL   C25015530   1.965   4.067   5.564  0.3792 -0.1363  0.0219
   41MOL   O25115531   2.042   4.147   5.481  0.3763 -0.3619 -0.6746
   41MOL   C25215532   2.041   4.118   5.345  0.2491  0.1291 -0.1641
   41MOL   C25315533   2.124   4.235   5.282 -0.5411  0.0946  0.8887
   41MOL   C25415534   2.279   4.216   5.315  0.0091 -0.9063  0.3087
   41MOL   C25515535   2.070   4.373   5.330 -1.0828 -0.0074  1.0639
   41MOL   H25615536   1.843   4.234   5.590 -0.6218  0.2744 -1.4168
   41MOL   H25715537   1.784   4.149   5.459  0.9110  1.3942 -0.5735
   41MOL   H25815538   1.959   3.966   5.523 -0.6170 -0.1003  0.0862
   41MOL   H25915539   2.083   4.018   5.335 -0.4027 -0.3953  1.9398
   41MOL   H26015540   1.938   4.107   5.311  0.6684  1.2580 -1.8207
   41MOL   H26115541   2.110   4.228   5.174  0.9250  0.3593  0.6725
   41MOL   H26215542   2.307   4.234   5.419  1.7574  2.1184 -0.6142
   41MOL   H26315543   2.338   4.286   5.256 -1.4208  0.8842  0.9291
   41MOL   H26415544   2.324   4.124   5.278 -1.0385 -1.2210 -0.2050
   41MOL   H26515545   2.122   4.450   5.273 -0.0847  0.0790  2.0563
   41MOL   H26615546   1.962   4.385   5.328 -1.0780  0.4414  2.5565
   41MOL   H26715547   2.095   4.393   5.435 -0.4731  0.8270  0.7719
   41MOL   C26815548   2.038   4.072   5.704  0.2342 -0.1763 -0.6793
   41MOL   C26915549   2.191   4.030   5.703 -0.0463 -0.3151  0.1108
   41MOL   O27015550   2.199   3.901   5.641  0.1860  0.2886 -0.1346
   41MOL   C27115551   2.298   3.903   5.537 -0.5936 -0.1861  0.4464
   41MOL   C27215552   2.294   3.778   5.455 -0.1699  0.1617 -0.3699
   41MOL   C27315553   2.160   3.763   5.376  0.0188 -0.1637 -0.4084
   41MOL   C27415554   2.419   3.771   5.368 -0.0346  1.1402  0.0401
   41MOL   H27515555   1.986   3.997   5.763 -1.4066  1.3565 -0.1643
   41MOL   H27615556   2.006   4.164   5.753 -4.8490 -1.6181 -1.0335
   41MOL   H27715557   2.234   4.105   5.636  1.7612 -0.1848  1.3799
   41MOL   H27815558   2.284   3.988   5.469  0.1510 -1.1458 -0.9247
   41MOL   H27915559   2.392   3.915   5.591 -0.4620 -0.7173  0.3366
   41MOL   H28015560   2.301   3.689   5.518 -3.0503  0.6088  0.6900
   41MOL   H28115561   2.164   3.823   5.286 -1.9472  0.8448  0.1391
   41MOL   H28215562   2.077   3.785   5.444  1.6008  0.2850  1.4196
   41MOL   H28315563   2.145   3.660   5.344 -0.3246 -0.0310 -0.6762
   41MOL   H28415564   2.431   3.860   5.305 -2.3746  1.4130 -0.0535
   41MOL   H28515565   2.422   3.682   5.306  0.9823  1.0177  0.2495
   41MOL   H28615566   2.510   3.748   5.425  0.3640  1.0709 -0.6167
   41MOL   C28715567   2.256   4.021   5.840 -0.2432  0.4493 -0.5012
   41MOL   C28815568   2.266   4.160   5.909 -0.0607 -0.6692 -0.2022
   41MOL   O28915569   2.372   4.244   5.866  0.3612 -0.5044 -0.1749
   41MOL   C29015570   2.337   4.318   5.745  0.5185  0.1485 -0.7486
   41MOL   C29115571   2.359   4.471   5.754 -0.3401 -0.4631 -0.9749
   41MOL   C29215572   2.361   4.524   5.612  0.2920  0.1960  0.6352
   41MOL   C29315573   2.487   4.511   5.828  0.4723  0.1294 -0.4479
   41MOL   H29415574   2.357   3.982   5.825 -0.0462  1.1023 -0.8825
   41MOL   H29515575   2.192   3.949   5.890  2.5767 -1.6878  0.1665
   41MOL   H29615576   2.168   4.206   5.896 -0.0114 -0.2569  0.8936
   41MOL   H29715577   2.407   4.274   5.674 -0.8466 -2.6227 -0.4566
   41MOL   H29815578   2.233   4.311   5.712  0.4945 -1.3197 -0.3874
   41MOL   H29915579   2.276   4.510   5.813 -0.6122 -1.3200 -0.7820
   41MOL   H30015580   2.437   4.468   5.558 -0.7626 -0.6951  0.0594
   41MOL   H30115581   2.385   4.630   5.604 -2.0215  0.5802 -2.0657
   41MOL   H30215582   2.265   4.502   5.565  1.0704  0.1611 -0.9784
   41MOL   H30315583   2.486   4.478   5.932  1.3827 -1.3245 -0.8938
   41MOL   H30415584   2.580   4.480   5.780 -0.4236 -1.6597 -1.0755
   41MOL   H30515585   2.491   4.620   5.823 -0.4870  0.2121  0.4226
   41MOL   C30615586   2.279   4.149   6.066 -0.1039  0.4511  0.2514
   41MOL   C30715587   2.263   4.275   6.141 -0.4063  0.1543 -0.3650
   41MOL   O30815588   2.136   4.337   6.100 -0.5250 -0.6450  0.2014
   41MOL   C30915589   2.141   4.480   6.113  0.6043  0.2454  0.2376
   41MOL   C31015590   1.996   4.517   6.067  0.2247 -0.4163  0.4978
   41MOL   C31115591   1.979   4.483   5.918 -0.4496 -0.7628 -0.6463
   41MOL   C31215592   1.966   4.665   6.113  0.1057 -0.1580  0.1917
   41MOL   H31315593   2.365   4.089   6.099 -0.5149  1.0576  2.5197
   41MOL   H31415594   2.193   4.091   6.099 -0.7711  2.4164  2.0392
   41MOL   H31515595   2.344   4.344   6.119  0.5689 -1.1497 -0.9382
   41MOL   H31615596   2.216   4.532   6.053  0.4428  1.1981  0.8498
   41MOL   H31715597   2.161   4.515   6.215  3.8332  1.8995 -0.8784
   41MOL   H31815598   1.923   4.452   6.115  2.1502 -1.8433  1.5869
   41MOL   H31915599   2.054   4.520   5.847  0.1645  1.0486  0.9130
   41MOL   H32015600   1.891   4.535   5.880 -0.6097  1.7335  2.8724
   41MOL   H32115601   1.968   4.375   5.913 -2.0759 -0.6594  0.4258
   41MOL   H32215602   1.960   4.664   6.221  0.0754 -0.3853  0.1863
   41MOL   H32315603   1.878   4.705   6.063  1.4131  1.8158 -0.6243
   41MOL   H32415604   2.045   4.735   6.083  1.5919 -2.8296 -2.3805
   41MOL   C32515605   2.256   4.268   6.293  0.0017  0.0270 -0.1076
   41MOL   C32615606   2.375   4.193   6.359 -0.1576  0.0608 -0.9970
   41MOL   O32715607   2.487   4.271   6.334 -0.4678 -0.1210 -0.5623
   41MOL   C32815608   2.613   4.214   6.363  0.5314  0.3939 -0.7478
   41MOL   C32915609   2.708   4.270   6.255  0.5584  0.0363 -0.6880
   41MOL   C33015610   2.855   4.225   6.284  0.3293 -0.1182  0.4668
   41MOL   C33115611   2.664   4.221   6.118  0.1815  0.1418  0.1491
   41MOL   H33215612   2.162   4.217   6.310 -0.8736  1.0055 -1.8387
   41MOL   H33315613   2.233   4.365   6.336  1.8107  0.0934  0.7755
   41MOL   H33415614   2.382   4.091   6.322  2.2138  0.4732 -1.7861
   41MOL   H33515615   2.634   4.242   6.466  0.2269  2.3524 -1.2023
   41MOL   H33615616   2.610   4.105   6.362 -2.1668  0.4211  0.5057
   41MOL   H33715617   2.705   4.378   6.266  0.6064 -0.1207  0.9312
   41MOL   H33815618   2.861   4.116   6.284 -1.4694 -0.2428 -0.8581
   41MOL   H33915619   2.920   4.271   6.210 -0.4809 -1.7309 -1.2933
   41MOL   H34015620   2.883   4.261   6.383 -1.8558  0.6393  0.8393
   41MOL   H34115621   2.741   4.241   6.043 -0.4839 -0.3406 -0.6872
   41MOL   H34215622   2.639   4.115   6.116 -0.9264  0.4015 -0.4090
   41MOL   H34315623   2.582   4.283   6.079  0.2662 -1.1206 -2.1573
   41MOL   C34415624   2.356   4.174   6.518 -0.6348 -0.1176  0.1746
   41MOL   C34515625   2.241   4.084   6.557 -0.2292 -0.9033  0.0683
   41MOL   O34615626   2.258   3.954   6.503 -0.4673 -0.3711 -0.4219
   41MOL   C34715627   2.138   3.912   6.435  0.2858 -0.6983 -0.5353
   41MOL   C34815628   2.157   3.760   6.414 -0.2121  0.6254  0.1808
   41MOL   C34915629   2.201   3.684   6.533 -0.3960  0.4254  0.6715
   41MOL   C35015630   2.256   3.734   6.304  0.0087 -0.3812 -0.0665
   41MOL   H35115631   2.334   4.270   6.565 -0.0259  0.1946 -0.1641
   41MOL   H35215632   2.450   4.142   6.562 -0.1570 -0.0182 -0.7560
   41MOL   H35315633   2.151   4.129   6.512  1.2714  2.6467  0.4194
   41MOL   H35415634   2.121   3.971   6.346  0.0488  0.5360  0.3210
   41MOL   H35515635   2.052   3.920   6.502  1.2283  1.2488  0.4725
   41MOL   H35615636   2.060   3.720   6.386 -1.1039  1.1760  2.4052
   41MOL   H35715637   2.298   3.720   6.568  0.4312 -1.0602 -0.0435
   41MOL   H35815638   2.203   3.577   6.512 -0.3213  0.5174  0.2073
   41MOL   H35915639   2.120   3.693   6.606  0.8748  3.2258  1.8278
   41MOL   H36015640   2.247   3.633   6.265 -1.8156  0.0074 -0.6856
   41MOL   H36115641   2.232   3.804   6.223  0.3203  1.8347  1.7158
   41MOL   H36215642   2.360   3.743   6.336 -0.4809  2.0854  0.9681
   41MOL   C36315643   2.229   4.077   6.712  0.3476 -0.1475  0.4139
   41MOL   C36415644   2.097   4.018   6.763  0.0938  0.0133  0.0987
   41MOL   O36515645   2.070   4.050   6.896  0.7921 -0.2844  0.2253
   41MOL   C36615646   1.933   4.022   6.930 -0.4544 -0.0148  0.1966
   41MOL   C36715647   1.923   4.063   7.075 -0.3412 -0.0599  0.0205
   41MOL   C36815648   1.786   4.028   7.140 -0.2970 -0.3583 -0.2181
   41MOL   C36915649   1.950   4.213   7.097 -0.1135 -0.1844  0.0082
   41MOL   H37015650   2.318   4.028   6.752  1.3139 -0.7892 -2.3787
   41MOL   H37115651   2.238   4.180   6.745  1.2921  0.1326 -0.6792
   41MOL   H37215652   2.102   3.911   6.744 -3.8826 -0.0788 -0.8689
   41MOL   H37315653   1.857   4.081   6.878 -1.8636 -2.0881 -0.1730
   41MOL   H37415654   1.920   3.916   6.909 -0.8778 -0.4985  2.6846
   41MOL   H37515655   2.007   4.018   7.127 -1.3005 -1.2795  0.5447
   41MOL   H37615656   1.774   4.049   7.246  0.2449  1.5192 -0.5177
   41MOL   H37715657   1.759   3.925   7.114 -1.1003  0.0210 -0.8862
   41MOL   H37815658   1.711   4.091   7.093 -1.3135 -0.9549  0.5810
   41MOL   H37915659   1.887   4.278   7.037  1.1569  1.3345  0.2975
   41MOL   H38015660   2.052   4.237   7.071  0.2886 -1.0457  0.7598
   41MOL   H38115661   1.928   4.233   7.202  0.7399 -0.2874  0.2062
   41MOL   H38215662   2.008   4.049   6.707 -0.2286 -2.2921 -0.7250
   42MOL     C115663   1.090   3.699   4.492  0.5562  0.2177 -0.3272
   42MOL     C215664   1.152   3.753   4.624  1.0382 -0.0803 -0.0328
   42MOL     O315665   1.132   3.678   4.740 -0.4027 -0.3794 -1.3631
   42MOL     C415666   1.149   3.757   4.864  0.4161 -0.7635 -0.3853
   42MOL     C515667   1.141   3.651   4.980  0.1420 -0.0140 -0.4881
   42MOL     C615668   0.996   3.605   5.002 -0.1209 -0.7966  0.2886
   42MOL     C715669   1.191   3.719   5.105  0.6595  0.2040  0.0654
   42MOL     H815670   1.140   3.611   4.453 -0.9219 -0.7147 -0.1539
   42MOL     H915671   0.988   3.664   4.513  0.8427  0.8762  2.3771
   42MOL    H1015672   1.102   3.850   4.634  2.3189  0.4954  0.9501
   42MOL    H1115673   1.068   3.829   4.872  2.3093  1.3941 -0.1682
   42MOL    H1215674   1.246   3.807   4.868 -0.2127  0.4332 -0.1411
   42MOL    H1315675   1.193   3.559   4.956  1.9845  1.0266 -0.5903
   42MOL    H1415676   0.975   3.528   5.077  1.7396  1.2724  3.0387
   42MOL    H1515677   0.935   3.692   5.024 -1.4179 -1.8569  0.9811
   42MOL    H1615678   0.958   3.560   4.910 -0.4346 -0.6282  0.3331
   42MOL    H1715679   1.170   3.663   5.196 -1.6910  1.5920  0.4344
   42MOL    H1815680   1.300   3.724   5.103  0.7285 -1.1955 -0.1983
   42MOL    H1915681   1.157   3.822   5.118  0.2454 -0.2191  2.6166
   42MOL    H2015682   1.097   3.777   4.416 -1.1833  0.4332 -0.3011
   42MOL    C2115683   1.307   3.778   4.604  0.2758 -0.7705 -0.7173
   42MOL    C2215684   1.350   3.924   4.573  0.4095  0.5768 -0.0539
   42MOL    O2315685   1.292   4.009   4.674 -0.7754 -0.3680  0.2844
   42MOL    C2415686   1.255   4.134   4.627 -0.1323 -0.7320 -0.7614
   42MOL    C2515687   1.204   4.222   4.744  0.3515  0.4875  0.0643
   42MOL    C2615688   1.083   4.160   4.812  0.5547 -0.1014 -0.4403
   42MOL    C2715689   1.319   4.246   4.841 -0.4870 -0.5312 -0.6430
   42MOL    H2815690   1.366   3.760   4.694 -1.2758 -0.9660  0.2744
   42MOL    H2915691   1.353   3.712   4.530  0.0428 -0.3147 -1.2681
   42MOL    H3015692   1.309   3.954   4.476  0.1327  2.2248  0.5645
   42MOL    H3115693   1.177   4.119   4.552 -1.8284 -1.9092  1.1856
   42MOL    H3215694   1.342   4.181   4.582  0.3521  1.1948  2.0164
   42MOL    H3315695   1.178   4.320   4.704 -1.0826 -0.4646 -1.4026
   42MOL    H3415696   1.100   4.061   4.854  1.8280 -0.1303 -1.0144
   42MOL    H3515697   1.000   4.144   4.744 -1.2372 -0.2880  1.7195
   42MOL    H3615698   1.048   4.233   4.885 -0.9158 -0.6876 -0.5410
   42MOL    H3715699   1.406   4.294   4.796  0.3211  0.8126  2.2616
   42MOL    H3815700   1.294   4.320   4.918  2.9476  0.2353 -0.2097
   42MOL    H3915701   1.358   4.157   4.890 -1.0328  0.1811  1.1129
   42MOL    C4015702   1.503   3.939   4.594 -0.8282 -0.8438 -0.5006
   42MOL    C4115703   1.574   4.065   4.533  0.2099 -0.3957  0.1744
   42MOL    O4215704   1.514   4.090   4.402 -0.2275 -0.0037 -0.3760
   42MOL    C4315705   1.530   4.217   4.345  0.6589 -0.8375  0.4357
   42MOL    C4415706   1.456   4.235   4.209 -0.4588  0.4099 -0.0046
   42MOL    C4515707   1.523   4.163   4.100 -0.0621 -0.1643 -0.0976
   42MOL    C4615708   1.307   4.209   4.233 -0.7541 -0.0720  0.2574
   42MOL    H4715709   1.545   3.843   4.564 -1.4827 -1.7060  1.2727
   42MOL    H4815710   1.536   3.950   4.698  0.6389  0.9668 -1.1349
   42MOL    H4915711   1.560   4.153   4.596  2.3115  1.2584 -1.6215
   42MOL    H5015712   1.636   4.224   4.322  1.1491  0.3618  2.8212
   42MOL    H5115713   1.509   4.296   4.417 -2.7564 -2.2929  1.1261
   42MOL    H5215714   1.469   4.342   4.192 -2.4579  0.7466  0.4082
   42MOL    H5315715   1.473   4.181   4.005 -0.4749 -1.5747 -0.1666
   42MOL    H5415716   1.622   4.205   4.084  0.2251 -0.7134  0.2253
   42MOL    H5515717   1.515   4.054   4.107 -1.0545  0.0065  1.7525
   42MOL    H5615718   1.300   4.106   4.267  2.3083 -0.3159  0.3134
   42MOL    H5715719   1.247   4.206   4.142  1.1277 -0.8328 -1.0000
   42MOL    H5815720   1.257   4.275   4.304  1.0106  1.1896  0.3683
   42MOL    C5915721   1.723   4.035   4.514 -0.0979  0.5053  0.1038
   42MOL    C6015722   1.795   3.989   4.640 -0.4386 -0.3710 -0.2913
   42MOL    O6115723   1.783   4.078   4.748 -0.2076  0.2011 -0.2233
   42MOL    C6215724   1.800   4.021   4.876 -0.3147  0.0474 -0.3138
   42MOL    C6315725   1.736   4.104   4.986  0.3026 -0.4021  0.5121
   42MOL    C6415726   1.694   4.024   5.112  0.6146 -0.2682  0.0477
   42MOL    C6515727   1.824   4.218   5.023  0.1318  1.0149  0.8490
   42MOL    H6615728   1.772   4.127   4.483 -0.6534 -0.0247 -2.4299
   42MOL    H6715729   1.747   3.970   4.430  1.2489  0.8087  0.2532
   42MOL    H6815730   1.753   3.890   4.661  0.9356 -1.0459 -0.6129
   42MOL    H6915731   1.750   3.925   4.871  0.4176 -0.3633  0.1157
   42MOL    H7015732   1.908   4.012   4.888 -0.5387 -2.6138 -0.1032
   42MOL    H7115733   1.637   4.140   4.958  0.7747  0.2782 -0.3160
   42MOL    H7215734   1.621   3.944   5.098  1.0693 -1.0437  1.9637
   42MOL    H7315735   1.662   4.089   5.193 -0.5936 -0.4446 -0.2733
   42MOL    H7415736   1.787   3.980   5.145  0.6269  0.1243  0.5409
   42MOL    H7515737   1.763   4.296   5.068 -0.4656  1.2598 -0.3591
   42MOL    H7615738   1.913   4.206   5.084  0.8412  0.8652 -0.2002
   42MOL    H7715739   1.872   4.269   4.940  3.1162  0.1422  1.9791
   42MOL    C7815740   1.942   3.962   4.600 -0.2898  0.2833  0.1801
   42MOL    C7915741   1.983   3.819   4.644  0.6469  0.7009 -0.1900
   42MOL    O8015742   1.897   3.714   4.589 -0.0087  0.2227 -0.2404
   42MOL    C8115743   1.898   3.700   4.445  0.0782  0.3838 -0.0946
   42MOL    C8215744   1.800   3.591   4.393  0.2103  0.2329 -0.0763
   42MOL    C8315745   1.656   3.626   4.421 -0.5453  0.0942  0.0229
   42MOL    C8415746   1.831   3.454   4.444 -0.8493  0.3116  0.5939
   42MOL    H8515747   2.007   4.029   4.656  3.6551 -1.9481 -1.4831
   42MOL    H8615748   1.961   3.974   4.494  2.0126  1.1867  0.6785
   42MOL    H8715749   1.968   3.810   4.752  0.8266 -0.8972 -0.2871
   42MOL    H8815750   1.881   3.793   4.391 -1.9767  0.5744  0.8328
   42MOL    H8915751   1.997   3.670   4.410  1.0275  0.8908  2.0622
   42MOL    H9015752   1.804   3.577   4.285 -3.0597  0.1820 -0.2378
   42MOL    H9115753   1.632   3.639   4.527 -2.8564  2.4411 -0.7522
   42MOL    H9215754   1.595   3.546   4.379 -0.7724  1.1280 -1.6238
   42MOL    H9315755   1.627   3.717   4.370  1.2703  1.1583  0.8345
   42MOL    H9415756   1.803   3.431   4.547  1.4701 -0.9828  0.9788
   42MOL    H9515757   1.940   3.443   4.438 -0.9232  1.3921 -4.5476
   42MOL    H9615758   1.795   3.375   4.378  3.2049  0.5229 -2.0480
   42MOL    C9715759   2.129   3.786   4.618 -0.4851 -0.4035  0.7164
   42MOL    C9815760   2.169   3.643   4.665  0.2185  0.1450 -0.1227
   42MOL    O9915761   2.148   3.634   4.804 -0.1836 -0.0631  0.2861
   42MOL   C10015762   2.043   3.555   4.854 -0.2232 -0.1134  0.9538
   42MOL   C10115763   2.038   3.572   5.007  0.1764 -0.3741  0.3392
   42MOL   C10215764   2.161   3.511   5.068 -0.0807  0.0032 -1.1602
   42MOL   C10315765   2.014   3.721   5.051 -0.3299  0.6348 -0.0958
   42MOL   H10415766   2.188   3.860   4.672  0.0093 -0.3444  0.1065
   42MOL   H10515767   2.143   3.805   4.512  1.3689  1.5065  1.2897
   42MOL   H10615768   2.110   3.562   4.622 -0.8179  0.4821  0.6545
   42MOL   H10715769   2.059   3.453   4.820  0.3641  0.4567 -0.5348
   42MOL   H10815770   1.948   3.580   4.807 -1.2106 -2.7842  1.4179
   42MOL   H10915771   1.957   3.509   5.044 -0.5848 -0.8279 -2.0066
   42MOL   H11015772   2.249   3.565   5.032  1.4462 -2.7263 -1.7036
   42MOL   H11115773   2.164   3.503   5.177 -0.7905  1.1901 -1.0492
   42MOL   H11215774   2.181   3.412   5.026 -0.8618 -1.1215  0.9976
   42MOL   H11315775   2.104   3.783   5.056  0.1889 -0.3115  2.8116
   42MOL   H11415776   1.954   3.766   4.971  0.2464  0.8397 -0.4153
   42MOL   H11515777   1.956   3.720   5.144 -2.0948  2.0910 -1.1323
   42MOL   C11615778   2.320   3.618   4.625 -0.0460  0.3113 -0.1397
   42MOL   C11715779   2.340   3.571   4.479  0.6804  1.0702  0.7473
   42MOL   O11815780   2.324   3.680   4.392 -0.1834  0.3304 -0.4851
   42MOL   C11915781   2.281   3.655   4.250  0.4019  0.0177  0.4060
   42MOL   C12015782   2.288   3.781   4.179  0.2783 -0.2295 -0.0836
   42MOL   C12115783   2.431   3.829   4.154  0.2984 -0.2701  0.8738
   42MOL   C12215784   2.213   3.775   4.048 -0.6646 -1.1123  0.0969
   42MOL   H12315785   2.382   3.704   4.649 -1.3272  1.2001  0.0306
   42MOL   H12415786   2.345   3.533   4.689 -2.3866  0.8462  1.5509
   42MOL   H12515787   2.258   3.503   4.456  0.5572  0.9292  1.5822
   42MOL   H12615788   2.183   3.608   4.253 -0.2308  1.2259 -0.8314
   42MOL   H12715789   2.348   3.579   4.210  1.5257  0.1514  1.9604
   42MOL   H12815790   2.233   3.849   4.244  0.6959  0.6183 -0.5965
   42MOL   H12915791   2.489   3.829   4.247 -1.4852 -1.5153  2.0227
   42MOL   H13015792   2.434   3.932   4.118 -1.7218 -0.1696  0.9450
   42MOL   H13115793   2.475   3.761   4.081  0.1169 -0.8073  1.2604
   42MOL   H13215794   2.274   3.719   3.977  0.2588 -1.8527  1.4498
   42MOL   H13315795   2.118   3.723   4.054 -1.6542  0.3230 -2.3040
   42MOL   H13415796   2.208   3.875   4.005  1.5411 -0.8925  0.3020
   42MOL   C13515797   2.480   3.503   4.451  0.0059 -0.0205 -0.3522
   42MOL   C13615798   2.473   3.350   4.449 -0.1615  0.3750 -0.1664
   42MOL   O13715799   2.378   3.312   4.354  1.0024 -0.1704 -0.1570
   42MOL   C13815800   2.341   3.175   4.342  0.0262 -0.0498 -0.5501
   42MOL   C13915801   2.210   3.154   4.271 -0.2358  0.1053 -0.8033
   42MOL   C14015802   2.216   3.202   4.127 -0.0273 -0.2371 -0.9960
   42MOL   C14115803   2.183   3.001   4.278 -0.7735 -0.1865 -0.1371
   42MOL   H14215804   2.520   3.524   4.352  1.1266 -2.9453 -0.5824
   42MOL   H14315805   2.553   3.548   4.518 -0.7651  1.3008 -0.3782
   42MOL   H14415806   2.442   3.327   4.551  2.3549 -2.0996  0.0882
   42MOL   H14515807   2.331   3.132   4.442  2.2302 -1.3583 -0.8602
   42MOL   H14615808   2.426   3.119   4.303  0.3283  0.8359 -1.1848
   42MOL   H14715809   2.137   3.213   4.327 -0.2450 -0.7780  0.1275
   42MOL   H14815810   2.113   3.210   4.091 -0.8663  1.3237  1.5767
   42MOL   H14915811   2.273   3.143   4.055  0.5826  0.2993 -0.9622
   42MOL   H15015812   2.256   3.303   4.114  1.9073 -1.0179 -1.2228
   42MOL   H15115813   2.265   2.951   4.225 -0.8339  2.3380 -2.7723
   42MOL   H15215814   2.171   2.965   4.380 -1.2460  2.0081  0.6113
   42MOL   H15315815   2.092   2.975   4.224 -2.4653  0.8108  2.1846
   42MOL   C15415816   2.608   3.276   4.422  0.3072  0.0197 -0.0910
   42MOL   C15515817   2.724   3.316   4.515 -0.0806 -0.3511 -0.1392
   42MOL   O15615818   2.659   3.288   4.639  0.1255  0.6502  0.2187
   42MOL   C15715819   2.725   3.324   4.757 -0.6116  0.7099  0.4868
   42MOL   C15815820   2.632   3.290   4.876 -0.2775  0.1624  0.3040
   42MOL   C15915821   2.702   3.313   5.005  0.0803  0.1819  0.7632
   42MOL   C16015822   2.510   3.379   4.877  0.4481  0.2616  0.0133
   42MOL   H16115823   2.632   3.304   4.319 -1.7365 -1.0323 -0.8786
   42MOL   H16215824   2.592   3.168   4.423  2.7793 -0.4413 -2.5709
   42MOL   H16315825   2.734   3.424   4.507 -2.2679  0.1202  2.5442
   42MOL   H16415826   2.752   3.430   4.753 -0.5660  0.6790 -0.0541
   42MOL   H16515827   2.812   3.260   4.770 -0.9776  0.4792  1.8572
   42MOL   H16615828   2.603   3.186   4.866  1.6330 -0.4190  0.5753
   42MOL   H16715829   2.793   3.257   5.025  0.1422 -0.2336 -0.5803
   42MOL   H16815830   2.645   3.296   5.097 -3.3272  1.2443 -1.0420
   42MOL   H16915831   2.728   3.418   5.018  3.5970 -0.2399 -2.1824
   42MOL   H17015832   2.531   3.485   4.893  1.6277 -0.0171  0.3794
   42MOL   H17115833   2.467   3.387   4.777  2.7438  1.4868 -0.9197
   42MOL   H17215834   2.443   3.337   4.952 -1.3251 -2.0177 -2.7810
   42MOL   C17315835   2.851   3.236   4.476  0.3546  0.2925 -0.4239
   42MOL   C17415836   2.985   3.288   4.535 -0.2383  0.1785 -0.8770
   42MOL   O17515837   3.102   3.223   4.471 -0.2632 -0.0744 -0.0996
   42MOL   C17615838   3.135   3.086   4.499 -0.1750 -0.3188 -0.2083
   42MOL   C17715839   3.266   3.064   4.410 -0.5544  0.1661  0.3636
   42MOL   C17815840   3.385   3.154   4.453  0.4842 -0.6505  0.1484
   42MOL   C17915841   3.310   2.923   4.390 -0.2344  0.7428  0.0493
   42MOL   H18015842   2.837   3.132   4.502 -1.5651  0.4456 -0.7762
   42MOL   H18115843   2.864   3.233   4.367 -1.0304  0.5799 -0.5990
   42MOL   H18215844   2.991   3.234   4.630 -3.0379 -1.4804 -1.5881
   42MOL   H18315845   3.054   3.021   4.465 -1.2457  0.0680  1.5643
   42MOL   H18415846   3.150   3.069   4.605  0.4821  0.6267 -0.1438
   42MOL   H18515847   3.229   3.095   4.312 -0.1483  0.4936  0.3124
   42MOL   H18615848   3.373   3.255   4.413 -1.9508 -0.0246  2.3115
   42MOL   H18715849   3.393   3.156   4.562 -2.3758 -0.4864  0.4013
   42MOL   H18815850   3.476   3.122   4.403  0.4795  0.0805 -0.3428
   42MOL   H18915851   3.229   2.850   4.385  0.2011  0.1383  1.4146
   42MOL   H19015852   3.361   2.886   4.479  2.2861  0.6933 -1.3661
   42MOL   H19115853   3.376   2.910   4.304  0.4233 -0.2339  0.6878
   42MOL   C19215854   3.009   3.444   4.535  0.3057  0.6204 -0.4093
   42MOL   C19315855   3.146   3.488   4.592 -0.7052 -0.1110  0.4949
   42MOL   O19415856   3.151   3.494   4.733  0.5861  0.4748 -0.0586
   42MOL   C19515857   3.241   3.392   4.794  0.8903  0.1820  0.5353
   42MOL   C19615858   3.230   3.382   4.945  0.0818  0.1397 -1.2355
   42MOL   C19715859   3.339   3.295   5.016 -0.0373 -0.0972  0.2213
   42MOL   C19815860   3.093   3.324   4.997  0.9188  0.1745 -0.3643
   42MOL   H19915861   2.940   3.487   4.608  1.1569 -0.8546  1.3178
   42MOL   H20015862   2.991   3.489   4.438  0.8496 -1.8302 -1.6838
   42MOL   H20115863   3.230   3.433   4.551 -0.9911 -0.4645  0.3727
   42MOL   H20215864   3.337   3.433   4.763  0.1638  1.5489  0.0026
   42MOL   H20315865   3.223   3.295   4.747  0.7461 -0.0529  1.0738
   42MOL   H20415866   3.247   3.478   4.995  0.0839 -1.1956  1.4150
   42MOL   H20515867   3.437   3.333   4.989 -0.1699  1.1528  1.4382
   42MOL   H20615868   3.337   3.281   5.124 -3.8113  2.6372  0.5892
   42MOL   H20715869   3.335   3.191   4.981  0.0923 -0.4065  1.1234
   42MOL   H20815870   3.073   3.346   5.102  1.0521 -1.9919  0.1497
   42MOL   H20915871   3.011   3.364   4.938  1.8115 -0.6619 -2.1960
   42MOL   H21015872   3.095   3.215   4.991 -0.8096  0.1535 -0.7807
   42MOL   C21115873   3.163   3.633   4.557  0.6979 -0.2300  0.2194
   42MOL   C21215874   3.228   3.670   4.424  0.1796  0.4078 -0.4237
   42MOL   O21315875   3.186   3.588   4.314  0.1094 -0.2759 -0.2669
   42MOL   C21415876   3.274   3.580   4.206 -0.0292  0.1539  0.4759
   42MOL   C21515877   3.231   3.477   4.106  0.1393 -0.0480 -0.1204
   42MOL   C21615878   3.321   3.466   3.987 -0.2028  0.0563  0.9629
   42MOL   C21715879   3.209   3.345   4.174  0.5906 -0.0922 -0.2117
   42MOL   H21815880   3.238   3.680   4.620 -0.0886  3.2554 -1.3308
   42MOL   H21915881   3.069   3.684   4.580  1.1781 -0.2340  2.2408
   42MOL   H22015882   3.335   3.652   4.436  0.5177  1.5236 -1.6389
   42MOL   H22115883   3.363   3.531   4.246  1.4525  1.5083 -1.0577
   42MOL   H22215884   3.288   3.673   4.151  0.5412  0.1602  0.6275
   42MOL   H22315885   3.135   3.520   4.078 -0.2814 -0.2129  1.0720
   42MOL   H22415886   3.302   3.371   3.936  1.0066  0.3055  0.0172
   42MOL   H22515887   3.310   3.553   3.924 -0.6411  0.8828  2.1624
   42MOL   H22615888   3.427   3.460   4.015  0.0258 -0.2187  0.0479
   42MOL   H22715889   3.154   3.351   4.267  2.1669 -2.3132  0.9136
   42MOL   H22815890   3.306   3.301   4.200  0.9385  0.7788 -0.0326
   42MOL   H22915891   3.176   3.270   4.103  0.9929  1.7864 -2.4467
   42MOL   C23015892   3.203   3.822   4.387  0.3525 -0.0734 -0.1672
   42MOL   C23115893   3.053   3.847   4.346  0.3808  0.5943  0.7708
   42MOL   O23215894   2.956   3.860   4.447 -0.6198 -0.5664  0.2157
   42MOL   C23315895   2.830   3.801   4.422  0.1122  0.2843  0.4114
   42MOL   C23415896   2.729   3.841   4.528 -0.0148  0.0985  0.0983
   42MOL   C23515897   2.765   3.789   4.666 -0.1940  0.5856 -0.0960
   42MOL   C23615898   2.703   3.992   4.537 -0.1717 -0.4903 -0.4939
   42MOL   H23715899   3.270   3.849   4.305  1.1860 -0.8244  0.2411
   42MOL   H23815900   3.231   3.884   4.472  0.2196  1.2539 -1.0765
   42MOL   H23915901   3.021   3.768   4.277 -1.3867  0.6082  1.5342
   42MOL   H24015902   2.788   3.823   4.324 -0.7312 -0.3819  0.6150
   42MOL   H24115903   2.836   3.692   4.426  2.8373  0.3919  0.3253
   42MOL   H24215904   2.637   3.792   4.495  0.3873 -0.3821 -0.3127
   42MOL   H24315905   2.683   3.819   4.731  0.4697  0.8015  0.6415
   42MOL   H24415906   2.866   3.828   4.681 -0.4532  1.1951  0.1211
   42MOL   H24515907   2.762   3.680   4.667  1.1918  0.5416  2.2382
   42MOL   H24615908   2.684   4.035   4.438 -2.4958  0.6051  0.4045
   42MOL   H24715909   2.617   4.018   4.598  1.1989  0.3336  1.1285
   42MOL   H24815910   2.785   4.048   4.581  0.0589 -0.6011 -0.7804
   42MOL   C24915911   3.044   3.975   4.250  0.8143  0.3915  1.2379
   42MOL   C25015912   2.959   3.950   4.122 -0.1702  0.1979 -0.5753
   42MOL   O25115913   2.936   4.076   4.062 -0.0378 -0.3151 -0.5670
   42MOL   C25215914   2.822   4.142   4.117  0.5158  0.3728  0.3853
   42MOL   C25315915   2.836   4.290   4.072 -0.3476  0.3299 -0.2668
   42MOL   C25415916   2.724   4.373   4.136 -0.4859 -0.2174  0.0377
   42MOL   C25515917   2.843   4.300   3.919  0.2798 -1.2261 -0.2620
   42MOL   H25615918   3.145   3.998   4.218  0.5996  0.9299  0.9377
   42MOL   H25715919   3.012   4.057   4.315 -1.6992  1.1061 -0.8271
   42MOL   H25815920   2.865   3.905   4.153 -0.3689  0.7152 -0.4108
   42MOL   H25915921   2.737   4.093   4.071  0.1616  1.1754  0.1811
   42MOL   H26015922   2.814   4.122   4.223 -3.3792 -0.5041 -0.0241
   42MOL   H26115923   2.936   4.316   4.108 -1.0384  0.6219  1.4970
   42MOL   H26215924   2.747   4.365   4.242  0.8442 -4.1967 -0.4788
   42MOL   H26315925   2.619   4.354   4.115 -0.4670 -0.2677 -0.0124
   42MOL   H26415926   2.735   4.480   4.120  2.2592 -0.3526  0.6235
   42MOL   H26515927   2.935   4.260   3.877  1.0503  0.5344 -0.2699
   42MOL   H26615928   2.763   4.247   3.866  0.9060 -0.7916 -1.6510
   42MOL   H26715929   2.835   4.406   3.896  0.5610 -0.7496  1.7237
   42MOL   C26815930   3.022   3.856   4.020 -0.0222  0.1531 -0.3632
   42MOL   C26915931   2.919   3.818   3.911  0.5361  0.2105 -0.2699
   42MOL   O27015932   2.886   3.683   3.921 -0.1518 -0.7735  0.0497
   42MOL   C27115933   2.781   3.660   4.008  0.7164  0.6453 -0.1335
   42MOL   C27215934   2.717   3.516   4.021 -0.3721 -0.1777  0.5043
   42MOL   C27315935   2.672   3.465   3.880 -0.2574 -0.0965 -0.1364
   42MOL   C27415936   2.805   3.410   4.087 -0.5626  0.3998  0.3775
   42MOL   H27515937   3.050   3.762   4.068  3.2135 -0.6317 -3.6041
   42MOL   H27615938   3.112   3.892   3.969  0.5455 -2.1167 -1.0351
   42MOL   H27715939   2.839   3.891   3.919  0.3210 -0.0096 -0.4182
   42MOL   H27815940   2.810   3.699   4.106 -1.0834 -1.0465  1.1139
   42MOL   H27915941   2.696   3.723   3.981 -1.4837 -1.0753  2.4531
   42MOL   H28015942   2.627   3.532   4.081 -0.8438  0.7517 -0.4313
   42MOL   H28115943   2.617   3.371   3.880 -0.5546  0.0417  1.6709
   42MOL   H28215944   2.748   3.471   3.802 -1.7264  0.2207 -1.5605
   42MOL   H28315945   2.607   3.549   3.855 -2.0454 -1.4538 -0.1428
   42MOL   H28415946   2.744   3.319   4.094 -0.1653  0.1074  0.1211
   42MOL   H28515947   2.830   3.428   4.191  1.9698  1.5756 -0.4126
   42MOL   H28615948   2.897   3.383   4.035  0.6720  2.5285  1.4421
   42MOL   C28715949   2.976   3.842   3.769 -0.0044  0.2145  0.5046
   42MOL   C28815950   2.876   3.811   3.657  0.1912 -0.2153 -0.1531
   42MOL   O28915951   2.945   3.807   3.527 -0.6973 -0.6217  0.0814
   42MOL   C29015952   3.035   3.703   3.516  0.1419 -0.2765  0.7417
   42MOL   C29115953   3.051   3.661   3.369  0.0193 -0.0852 -0.1204
   42MOL   C29215954   2.920   3.693   3.279 -0.6599  0.3305  0.3301
   42MOL   C29315955   3.111   3.524   3.337  0.2387  0.3252  0.7158
   42MOL   H29415956   3.059   3.771   3.768  0.7355  1.0463  1.4543
   42MOL   H29515957   3.009   3.946   3.767 -0.2442  0.3462  2.1611
   42MOL   H29615958   2.832   3.711   3.664  0.4402 -0.4540 -1.7804
   42MOL   H29715959   3.134   3.726   3.556  1.1102 -0.3818 -1.5369
   42MOL   H29815960   3.001   3.613   3.568 -0.7922 -0.2468  0.1885
   42MOL   H29915961   3.124   3.730   3.327  0.5414 -0.1827  0.6313
   42MOL   H30015962   2.826   3.684   3.334  1.0228  1.3570  3.5302
   42MOL   H30115963   2.928   3.643   3.183  0.3958  2.3412 -0.6660
   42MOL   H30215964   2.918   3.800   3.259  1.8716 -0.0042 -1.8860
   42MOL   H30315965   3.195   3.508   3.404  2.0033  1.4658 -1.1626
   42MOL   H30415966   3.041   3.441   3.336 -0.0783  0.5946  0.3713
   42MOL   H30515967   3.159   3.526   3.239 -3.1103 -0.3768 -1.0096
   42MOL   C30615968   2.756   3.918   3.653  0.2208  0.5885  0.1335
   42MOL   C30715969   2.611   3.873   3.653 -0.1257  0.4068 -0.2906
   42MOL   O30815970   2.541   3.991   3.673 -0.2942 -0.1969  0.0954
   42MOL   C30915971   2.475   4.003   3.799  0.1756  0.1604 -0.1883
   42MOL   C31015972   2.423   4.143   3.818 -0.4342  0.8209  0.7189
   42MOL   C31115973   2.411   4.172   3.976 -0.2468 -0.2117  0.4579
   42MOL   C31215974   2.290   4.171   3.739 -0.0642  0.3575  0.3973
   42MOL   H31315975   2.763   3.966   3.556 -0.0449  0.8145  0.2250
   42MOL   H31415976   2.770   3.998   3.726  0.8005 -0.4708  1.1980
   42MOL   H31515977   2.586   3.803   3.733  0.9877  0.2351 -0.0899
   42MOL   H31615978   2.551   3.976   3.871 -0.2753 -0.1252  0.1872
   42MOL   H31715979   2.394   3.931   3.811 -0.4848  0.5601 -2.0678
   42MOL   H31815980   2.499   4.215   3.786  2.6766 -2.6900 -0.1286
   42MOL   H31915981   2.336   4.112   4.028 -1.2275  0.2250 -0.4432
   42MOL   H32015982   2.378   4.274   3.998  1.6066  0.7701 -1.1672
   42MOL   H32115983   2.505   4.154   4.029  0.0098  0.9180  0.4071
   42MOL   H32215984   2.207   4.106   3.765 -0.6816  1.4234  1.1458
   42MOL   H32315985   2.314   4.158   3.633  0.2468 -0.5302  0.5769
   42MOL   H32415986   2.253   4.273   3.756 -2.3489  0.0694 -2.2941
   42MOL   C32515987   2.558   3.823   3.514  0.7041 -0.3907 -0.1661
   42MOL   C32615988   2.410   3.786   3.511  0.2079  0.0639 -0.6287
   42MOL   O32715989   2.357   3.806   3.382 -0.4797  0.2043 -0.3074
   42MOL   C32815990   2.309   3.941   3.349 -0.3566  0.1939  0.4141
   42MOL   C32915991   2.248   3.935   3.205  0.4240  0.1525 -0.4058
   42MOL   C33015992   2.125   3.840   3.190 -0.3633 -0.0004 -0.2189
   42MOL   C33115993   2.208   4.070   3.161 -0.1767 -0.4448 -0.0467
   42MOL   H33215994   2.620   3.741   3.477  0.2925 -0.3504 -0.9352
   42MOL   H33315995   2.570   3.906   3.445 -0.7916  0.9731  1.1794
   42MOL   H33415996   2.359   3.844   3.588  0.9748 -0.9589  0.6723
   42MOL   H33515997   2.242   3.975   3.428  0.5582  0.5992  1.0385
   42MOL   H33615998   2.390   4.014   3.342 -0.4935  0.2003 -1.3167
   42MOL   H33715999   2.334   3.899   3.149  1.4075  0.3467  0.9370
   42MOL   H33816000   2.157   3.743   3.227  1.0564  0.5079 -0.0769
   42MOL   H33916001   2.038   3.876   3.245 -0.1211  0.9769 -0.4702
   42MOL   H34016002   2.103   3.828   3.083  0.5888  1.7814 -0.6282
   42MOL   H34116003   2.171   4.068   3.059  0.1237 -0.3078 -0.1582
   42MOL   H34216004   2.126   4.108   3.222 -0.4005 -1.2682  0.1697
   42MOL   H34316005   2.290   4.141   3.155  0.6061 -1.3431 -0.1769
   42MOL   C34416006   2.404   3.641   3.543  0.5711 -0.7525  0.0825
   42MOL   C34516007   2.260   3.598   3.553  0.0099  0.2037  1.0628
   42MOL   O34616008   2.255   3.463   3.564 -0.2403 -0.4417 -0.4485
   42MOL   C34716009   2.248   3.382   3.445  0.2454  0.1288  0.1122
   42MOL   C34816010   2.348   3.267   3.446  0.7665  0.6619 -0.3855
   42MOL   C34916011   2.495   3.311   3.473  0.7108 -0.7218 -0.9141
   42MOL   C35016012   2.334   3.189   3.311  0.6545  0.3464 -0.4822
   42MOL   H35116013   2.462   3.603   3.627 -0.7099 -1.6863  0.5469
   42MOL   H35216014   2.435   3.596   3.449 -0.7398 -2.6147  0.5202
   42MOL   H35316015   2.205   3.624   3.463 -1.0500 -0.5108  1.4864
   42MOL   H35416016   2.265   3.450   3.361  0.0968  0.4706  0.3611
   42MOL   H35516017   2.145   3.348   3.441  0.3434 -0.2712  0.9278
   42MOL   H35616018   2.321   3.199   3.526  1.2225 -0.7852 -1.4507
   42MOL   H35716019   2.558   3.224   3.496 -1.1841 -1.4681  1.7304
   42MOL   H35816020   2.497   3.370   3.565  0.1784 -0.3737 -1.1274
   42MOL   H35916021   2.526   3.364   3.384  0.3065  0.6281 -0.2595
   42MOL   H36016022   2.317   3.258   3.228  0.1827 -0.1620 -0.8110
   42MOL   H36116023   2.430   3.142   3.289  1.1983  1.0834  0.2488
   42MOL   H36216024   2.246   3.125   3.303  1.6071 -1.0157 -0.1498
   42MOL   C36316025   2.191   3.655   3.681  0.7333 -0.4596 -0.1746
   42MOL   C36416026   2.043   3.608   3.696 -0.5486  0.5852 -0.2563
   42MOL   O36516027   1.995   3.661   3.815 -0.6016  0.4379 -0.4381
   42MOL   C36616028   1.850   3.651   3.840 -0.3793  0.5912  0.1911
   42MOL   C36716029   1.780   3.775   3.776  0.0932 -0.1831 -0.1435
   42MOL   C36816030   1.836   3.900   3.839  0.3943  0.5589  0.4558
   42MOL   C36916031   1.626   3.765   3.789  0.3937 -0.6305  0.1348
   42MOL   H37016032   2.249   3.630   3.770  0.3760  0.4257  0.3104
   42MOL   H37116033   2.188   3.764   3.684  2.8333 -0.4057  2.0636
   42MOL   H37216034   2.039   3.499   3.701 -2.3708  0.7390  3.6970
   42MOL   H37316035   1.795   3.570   3.792 -3.3798  1.5544  1.8702
   42MOL   H37416036   1.836   3.651   3.948 -1.1244 -2.3276  0.1303
   42MOL   H37516037   1.801   3.773   3.669  0.6110  0.7657 -0.0671
   42MOL   H37616038   1.940   3.908   3.810  0.4028 -1.2149 -0.0441
   42MOL   H37716039   1.827   3.910   3.947  0.2965 -2.4467  0.7719
   42MOL   H37816040   1.803   3.990   3.788  0.8657  1.7627  2.2275
   42MOL   H37916041   1.565   3.845   3.747 -0.0702 -1.3098 -0.5140
   42MOL   H38016042   1.606   3.773   3.896  0.8949  0.9742  0.1212
   42MOL   H38116043   1.590   3.666   3.761 -1.3408  0.2474 -0.8665
   42MOL   H38216044   1.988   3.649   3.612 -1.1063  0.5145  0.0740
   43MOL     C116045   7.127   0.140   0.871  0.7787 -0.5997 -0.2094
   43MOL     C216046   7.148   0.274   0.940 -0.2263 -0.3884  0.5120
   43MOL     O316047   7.286   0.304   0.936 -0.2457 -0.1462  0.2353
   43MOL     C416048   7.355   0.266   1.060  0.8882 -0.9534 -0.3514
   43MOL     C516049   7.501   0.316   1.056 -0.1299  0.6360  0.1961
   43MOL     C616050   7.590   0.284   1.175  0.4074  1.0331 -0.3838
   43MOL     C716051   7.513   0.470   1.039 -0.1253 -0.2986  0.0098
   43MOL     H816052   7.025   0.110   0.849  0.4909  0.1510  0.0879
   43MOL     H916053   7.178   0.138   0.774 -0.7207 -2.0881 -0.9920
   43MOL    H1016054   7.121   0.255   1.044  0.3529  0.0996  0.7495
   43MOL    H1116055   7.353   0.158   1.067  1.7156 -1.0693 -1.7263
   43MOL    H1216056   7.306   0.318   1.143 -1.3888 -4.0741  0.3644
   43MOL    H1316057   7.541   0.266   0.968  0.3381  2.7345 -0.8036
   43MOL    H1416058   7.692   0.304   1.143  0.8355  0.2588  0.4941
   43MOL    H1516059   7.570   0.329   1.272  0.5375 -1.2974  0.7409
   43MOL    H1616060   7.583   0.177   1.189 -1.2535  0.8942 -1.9691
   43MOL    H1716061   7.476   0.521   1.128  0.7152  1.1026 -0.4424
   43MOL    H1816062   7.615   0.496   1.013  0.3197 -2.3048 -0.3584
   43MOL    H1916063   7.444   0.497   0.959 -0.7393  0.0077  0.6365
   43MOL    H2016064   7.170   0.058   0.927 -1.5939 -0.1259  2.3861
   43MOL    C2116065   7.071   0.389   0.876  0.0828  0.8444  0.0003
   43MOL    C2216066   7.114   0.532   0.921  0.1787  0.4427 -0.7998
   43MOL    O2316067   7.143   0.599   0.794 -0.4849  0.2490 -0.2436
   43MOL    C2416068   7.274   0.579   0.736  1.0885  0.3215  0.2022
   43MOL    C2516069   7.271   0.645   0.594 -0.7240 -0.5204  0.5458
   43MOL    C2616070   7.193   0.558   0.489 -0.3362 -0.5148  0.0544
   43MOL    C2716071   7.194   0.794   0.602 -0.3567  0.2996  0.1819
   43MOL    H2816072   7.090   0.375   0.770  2.2325  1.6443  0.2485
   43MOL    H2916073   6.966   0.365   0.894 -0.7494  3.4611 -1.0360
   43MOL    H3016074   7.205   0.537   0.980  0.6239  1.8637 -1.5960
   43MOL    H3116075   7.307   0.476   0.744 -0.4021 -0.0212  2.1512
   43MOL    H3216076   7.347   0.642   0.787  2.3859  1.2620 -2.6960
   43MOL    H3316077   7.369   0.665   0.553 -0.5931  1.5668  1.7792
   43MOL    H3416078   7.106   0.508   0.533 -1.5919 -0.3199 -2.1295
   43MOL    H3516079   7.262   0.477   0.466  2.0581  1.5541 -0.1860
   43MOL    H3616080   7.168   0.601   0.392 -1.4492  1.4321  1.1739
   43MOL    H3716081   7.255   0.873   0.557 -1.4463  0.3237 -1.2808
   43MOL    H3816082   7.103   0.800   0.542 -2.2415  1.7159  3.0445
   43MOL    H3916083   7.168   0.826   0.703  1.3637  0.6309  0.5340
   43MOL    C4016084   6.996   0.607   0.972 -0.4295 -0.1031 -0.1596
   43MOL    C4116085   6.938   0.561   1.118 -1.0550  0.3714  0.0280
   43MOL    O4216086   6.879   0.666   1.181  0.5905 -0.2777  0.2256
   43MOL    C4316087   6.754   0.702   1.127  0.1746  0.2944  0.2070
   43MOL    C4416088   6.676   0.795   1.214 -0.1845  0.1428 -0.3097
   43MOL    C4516089   6.686   0.751   1.363  0.0977 -0.5406  0.5262
   43MOL    C4616090   6.715   0.952   1.194 -0.1033 -0.2307 -0.1658
   43MOL    H4716091   6.919   0.610   0.896 -1.6309 -1.4082  0.9795
   43MOL    H4816092   7.036   0.707   0.989 -0.4959  0.1787 -1.6174
   43MOL    H4916093   6.864   0.485   1.093  0.2850 -0.8037 -0.4525
   43MOL    H5016094   6.693   0.617   1.098  0.1117  0.1837  0.6603
   43MOL    H5116095   6.784   0.753   1.035  0.4036  2.8384  1.6245
   43MOL    H5216096   6.575   0.776   1.176 -0.0531 -0.0517 -0.5630
   43MOL    H5316097   6.630   0.820   1.426 -1.2117 -2.1711  1.1985
   43MOL    H5416098   6.631   0.656   1.366 -1.3696  0.2058 -1.4935
   43MOL    H5516099   6.785   0.742   1.407 -0.3913  0.7497  1.9384
   43MOL    H5616100   6.664   1.011   1.270  0.1370  0.7459 -0.7587
   43MOL    H5716101   6.673   0.976   1.096 -0.3575 -1.0440 -0.2670
   43MOL    H5816102   6.823   0.968   1.192  0.1463 -1.6870  0.9372
   43MOL    C5916103   7.038   0.510   1.213 -0.8438 -0.6380 -0.2969
   43MOL    C6016104   6.976   0.465   1.348  0.2392  0.1764 -0.6959
   43MOL    O6116105   7.087   0.421   1.438  0.3490  0.2779  0.9208
   43MOL    C6216106   7.120   0.510   1.538  1.0740 -0.2362 -0.8328
   43MOL    C6316107   7.248   0.472   1.597  0.1115 -0.1423  0.0320
   43MOL    C6416108   7.372   0.495   1.493 -0.4199  0.4501  0.0624
   43MOL    C6516109   7.275   0.536   1.729  0.2599  0.0035  0.1916
   43MOL    H6616110   7.103   0.593   1.243 -1.3073 -0.9805  1.7498
   43MOL    H6716111   7.105   0.436   1.170 -1.4202 -0.3712 -1.6834
   43MOL    H6816112   6.919   0.541   1.402  1.3895 -0.6430  1.7550
   43MOL    H6916113   7.131   0.613   1.506  0.6111 -0.1727 -0.7810
   43MOL    H7016114   7.046   0.502   1.618  0.3274  1.0411 -1.3910
   43MOL    H7116115   7.250   0.363   1.601  0.2122 -0.3413 -3.7071
   43MOL    H7216116   7.386   0.603   1.482 -1.2334  0.4013 -1.6292
   43MOL    H7316117   7.367   0.442   1.398 -1.6933  0.4791  0.1060
   43MOL    H7416118   7.472   0.467   1.525 -0.0827  0.8772 -0.6054
   43MOL    H7516119   7.363   0.499   1.782 -1.7848 -4.0929  0.9592
   43MOL    H7616120   7.292   0.643   1.724  0.1776 -0.0950 -3.9699
   43MOL    H7716121   7.198   0.514   1.803  0.3355 -0.3155  0.1789
   43MOL    C7816122   6.882   0.342   1.324 -0.0800  0.0965 -0.6249
   43MOL    C7916123   6.817   0.279   1.444  0.3124  0.1592  0.0724
   43MOL    O8016124   6.718   0.374   1.488 -0.3103 -0.3029 -0.3074
   43MOL    C8116125   6.742   0.432   1.612 -0.1169 -0.7310  0.5094
   43MOL    C8216126   6.698   0.338   1.719 -0.1013  0.6808 -0.1253
   43MOL    C8316127   6.547   0.310   1.704 -0.6252  0.0479  0.9819
   43MOL    C8416128   6.717   0.400   1.864 -0.2706  0.3738 -0.1486
   43MOL    H8516129   6.946   0.264   1.281 -0.8267  0.2611 -2.0899
   43MOL    H8616130   6.807   0.347   1.245 -0.3108  0.4448 -0.3823
   43MOL    H8716131   6.895   0.257   1.517 -0.1168  0.1670  0.5361
   43MOL    H8816132   6.848   0.456   1.620  0.2512 -1.9721 -0.4120
   43MOL    H8916133   6.682   0.523   1.611 -0.8085 -1.1840 -1.2792
   43MOL    H9016134   6.753   0.244   1.714 -0.7840  0.3812 -2.1860
   43MOL    H9116135   6.489   0.401   1.693  1.3152  1.1927 -0.1366
   43MOL    H9216136   6.501   0.232   1.766 -1.1706  0.2175  0.7910
   43MOL    H9316137   6.543   0.266   1.604 -1.1907  0.4617  0.8255
   43MOL    H9416138   6.726   0.317   1.934  0.7850  1.7592  1.3710
   43MOL    H9516139   6.644   0.475   1.896  0.4717  1.7662 -1.6698
   43MOL    H9616140   6.816   0.444   1.868  0.6143 -1.4113 -1.6812
   43MOL    C9716141   6.738   0.152   1.400 -0.0955 -0.5748  0.2450
   43MOL    C9816142   6.812   0.021   1.433  0.3713  0.2067  0.2822
   43MOL    O9916143   6.924   0.018   1.335  0.6878 -0.5393 -0.3116
   43MOL   C10016144   7.049   0.005   1.400 -0.2712 -0.2202 -0.0755
   43MOL   C10116145   7.151   7.824   1.292  0.2001 -0.1349  0.3355
   43MOL   C10216146   7.295   7.817   1.347  0.1373 -0.4839  0.5515
   43MOL   C10316147   7.132   7.708   1.195 -0.0048 -0.3134  0.6765
   43MOL   H10416148   6.716   0.150   1.293 -2.2453 -0.3083  0.6560
   43MOL   H10516149   6.646   0.149   1.457 -0.8185  1.8891 -0.7318
   43MOL   H10616150   6.850   0.036   1.534  2.3451 -0.9674 -0.2596
   43MOL   H10716151   7.059   7.736   1.456 -0.7805 -0.5019 -0.4542
   43MOL   H10816152   7.080   0.090   1.461 -1.2304  0.6443 -0.7831
   43MOL   H10916153   7.143   0.090   1.232  0.9953 -1.7022 -2.2211
   43MOL   H11016154   7.356   7.816   1.257 -1.1864 -3.0939 -0.3616
   43MOL   H11116155   7.312   0.079   1.412  1.9825 -0.2907 -0.1642
   43MOL   H11216156   7.311   7.729   1.409  0.0096 -1.6804 -1.1029
   43MOL   H11316157   7.033   7.714   1.151  1.4831  1.4901 -2.6315
   43MOL   H11416158   7.197   7.715   1.108  0.4782 -0.1433  1.0481
   43MOL   H11516159   7.154   7.609   1.233 -1.5851  0.0487  2.6323
   43MOL   C11616160   6.733   7.719   1.399 -0.1724  1.3187  0.5187
   43MOL   C11716161   6.820   7.589   1.393  0.2040  0.5634 -0.1593
   43MOL   O11816162   6.879   7.562   1.521  0.1491  0.5959 -0.3669
   43MOL   C11916163   6.990   7.469   1.500 -0.0280  0.2842  0.0615
   43MOL   C12016164   7.037   7.440   1.638 -0.6756  0.5201  0.4743
   43MOL   C12116165   6.949   7.329   1.708 -0.0308 -0.4718  0.2715
   43MOL   C12216166   7.184   7.404   1.630  0.1589 -0.2503 -0.6637
   43MOL   H12316167   6.655   7.704   1.474  1.1381  1.4072  1.9161
   43MOL   H12416168   6.673   7.738   1.310  1.6988 -0.4078 -1.1683
   43MOL   H12516169   6.896   7.615   1.320  0.3888 -0.2203 -0.2515
   43MOL   H12616170   7.069   7.505   1.434  0.1381  1.0251  0.6575
   43MOL   H12716171   6.957   7.374   1.458 -2.7955  1.5552 -0.7436
   43MOL   H12816172   7.031   7.533   1.694 -0.1884  1.1012 -0.4319
   43MOL   H12916173   6.947   7.235   1.653 -1.2309  1.1514 -2.5644
   43MOL   H13016174   6.846   7.365   1.709 -0.0427 -0.4148 -1.4563
   43MOL   H13116175   6.997   7.314   1.805 -0.2258  1.8955  0.7716
   43MOL   H13216176   7.242   7.488   1.592 -0.1802  0.2607 -0.0636
   43MOL   H13316177   7.225   7.372   1.726  1.1241 -0.1014 -1.0203
   43MOL   H13416178   7.199   7.323   1.559  0.1933  0.5959 -1.6247
   43MOL   C13516179   6.738   7.471   1.334  0.0941  0.1355  0.2396
   43MOL   C13616180   6.772   7.418   1.198 -0.2655  0.5156  0.1510
   43MOL   O13716181   6.902   7.348   1.200 -0.2240 -0.1380 -0.1509
   43MOL   C13816182   6.982   7.355   1.083  0.1912  0.3423  0.1444
   43MOL   C13916183   7.101   7.259   1.077 -0.2316 -0.2889 -0.4078
   43MOL   C14016184   7.229   7.308   1.141 -0.0155  0.6353  0.5968
   43MOL   C14116185   7.068   7.128   1.154 -0.0370  0.7171  0.3904
   43MOL   H14216186   6.724   7.393   1.410  0.6405 -0.3783 -0.1806
   43MOL   H14316187   6.637   7.513   1.338  1.2313  2.9143  0.2510
   43MOL   H14416188   6.782   7.505   1.131  0.2473 -0.9738 -1.7604
   43MOL   H14516189   7.021   7.454   1.058  1.8049 -0.4338 -0.4745
   43MOL   H14616190   6.921   7.333   0.995 -0.5251 -0.8300  0.9322
   43MOL   H14716191   7.110   7.225   0.973  0.5104  0.1406 -0.4875
   43MOL   H14816192   7.296   7.222   1.139  0.0112  0.6648 -0.1592
   43MOL   H14916193   7.200   7.349   1.237 -3.6574 -0.7708  0.1787
   43MOL   H15016194   7.274   7.387   1.080  0.6629 -0.3156 -0.1405
   43MOL   H15116195   6.965   7.094   1.148  0.6564 -1.1759 -1.4952
   43MOL   H15216196   7.130   7.051   1.108 -0.1810  0.0184  1.3613
   43MOL   H15316197   7.081   7.133   1.262  3.1439  2.1140 -0.0188
   43MOL   C15416198   6.665   7.317   1.139 -0.6212 -0.6508 -0.0356
   43MOL   C15516199   6.526   7.371   1.104  0.5040  0.2156  0.9811
   43MOL   O15616200   6.510   7.455   0.989  0.4973  0.0237  0.0787
   43MOL   C15716201   6.499   7.595   1.018  0.5920 -0.7784 -0.2081
   43MOL   C15816202   6.556   7.669   0.901  0.0544 -0.2561 -0.0408
   43MOL   C15916203   6.485   7.809   0.875  1.0503 -0.3327 -0.0762
   43MOL   C16016204   6.709   7.683   0.898  0.8438  0.1741 -0.1088
   43MOL   H16116205   6.657   7.242   1.217  0.3372 -2.2206 -1.4270
   43MOL   H16216206   6.708   7.277   1.047  0.1832 -2.9723  1.3061
   43MOL   H16316207   6.489   7.418   1.195  1.2954  2.8326 -0.0170
   43MOL   H16416208   6.563   7.618   1.104 -0.1631  2.2496 -0.4361
   43MOL   H16516209   6.398   7.631   1.038  1.6572  2.8282 -1.1000
   43MOL   H16616210   6.526   7.615   0.811 -2.3647  1.9621 -0.6432
   43MOL   H16716211   6.526   0.053   0.801  0.1002 -2.5859 -2.7336
   43MOL   H16816212   6.487   0.033   0.973 -0.0775  0.6674 -0.5348
   43MOL   H16916213   6.383   7.788   0.843  1.8062 -0.0528 -2.7775
   43MOL   H17016214   6.737   7.752   0.818 -0.7498  0.2388 -0.6233
   43MOL   H17116215   6.739   7.730   0.992 -1.4621  1.7545 -0.1311
   43MOL   H17216216   6.763   7.589   0.884  1.3317  0.2878  0.9274
   43MOL   C17316217   6.418   7.268   1.078  0.3272  0.2271 -0.5073
   43MOL   C17416218   6.395   7.158   1.188  0.6956 -0.0664  0.2950
   43MOL   O17516219   6.336   7.229   1.299 -0.0160 -0.0446 -0.6678
   43MOL   C17616220   6.388   7.202   1.427  0.1541  0.5256  0.2567
   43MOL   C17716221   6.340   7.300   1.539 -0.5505  0.4271  0.7169
   43MOL   C17816222   6.420   7.424   1.519 -0.3800  0.3148 -0.2830
   43MOL   C17916223   6.192   7.331   1.525  0.2141  0.1102  0.5046
   43MOL   H18016224   6.323   7.314   1.048 -2.1473 -2.8322  2.2299
   43MOL   H18116225   6.460   7.226   0.986 -0.2829 -0.6619 -0.3955
   43MOL   H18216226   6.490   7.122   1.228  0.7678  1.6657  1.7227
   43MOL   H18316227   6.497   7.194   1.425  0.1542  0.6881 -0.4654
   43MOL   H18416228   6.355   7.101   1.449  0.9219  0.5174  1.3897
   43MOL   H18516229   6.375   7.267   1.637  2.7770  4.6703  1.0923
   43MOL   H18616230   6.404   7.495   1.600  0.3325  0.7521 -0.5215
   43MOL   H18716231   6.527   7.403   1.525 -0.5585 -1.9606 -3.4675
   43MOL   H18816232   6.395   7.474   1.425 -0.5723  0.5365 -0.1140
   43MOL   H18916233   6.133   7.240   1.533 -1.8832  1.2414 -1.6144
   43MOL   H19016234   6.161   7.378   1.432 -0.6276 -2.1454 -0.3909
   43MOL   H19116235   6.179   7.405   1.605  0.6691  0.3887  0.3186
   43MOL   C19216236   6.317   7.040   1.139  0.6017 -0.0442  0.1683
   43MOL   C19316237   6.302   6.925   1.241 -0.1482 -1.0855 -0.4673
   43MOL   O19416238   6.429   6.895   1.302 -0.0386  0.1722  0.2351
   43MOL   C19516239   6.535   6.833   1.220  0.3998  0.1291  0.3639
   43MOL   C19616240   6.654   6.804   1.308 -0.0253 -0.2939  0.4289
   43MOL   C19716241   6.734   6.933   1.328  0.6023  0.1136  0.4331
   43MOL   C19816242   6.737   6.697   1.233 -0.2605  0.4050  0.2298
   43MOL   H19916243   6.379   7.004   1.057 -0.6069 -0.8858 -0.3946
   43MOL   H20016244   6.221   7.070   1.095  0.9625 -1.1325 -1.4170
   43MOL   H20116245   6.246   6.951   1.331  1.2550 -2.1692  0.7387
   43MOL   H20216246   6.557   6.903   1.140 -1.5155  0.5518  0.1903
   43MOL   H20316247   6.489   6.742   1.182  1.2870  0.7043 -2.1542
   43MOL   H20416248   6.625   6.758   1.402 -1.7219 -0.9416 -0.3917
   43MOL   H20516249   6.734   6.997   1.240  1.0255  1.7688  1.6099
   43MOL   H20616250   6.686   7.001   1.399  0.1155 -0.2545  0.4560
   43MOL   H20716251   6.836   6.907   1.360  0.9284  1.0679  0.1851
   43MOL   H20816252   6.731   6.706   1.124  1.7312 -4.4378 -0.4109
   43MOL   H20916253   6.843   6.704   1.257 -0.2004  0.9450 -0.1741
   43MOL   H21016254   6.697   6.601   1.265 -2.3434  1.0300 -0.3788
   43MOL   C21116255   6.230   6.802   1.172  0.1926 -0.2399 -0.3736
   43MOL   C21216256   6.160   6.698   1.266  0.0001 -0.2524 -0.0462
   43MOL   O21316257   6.057   6.625   1.199 -0.1348 -0.0656 -0.5970
   43MOL   C21416258   5.933   6.676   1.189  0.0692  0.0174 -0.7135
   43MOL   C21516259   5.830   6.569   1.144 -0.0950 -0.0244 -0.1329
   43MOL   C21616260   5.688   6.594   1.205  0.0299  0.4910  0.1834
   43MOL   C21716261   5.835   6.525   0.995  0.1540 -0.5573 -0.1890
   43MOL   H21816262   6.294   6.758   1.096 -0.0048  0.0603 -0.7156
   43MOL   H21916263   6.153   6.859   1.120  0.1344  1.2961  1.3285
   43MOL   H22016264   6.108   6.758   1.340 -0.8989 -1.3311  0.2040
   43MOL   H22116265   5.935   6.756   1.115 -0.9090  0.0665 -0.7045
   43MOL   H22216266   5.915   6.721   1.287  2.0036  1.1471 -0.8645
   43MOL   H22316267   5.870   6.482   1.196  1.7559 -1.2661 -3.4789
   43MOL   H22416268   5.631   6.503   1.223 -1.1148  0.9390 -1.0665
   43MOL   H22516269   5.685   6.642   1.302  2.2758 -0.4841  0.7681
   43MOL   H22616270   5.618   6.649   1.143 -0.6190 -2.3796 -1.7532
   43MOL   H22716271   5.932   6.481   0.974 -0.9000 -3.1780  0.1947
   43MOL   H22816272   5.807   6.611   0.935 -1.2633 -1.1253 -0.3659
   43MOL   H22916273   5.758   6.452   0.967 -0.7543  0.3685 -0.1285
   43MOL   C23016274   6.260   6.602   1.335 -0.2972 -0.1226 -0.5963
   43MOL   C23116275   6.215   6.568   1.477 -0.1458  0.1456 -0.5458
   43MOL   O23216276   6.220   6.692   1.542  0.2439  0.4696  0.1552
   43MOL   C23316277   6.326   6.718   1.633  0.6126 -0.2505 -0.2639
   43MOL   C23416278   6.295   6.839   1.716  0.4404  0.2063  0.0635
   43MOL   C23516279   6.189   6.806   1.822 -0.5989  0.1331  0.1126
   43MOL   C23616280   6.423   6.901   1.782  0.5912  0.6603  0.1891
   43MOL   H23716281   6.360   6.644   1.341 -0.3369 -0.3718  2.1374
   43MOL   H23816282   6.274   6.509   1.279 -0.4854  0.5455 -1.7609
   43MOL   H23916283   6.285   6.510   1.536 -3.2143 -2.8235  0.3145
   43MOL   H24016284   6.362   6.636   1.695 -0.5048  0.9785  2.0604
   43MOL   H24116285   6.413   6.739   1.570 -0.3341 -2.1412 -2.2612
   43MOL   H24216286   6.255   6.921   1.657  1.3104 -0.4834 -1.5464
   43MOL   H24316287   6.095   6.785   1.771 -0.6084 -0.1980  0.2610
   43MOL   H24416288   6.169   6.894   1.884  1.3438  0.7950 -0.1787
   43MOL   H24516289   6.221   6.727   1.890 -2.8496 -1.3573 -0.4842
   43MOL   H24616290   6.491   6.957   1.719  2.7300 -0.2142  1.6462
   43MOL   H24716291   6.390   6.973   1.857  1.8645 -0.9238  2.3450
   43MOL   H24816292   6.483   6.837   1.847 -0.3970  0.6750  1.1316
   43MOL   C24916293   6.079   6.496   1.482  0.3741  0.1553 -0.2126
   43MOL   C25016294   6.035   6.446   1.626 -0.0983  0.6067 -0.2856
   43MOL   O25116295   5.930   6.354   1.619  0.5254  0.4277 -0.2737
   43MOL   C25216296   5.807   6.402   1.573  0.0270 -0.0488  0.1623
   43MOL   C25316297   5.703   6.290   1.577 -0.2478  0.0465 -0.0844
   43MOL   C25416298   5.694   6.248   1.719 -0.3810  0.3675 -0.4541
   43MOL   C25516299   5.745   6.167   1.496  0.6895  0.1884  0.3908
   43MOL   H25616300   6.080   6.412   1.413 -1.2011  0.8846 -1.1508
   43MOL   H25716301   6.000   6.560   1.443 -0.5413 -0.8443 -0.0321
   43MOL   H25816302   6.003   6.534   1.681 -0.3593  0.4510 -0.1885
   43MOL   H25916303   5.777   6.488   1.633 -1.6996  0.2152 -1.0528
   43MOL   H26016304   5.828   6.435   1.471 -0.5099  2.0727  0.7177
   43MOL   H26116305   5.609   6.330   1.541  0.4724  1.2950 -0.6120
   43MOL   H26216306   5.609   6.184   1.743 -1.0120  1.5205  0.4712
   43MOL   H26316307   5.683   6.335   1.784 -0.0713 -1.4665  2.1240
   43MOL   H26416308   5.789   6.204   1.750 -1.3604 -1.2681  0.2546
   43MOL   H26516309   5.773   6.204   1.397  0.9015  3.1830  1.5412
   43MOL   H26616310   5.831   6.118   1.541 -1.0510 -1.7266  1.7187
   43MOL   H26716311   5.667   6.092   1.509 -0.0018  1.3653  3.5115
   43MOL   C26816312   6.138   6.378   1.716 -0.9250  0.7690 -0.3037
   43MOL   C26916313   6.079   6.320   1.852 -0.3480 -0.8698 -0.2847
   43MOL   O27016314   6.065   6.431   1.937  0.2038 -0.0591  0.3075
   43MOL   C27116315   5.961   6.414   2.029 -0.3019  0.2568 -0.2321
   43MOL   C27216316   5.982   6.505   2.145  0.4514  0.2982 -0.7972
   43MOL   C27316317   5.932   6.638   2.107 -0.3748 -0.3036 -0.2577
   43MOL   C27416318   5.899   6.454   2.262  0.1301 -0.6261 -0.0315
   43MOL   H27516319   6.218   6.449   1.738  0.8430 -1.5419  1.0059
   43MOL   H27616320   6.171   6.296   1.653 -0.7879  0.7245 -0.1752
   43MOL   H27716321   5.985   6.266   1.843 -0.6026 -0.2160 -1.6055
   43MOL   H27816322   5.856   6.417   1.999 -0.8250 -0.6039  1.4512
   43MOL   H27916323   5.964   6.310   2.062 -0.4339  0.7044  1.2581
   43MOL   H28016324   6.087   6.498   2.173  0.4076  0.2081 -0.6557
   43MOL   H28116325   5.993   6.680   2.027  1.7314  0.2608  1.5976
   43MOL   H28216326   5.958   6.697   2.195 -1.3703 -0.8695  0.4264
   43MOL   H28316327   5.827   6.628   2.081 -0.6827  2.1624 -0.0695
   43MOL   H28416328   5.917   6.361   2.316 -0.5120  0.6469  2.4511
   43MOL   H28516329   5.794   6.453   2.230  0.5635  1.1491 -1.6243
   43MOL   H28616330   5.916   6.525   2.343  0.3567 -0.5113 -0.1804
   43MOL   C28716331   6.184   6.232   1.917 -1.2498  0.4870 -0.0759
   43MOL   C28816332   6.164   6.081   1.898  0.4513  0.4037 -0.3644
   43MOL   O28916333   6.066   6.039   1.994  0.4956  0.0302 -0.8767
   43MOL   C29016334   5.948   5.983   1.938 -0.4436  0.5953 -0.1350
   43MOL   C29116335   5.860   5.930   2.057 -0.2840  0.3041 -0.2054
   43MOL   C29216336   5.837   6.041   2.159  0.4563  0.0622 -0.7875
   43MOL   C29316337   5.916   5.798   2.109  0.0226  0.2247 -0.1274
   43MOL   H29416338   6.189   6.254   2.024 -3.2305 -0.1164  0.1492
   43MOL   H29516339   6.287   6.248   1.883 -1.1960 -0.3681 -0.3289
   43MOL   H29616340   6.125   6.051   1.800  0.9209 -0.3357 -0.3342
   43MOL   H29716341   5.879   6.044   1.879  0.3303  1.9630  0.3600
   43MOL   H29816342   5.964   5.898   1.872 -0.6689  0.1650  0.3637
   43MOL   H29916343   5.764   5.903   2.013 -1.1174  0.7603  1.3203
   43MOL   H30016344   5.769   6.016   2.241  0.4363  3.6048  0.3793
   43MOL   H30116345   5.798   6.131   2.112 -0.8588 -0.8201 -1.4097
   43MOL   H30216346   5.932   6.075   2.200  0.6714 -0.1926 -1.0863
   43MOL   H30316347   5.853   5.749   2.182  0.0225  0.0776 -0.2245
   43MOL   H30416348   5.946   5.728   2.030  3.4937 -0.6202  1.8262
   43MOL   H30516349   6.011   5.822   2.158 -0.1410 -1.9469  1.2988
   43MOL   C30616350   6.299   6.004   1.920  0.4358  0.6565  0.4215
   43MOL   C30716351   6.383   5.997   1.793  0.4832 -0.5808  0.3428
   43MOL   O30816352   6.519   5.981   1.827  0.0768 -0.1923 -0.3046
   43MOL   C30916353   6.582   6.114   1.848  0.5452  0.1035  0.1387
   43MOL   C31016354   6.730   6.100   1.877  0.0113  0.2527 -0.5814
   43MOL   C31116355   6.786   6.238   1.892 -0.1418  0.2199 -0.0485
   43MOL   C31216356   6.807   6.027   1.768 -0.2933  1.2343  0.0884
   43MOL   H31316357   6.277   5.908   1.968 -0.0909  1.1578  1.2007
   43MOL   H31416358   6.349   6.060   1.999  0.2468  2.0512 -0.4317
   43MOL   H31516359   6.376   6.087   1.732 -0.2687 -0.6015  0.3930
   43MOL   H31616360   6.537   6.166   1.933 -0.3018  0.5189 -0.5598
   43MOL   H31716361   6.573   6.180   1.762  2.5564  0.4638  0.1973
   43MOL   H31816362   6.729   6.050   1.974  0.5405 -1.6331 -1.5271
   43MOL   H31916363   6.779   6.299   1.802 -1.1926 -0.7522 -0.6376
   43MOL   H32016364   6.893   6.238   1.916  0.0945  0.0161 -1.0488
   43MOL   H32116365   6.729   6.281   1.973 -0.3022  0.3046 -0.2050
   43MOL   H32216366   6.808   6.072   1.669  1.1851  0.1274 -0.4146
   43MOL   H32316367   6.755   5.934   1.747  0.4408  0.2377  2.4743
   43MOL   H32416368   6.908   5.993   1.793 -1.0046 -1.3434 -0.4584
   43MOL   C32516369   6.345   5.872   1.712 -0.2923 -0.3947 -0.1828
   43MOL   C32616370   6.423   5.868   1.574  0.2542  0.5390 -0.5735
   43MOL   O32716371   6.459   5.735   1.548 -0.5944  0.1468 -0.3823
   43MOL   C32816372   6.595   5.706   1.606 -0.0304  0.5033 -0.2482
   43MOL   C32916373   6.624   5.559   1.555 -0.0531  0.4214 -0.3272
   43MOL   C33016374   6.780   5.527   1.588  0.0212  0.6181  0.2368
   43MOL   C33116375   6.523   5.458   1.610  0.3175  0.1512 -0.0734
   43MOL   H33216376   6.237   5.869   1.693 -0.1345  2.4605 -1.9460
   43MOL   H33316377   6.360   5.787   1.777 -1.6911  0.7329  1.6824
   43MOL   H33416378   6.503   5.942   1.565  0.1257  0.5493 -1.8117
   43MOL   H33516379   6.667   5.782   1.573 -1.0386  1.0352 -1.2728
   43MOL   H33616380   6.592   5.705   1.715  0.8232 -0.2283 -0.2288
   43MOL   H33716381   6.610   5.563   1.447  0.7813  0.5248 -0.4376
   43MOL   H33816382   6.822   5.456   1.517 -3.2735 -0.3169 -0.8334
   43MOL   H33916383   6.837   5.619   1.574 -0.4317  0.8258 -0.2435
   43MOL   H34016384   6.807   5.488   1.687 -1.8235 -0.8802  0.1789
   43MOL   H34116385   6.545   5.359   1.570 -0.4596  0.2632 -0.7795
   43MOL   H34216386   6.526   5.463   1.719 -0.7684 -0.9236  0.0131
   43MOL   H34316387   6.427   5.484   1.565  0.9927  1.8834 -0.5429
   43MOL   C34416388   6.335   5.898   1.448  0.5315 -0.2430  0.3238
   43MOL   C34516389   6.298   6.048   1.455  0.2344  1.1379  0.7382
   43MOL   O34616390   6.421   6.118   1.442 -0.1761 -0.1101 -0.2510
   43MOL   C34716391   6.426   6.245   1.503  0.0646 -0.7761  0.0190
   43MOL   C34816392   6.567   6.302   1.508 -0.2130 -0.4667 -0.3178
   43MOL   C34916393   6.573   6.444   1.576 -0.0584 -0.8108  0.0122
   43MOL   C35016394   6.609   6.321   1.361 -0.5522 -0.0373  0.4060
   43MOL   H35116395   6.244   5.838   1.449  0.3455  0.0322  2.1498
   43MOL   H35216396   6.399   5.878   1.362 -1.1792  0.6963 -1.2064
   43MOL   H35316397   6.245   6.073   1.546 -1.0513  2.6019 -0.3852
   43MOL   H35416398   6.391   6.249   1.607  2.4588 -0.9223  0.8670
   43MOL   H35516399   6.353   6.310   1.455  0.9236  1.8731  2.1824
   43MOL   H35616400   6.636   6.234   1.558  0.3129  0.8345  0.7851
   43MOL   H35716401   6.673   6.488   1.579 -0.7870  0.7911  4.6344
   43MOL   H35816402   6.536   6.441   1.678 -1.3993  1.9794 -0.3611
   43MOL   H35916403   6.516   6.510   1.511  0.7203  0.6952  0.8265
   43MOL   H36016404   6.593   6.237   1.294  2.0204  1.1328 -1.7487
   43MOL   H36116405   6.559   6.411   1.325 -0.0695 -0.0410 -0.2698
   43MOL   H36216406   6.712   6.353   1.347 -0.9741  1.4210  0.6013
   43MOL   C36316407   6.200   6.088   1.347 -0.0898  0.4023 -0.5165
   43MOL   C36416408   6.236   6.054   1.208  1.0511  0.2560 -0.1550
   43MOL   O36516409   6.128   6.088   1.119  0.6012 -0.2180 -0.0818
   43MOL   C36616410   6.135   6.046   0.981 -0.6562  0.1012 -0.0087
   43MOL   C36716411   6.075   6.154   0.890  0.4725  0.2506  0.1466
   43MOL   C36816412   5.924   6.175   0.915  0.5248 -0.3492  0.0771
   43MOL   C36916413   6.096   6.117   0.750  0.0390 -0.1702  0.5285
   43MOL   H37016414   6.100   6.046   1.365 -0.4290  0.0530 -3.0437
   43MOL   H37116415   6.190   6.196   1.338  2.4650  0.5227 -2.1329
   43MOL   H37216416   6.251   5.947   1.190 -2.1229 -0.6762  2.3121
   43MOL   H37316417   6.242   6.053   0.960 -1.1329 -1.3114 -3.3091
   43MOL   H37416418   6.100   5.943   0.984 -0.4018  0.0170  0.1026
   43MOL   H37516419   6.134   6.245   0.892  0.8363  0.0504 -0.9877
   43MOL   H37616420   5.858   6.088   0.917  1.5217 -1.1091  1.4668
   43MOL   H37716421   5.885   6.248   0.845  0.7808 -0.9033 -0.6452
   43MOL   H37816422   5.903   6.223   1.011  0.1839 -1.3093  0.4886
   43MOL   H37916423   6.062   6.016   0.726 -0.8469  0.2605 -0.0408
   43MOL   H38016424   6.200   6.128   0.718 -0.4424  1.4399 -0.5230
   43MOL   H38116425   6.044   6.190   0.688  3.0594 -0.4697 -2.4451
   43MOL   H38216426   6.330   6.108   1.196  1.0015 -0.0413 -2.0144
   44MOL     C116427   0.549   4.001   5.484 -0.7537  0.0387  0.0153
   44MOL     C216428   0.690   4.056   5.480  0.0284 -0.1851 -0.1810
   44MOL     O316429   0.716   4.096   5.350 -0.2759  0.5825  0.0913
   44MOL     C416430   0.792   4.014   5.272  0.3300 -0.4443 -0.5444
   44MOL     C516431   0.803   4.062   5.129  0.5397 -0.3383 -0.1910
   44MOL     C616432   0.668   4.073   5.049  0.0416 -0.7105 -0.1470
   44MOL     C716433   0.878   3.959   5.038 -0.2653  0.0408  0.1795
   44MOL     H816434   0.524   3.972   5.586  0.5714 -2.4834 -0.3379
   44MOL     H916435   0.477   4.067   5.436  0.8324  1.4235 -0.4955
   44MOL    H1016436   0.758   3.977   5.515 -0.2176 -0.1892  0.2939
   44MOL    H1116437   0.759   3.910   5.279 -1.5541  0.0512 -1.6089
   44MOL    H1216438   0.889   4.002   5.321  0.3177 -1.8881 -0.8416
   44MOL    H1316439   0.861   4.154   5.133  2.3716 -1.5158  1.2014
   44MOL    H1416440   0.670   4.093   4.942  0.8375 -1.6315 -0.3070
   44MOL    H1516441   0.626   3.973   5.044  0.1681 -0.6781 -2.6126
   44MOL    H1616442   0.601   4.150   5.087  0.7082 -0.7757  1.2105
   44MOL    H1716443   0.817   3.870   5.023 -2.3902  1.7206 -1.3861
   44MOL    H1816444   0.898   4.010   4.944  0.8404 -2.5026 -1.0422
   44MOL    H1916445   0.975   3.936   5.084  1.0098  1.6828 -1.6253
   44MOL    H2016446   0.542   3.913   5.421 -0.1145  0.4543 -0.6474
   44MOL    C2116447   0.706   4.182   5.566  0.1749 -0.2012  0.5950
   44MOL    C2216448   0.849   4.233   5.583  0.2918  0.3039  0.0646
   44MOL    O2316449   0.825   4.362   5.649  0.0772 -0.5530 -0.6614
   44MOL    C2416450   0.891   4.470   5.587  0.0502  0.6686 -0.5216
   44MOL    C2516451   0.898   4.597   5.673 -0.1683 -0.0305  0.0581
   44MOL    C2616452   1.013   4.693   5.621  0.2725 -0.5111 -0.4815
   44MOL    C2716453   0.768   4.674   5.676  0.4216 -0.1022  0.3167
   44MOL    H2816454   0.652   4.265   5.519  0.9427 -0.2716 -0.4390
   44MOL    H2916455   0.650   4.170   5.658  0.2894 -2.7371  0.3507
   44MOL    H3016456   0.888   4.251   5.483 -0.7289 -0.1080 -0.4157
   44MOL    H3116457   0.839   4.484   5.493  0.8560 -1.7023 -1.3609
   44MOL    H3216458   0.991   4.437   5.558  0.9383  2.3581  0.4994
   44MOL    H3316459   0.932   4.560   5.769 -2.7056  1.4149  1.5802
   44MOL    H3416460   1.114   4.653   5.631  0.7454  1.0707  1.4986
   44MOL    H3516461   1.009   4.776   5.693  3.0448 -1.5574  0.9489
   44MOL    H3616462   1.007   4.735   5.521  0.6337  2.2151  0.5718
   44MOL    H3716463   0.682   4.609   5.693 -1.1184  1.9069  0.5172
   44MOL    H3816464   0.773   4.755   5.749 -0.4873 -0.3447  0.6502
   44MOL    H3916465   0.741   4.717   5.579  2.3004  4.7684  1.8066
   44MOL    C4016466   0.933   4.141   5.671 -0.2966  0.3170 -0.1331
   44MOL    C4116467   1.081   4.178   5.663 -0.7460  0.5297  0.4110
   44MOL    O4216468   1.129   4.147   5.534 -0.4761 -0.2361  0.4256
   44MOL    C4316469   1.229   4.229   5.481  0.2923  0.4828 -1.0203
   44MOL    C4416470   1.263   4.184   5.348 -1.2251  0.1240  1.1849
   44MOL    C4516471   1.362   4.071   5.342 -0.5298  0.1053  1.1320
   44MOL    C4616472   1.151   4.165   5.242 -0.3578 -0.3539  0.3612
   44MOL    H4716473   0.906   4.040   5.638  0.1658  1.2515 -3.5686
   44MOL    H4816474   0.903   4.173   5.771 -0.4385  1.9426 -0.6886
   44MOL    H4916475   1.064   4.280   5.698  0.0721  0.7612  0.1381
   44MOL    H5016476   1.319   4.233   5.542  0.6421  1.0497 -1.5667
   44MOL    H5116477   1.189   4.331   5.480 -1.8748 -0.3343 -0.3398
   44MOL    H5216478   1.323   4.267   5.312 -1.3185 -0.4012 -0.1904
   44MOL    H5316479   1.371   4.040   5.238  1.2041  1.5910  0.8149
   44MOL    H5416480   1.460   4.101   5.379 -0.6615  1.4447  0.4177
   44MOL    H5516481   1.316   3.989   5.398  1.3666 -0.8877  1.2631
   44MOL    H5616482   1.100   4.069   5.251 -0.3164 -0.4479 -0.3532
   44MOL    H5716483   1.200   4.179   5.146 -0.6611  2.0639  0.5213
   44MOL    H5816484   1.082   4.250   5.254  0.9336  1.0426 -1.7303
   44MOL    C5916485   1.165   4.100   5.770  0.3346  1.3060 -0.2102
   44MOL    C6016486   1.126   4.086   5.918  0.7513 -0.0709 -0.3320
   44MOL    O6116487   1.153   4.209   5.988  0.4143  0.2195  0.1048
   44MOL    C6216488   1.049   4.309   5.997 -0.4636 -0.2160  1.0212
   44MOL    C6316489   1.105   4.445   6.043 -0.3001 -0.0267  0.0884
   44MOL    C6416490   1.145   4.423   6.181  0.6963  0.2936 -0.2884
   44MOL    C6516491   1.221   4.489   5.951 -0.7774 -0.2969  0.3627
   44MOL    H6616492   1.262   4.150   5.760  1.7387 -1.2162  0.4476
   44MOL    H6716493   1.173   4.000   5.729 -0.2245  0.0185  2.7045
   44MOL    H6816494   1.021   4.058   5.927  0.9259 -0.3425  0.9944
   44MOL    H6916495   0.989   4.321   5.907  0.9873 -0.6428 -0.0118
   44MOL    H7016496   0.980   4.269   6.072 -1.0730  2.3040  1.8318
   44MOL    H7116497   1.023   4.516   6.036  0.4860  0.8603 -0.1355
   44MOL    H7216498   1.207   4.336   6.203 -2.4240 -2.5962 -2.4491
   44MOL    H7316499   1.056   4.418   6.244 -1.3137 -2.5706 -3.1865
   44MOL    H7416500   1.195   4.509   6.227 -1.5568  1.4206  0.1058
   44MOL    H7516501   1.190   4.518   5.851  1.7097  0.1190 -0.3238
   44MOL    H7616502   1.264   4.585   5.980  1.8342 -1.2790 -0.1096
   44MOL    H7716503   1.300   4.416   5.935 -2.1972 -1.7794 -0.0851
   44MOL    C7816504   1.215   3.988   5.987  0.6456  0.3793  0.1052
   44MOL    C7916505   1.185   3.969   6.137  0.6534 -0.0229 -0.1392
   44MOL    O8016506   1.061   3.911   6.146 -0.0595  0.1282 -0.4114
   44MOL    C8116507   0.971   3.967   6.240  0.2266  0.0234  0.0498
   44MOL    C8216508   0.837   3.900   6.260 -0.0856 -0.5917  0.1146
   44MOL    C8316509   0.745   3.890   6.132  0.4082  0.1811 -0.4901
   44MOL    C8416510   0.762   3.962   6.378 -0.0084 -0.2919  0.2992
   44MOL    H8516511   1.317   4.010   5.955  0.5577  0.9128  0.1907
   44MOL    H8616512   1.198   3.886   5.955  0.2245 -0.3157  2.4153
   44MOL    H8716513   1.194   4.061   6.196  0.7028 -1.0867  1.5330
   44MOL    H8816514   1.020   3.975   6.337 -1.2751  0.0688  0.8359
   44MOL    H8916515   0.966   4.071   6.208 -1.5455 -0.3181 -0.8524
   44MOL    H9016516   0.852   3.795   6.286 -1.8707 -0.9797 -0.3277
   44MOL    H9116517   0.653   3.834   6.152  0.8499 -0.5354 -0.4589
   44MOL    H9216518   0.799   3.831   6.058  1.7408  0.9327 -0.1304
   44MOL    H9316519   0.724   3.992   6.100 -0.6316 -0.3992 -1.7344
   44MOL    H9416520   0.748   4.069   6.358 -1.8134 -0.6842 -0.6907
   44MOL    H9516521   0.816   3.958   6.472 -2.1837 -2.6945  1.5084
   44MOL    H9616522   0.666   3.911   6.390  0.1872 -0.2394  2.1842
   44MOL    C9716523   1.293   3.870   6.193 -0.2231  0.2127  0.4117
   44MOL    C9816524   1.298   3.857   6.344 -0.4530 -0.4031 -0.0670
   44MOL    O9916525   1.423   3.811   6.381 -0.4194 -0.3488 -0.1879
   44MOL   C10016526   1.531   3.901   6.410 -0.0126 -0.5290  0.3035
   44MOL   C10116527   1.641   3.823   6.484  0.4435 -0.6730  0.3558
   44MOL   C10216528   1.770   3.901   6.488  0.2441  0.2112  0.3111
   44MOL   C10316529   1.588   3.783   6.628 -0.1179  0.2282  0.2543
   44MOL   H10416530   1.391   3.903   6.160  0.8949 -2.1814  1.2241
   44MOL   H10516531   1.283   3.767   6.160 -1.5065 -0.0723  1.6307
   44MOL   H10616532   1.276   3.955   6.387 -2.2978 -0.4555 -0.8424
   44MOL   H10716533   1.499   3.989   6.466  0.0154 -1.8799  2.4582
   44MOL   H10816534   1.582   3.945   6.324  1.7856 -0.3463  1.4487
   44MOL   H10916535   1.671   3.736   6.427 -2.4649 -2.0489  0.8246
   44MOL   H11016536   1.849   3.844   6.537  0.7788  0.7124  0.0449
   44MOL   H11116537   1.801   3.914   6.384 -0.1995 -1.1177  0.0148
   44MOL   H11216538   1.764   3.997   6.539  1.0674  0.1449  0.5324
   44MOL   H11316539   1.675   3.732   6.669  1.0563  0.8605 -1.3827
   44MOL   H11416540   1.567   3.874   6.684 -1.2886  0.8672 -1.1730
   44MOL   H11516541   1.504   3.713   6.635 -0.9685  1.0870 -1.1089
   44MOL   C11616542   1.196   3.760   6.410 -0.0245 -0.4610  0.3862
   44MOL   C11716543   1.173   3.788   6.562 -0.4945 -0.6182 -0.6684
   44MOL   O11816544   1.113   3.910   6.579 -0.0174 -0.3096  0.4274
   44MOL   C11916545   1.140   3.987   6.694  1.1087  0.8306  0.1820
   44MOL   C12016546   1.029   4.074   6.734  0.4589 -0.9284  0.3717
   44MOL   C12116547   1.063   4.173   6.852  0.0083 -0.2274 -0.5612
   44MOL   C12216548   0.985   4.159   6.606 -0.6275 -0.3181 -0.1344
   44MOL   H12316549   1.106   3.754   6.348  0.8271 -1.5203 -0.7869
   44MOL   H12416550   1.227   3.655   6.405 -0.2474 -0.5051 -0.1092
   44MOL   H12516551   1.267   3.799   6.615 -0.5963  0.4840 -0.7013
   44MOL   H12616552   1.233   4.038   6.666  1.1438  1.3489  1.2047
   44MOL   H12716553   1.175   3.925   6.777  1.4278 -0.2592 -0.7472
   44MOL   H12816554   0.941   4.014   6.760 -0.0913 -0.3161 -0.0365
   44MOL   H12916555   1.125   4.130   6.930  1.5549  0.4418 -1.4107
   44MOL   H13016556   0.975   4.219   6.899  0.0726 -0.0344 -0.6271
   44MOL   H13116557   1.121   4.263   6.831 -0.4886  0.7440  1.9732
   44MOL   H13216558   0.940   4.102   6.524 -2.1385  0.6085  0.0385
   44MOL   H13316559   0.902   4.225   6.631 -0.4010  0.2563 -0.8653
   44MOL   H13416560   1.077   4.199   6.562 -0.3624 -1.0000 -0.2070
   44MOL   C13516561   1.085   3.687   6.630  0.5450  0.0981 -0.4989
   44MOL   C13616562   1.126   3.536   6.616  0.0110  0.1309  1.2182
   44MOL   O13716563   1.268   3.531   6.632 -1.0649  0.1387  0.1829
   44MOL   C13816564   1.336   3.431   6.559  0.3310 -0.6858 -0.2622
   44MOL   C13916565   1.453   3.395   6.646 -0.1071 -0.1342 -0.0368
   44MOL   C14016566   1.408   3.330   6.781  0.1261  0.3916 -0.7319
   44MOL   C14116567   1.545   3.309   6.567 -0.0302  0.4474 -0.1888
   44MOL   H14216568   1.064   3.705   6.735  0.1381  0.3559 -0.6230
   44MOL   H14316569   0.988   3.697   6.582 -0.4660 -3.1274  0.6973
   44MOL   H14416570   1.107   3.505   6.513 -0.4965 -1.5174  1.8016
   44MOL   H14516571   1.357   3.469   6.458  1.6279  0.7524  0.5305
   44MOL   H14616572   1.275   3.342   6.543  2.0112 -2.0673  0.9682
   44MOL   H14716573   1.507   3.486   6.672 -0.1587 -0.3863  0.9388
   44MOL   H14816574   1.363   3.232   6.762 -0.2156  0.2049  0.9758
   44MOL   H14916575   1.339   3.391   6.839  0.6358 -0.8482  1.2279
   44MOL   H15016576   1.491   3.318   6.851  0.4428  2.6296 -0.6735
   44MOL   H15116577   1.645   3.342   6.594  0.4421  0.0260 -1.3920
   44MOL   H15216578   1.534   3.203   6.591 -1.4168  0.3749 -1.0955
   44MOL   H15316579   1.545   3.323   6.459  0.0325  0.9264 -0.1269
   44MOL   C15416580   1.061   3.434   6.714 -0.9866 -0.6183 -0.2342
   44MOL   C15516581   0.917   3.401   6.683 -0.6181 -0.2229  0.1377
   44MOL   O15616582   0.905   3.262   6.690  0.5720 -0.1597  0.1673
   44MOL   C15716583   0.882   3.193   6.569  0.1428  0.0672 -0.0250
   44MOL   C15816584   0.835   3.048   6.607 -0.3548 -0.3895 -0.4142
   44MOL   C15916585   0.940   2.969   6.698 -0.3554 -0.0217  1.1545
   44MOL   C16016586   0.689   3.048   6.647  0.1460 -0.2068  0.1642
   44MOL   H16116587   1.070   3.476   6.815  0.4460 -1.1156 -0.1395
   44MOL   H16216588   1.121   3.343   6.718 -1.6491 -1.0942 -0.9528
   44MOL   H16316589   0.879   3.445   6.590 -1.6555  1.9550  1.5442
   44MOL   H16416590   0.976   3.199   6.514  0.1792  0.6089  0.0975
   44MOL   H16516591   0.812   3.243   6.502 -2.4123 -2.3174  0.7918
   44MOL   H16616592   0.837   2.986   6.518 -1.5258 -2.4035  0.9444
   44MOL   H16716593   0.907   2.868   6.724 -0.3094 -0.5920 -0.8822
   44MOL   H16816594   0.955   3.017   6.795 -2.5693  2.0560  0.5118
   44MOL   H16916595   1.043   2.973   6.662 -1.0082 -0.9826 -0.8930
   44MOL   H17016596   0.677   2.957   6.705  1.3333 -0.5790 -0.1562
   44MOL   H17116597   0.667   3.127   6.719 -1.7146  1.3447 -2.0165
   44MOL   H17216598   0.621   3.064   6.563  0.8666  2.0234 -0.0352
   44MOL   C17316599   0.816   3.464   6.786 -0.7233  0.2137 -0.3000
   44MOL   C17416600   0.723   3.578   6.732  0.2903  0.6141 -0.2229
   44MOL   O17516601   0.646   3.513   6.635 -0.3253  0.7996  0.2872
   44MOL   C17616602   0.599   3.586   6.525 -0.1200 -0.3724 -0.0818
   44MOL   C17716603   0.524   3.495   6.425  0.2084  0.0904  0.1939
   44MOL   C17816604   0.609   3.418   6.328 -0.3747 -0.6140  0.0501
   44MOL   C17916605   0.426   3.399   6.501  0.6319 -0.3470  0.1797
   44MOL   H18016606   0.749   3.380   6.801  1.1302 -1.2897 -0.2483
   44MOL   H18116607   0.867   3.492   6.879  1.4661 -1.7645 -0.8664
   44MOL   H18216608   0.796   3.650   6.694  2.0579 -1.1096 -0.1795
   44MOL   H18316609   0.667   3.657   6.477 -0.7943  2.2549  2.6909
   44MOL   H18416610   0.527   3.659   6.561 -0.3712 -0.6939  0.0678
   44MOL   H18516611   0.455   3.559   6.370  1.0810  2.2880  1.5676
   44MOL   H18616612   0.664   3.336   6.375  2.4188 -0.3245 -2.5359
   44MOL   H18716613   0.542   3.374   6.255  0.1553 -3.9490  1.4779
   44MOL   H18816614   0.689   3.468   6.273 -0.4047 -2.2728 -1.5619
   44MOL   H18916615   0.476   3.334   6.573  1.0337  0.6910  0.8473
   44MOL   H19016616   0.364   3.339   6.434  1.8964 -0.5940 -0.7723
   44MOL   H19116617   0.355   3.449   6.567 -0.3423 -0.0211 -1.0930
   44MOL   C19216618   0.633   3.650   6.844 -0.1386 -0.7199 -0.2031
   44MOL   C19316619   0.694   3.774   6.916 -0.4259 -0.5699 -0.1740
   44MOL   O19416620   0.728   3.883   6.829 -0.1277  0.1826 -0.1868
   44MOL   C19516621   0.618   3.943   6.764  0.1251  1.2663  0.8512
   44MOL   C19616622   0.647   4.078   6.691 -0.2432  0.2140  0.0502
   44MOL   C19716623   0.672   4.173   6.804 -0.2739 -0.3952 -0.3332
   44MOL   C19816624   0.523   4.115   6.604  0.0646 -0.5735 -0.1125
   44MOL   H19916625   0.607   3.583   6.925  2.8394 -2.8821 -0.9658
   44MOL   H20016626   0.540   3.688   6.801 -0.1614 -0.8377 -0.2582
   44MOL   H20116627   0.626   3.819   6.989  2.0491  1.7072  0.7776
   44MOL   H20216628   0.530   3.957   6.827  0.8955  1.6271  1.8598
   44MOL   H20316629   0.589   3.871   6.688  1.7756  2.1773 -0.6953
   44MOL   H20416630   0.745   4.070   6.645  1.2755  0.7838  3.0519
   44MOL   H20516631   0.585   4.188   6.868 -2.4346 -1.3612 -2.9255
   44MOL   H20616632   0.759   4.133   6.856 -0.7168 -3.0734 -1.5393
   44MOL   H20716633   0.702   4.269   6.761  0.1428  0.3162  1.5286
   44MOL   H20816634   0.538   4.204   6.542 -0.5076 -0.5417 -0.2124
   44MOL   H20916635   0.504   4.033   6.535  0.1128  0.1357 -0.9854
   44MOL   H21016636   0.429   4.129   6.658  1.0776 -1.7131  1.9926
   44MOL   C21116637   0.831   3.735   6.977  0.2341 -0.1349  0.4130
   44MOL   C21216638   0.885   3.842   7.072  0.1714  0.4115  0.4961
   44MOL   O21316639   0.821   3.811   7.197 -0.6168  0.4150  0.3491
   44MOL   C21416640   0.819   3.902   7.302  0.9882  0.7396  0.6097
   44MOL   C21516641   0.759   3.849   7.433 -0.3670 -0.6435 -0.4706
   44MOL   C21616642   0.839   3.735   7.500  0.7885  0.0659 -0.0494
   44MOL   C21716643   0.745   3.959   7.540  0.2719  1.1850  0.3211
   44MOL   H21816644   0.897   3.739   6.891  2.3396  1.7026  2.0437
   44MOL   H21916645   0.825   3.636   7.022  0.7835 -1.0926 -1.5873
   44MOL   H22016646   0.858   3.937   7.025 -1.8343 -0.5272 -0.3190
   44MOL   H22116647   0.762   3.991   7.274 -0.2686 -0.6378 -1.2649
   44MOL   H22216648   0.921   3.939   7.313  0.4395  2.2024  0.9659
   44MOL   H22316649   0.658   3.810   7.419 -0.4841 -0.8215  0.8037
   44MOL   H22416650   0.796   3.701   7.594  0.0002  0.6313 -0.2026
   44MOL   H22516651   0.843   3.644   7.440 -1.3008  1.2001 -1.9793
   44MOL   H22616652   0.938   3.774   7.524  1.0430 -0.0734 -0.8558
   44MOL   H22716653   0.839   3.996   7.579 -0.9136  3.5205  1.0672
   44MOL   H22816654   0.700   3.914   7.628  1.3870  0.5179  0.5455
   44MOL   H22916655   0.693   4.042   7.492 -0.2485 -0.0801 -1.3345
   44MOL   C23016656   1.035   3.819   7.080 -0.6009  0.8780 -0.0055
   44MOL   C23116657   1.091   3.667   7.096  0.1514 -0.4346 -0.0393
   44MOL   O23216658   1.231   3.673   7.097 -0.7212  0.5010  0.5680
   44MOL   C23316659   1.304   3.649   6.968 -0.4050 -0.0963 -0.7499
   44MOL   C23416660   1.450   3.630   7.005 -0.5929  0.0177  0.1099
   44MOL   C23516661   1.508   3.767   7.043 -1.1315 -0.2253  1.2161
   44MOL   C23616662   1.475   3.532   7.120  0.2887 -0.9291  0.1595
   44MOL   H23716663   1.084   3.885   7.151  2.9486 -1.1801 -0.3778
   44MOL   H23816664   1.075   3.856   6.986 -0.0363  0.5178  0.0855
   44MOL   H23916665   1.051   3.610   7.012 -3.1909  3.5320 -1.2757
   44MOL   H24016666   1.262   3.568   6.908  0.5545  0.7203 -2.5498
   44MOL   H24116667   1.273   3.734   6.907  0.7968 -0.3204 -1.6855
   44MOL   H24216668   1.512   3.605   6.919 -1.5205  2.8928 -1.4407
   44MOL   H24316669   1.617   3.762   7.047 -1.1355 -2.4182 -0.1619
   44MOL   H24416670   1.478   3.796   7.144 -0.6358 -3.3272  2.3405
   44MOL   H24516671   1.494   3.840   6.965  3.4264  2.1118  2.3803
   44MOL   H24616672   1.579   3.504   7.136 -0.6633 -1.9912  5.3374
   44MOL   H24716673   1.441   3.578   7.213 -0.5321 -1.1666 -0.0200
   44MOL   H24816674   1.420   3.439   7.105 -0.9543 -0.4003  1.3936
   44MOL   C24916675   1.056   3.603   7.235 -0.1056  0.5637  0.1362
   44MOL   C25016676   1.080   3.447   7.249 -0.3341 -0.5446 -0.5943
   44MOL   O25116677   0.994   3.419   7.360 -0.4853  0.7958 -0.5207
   44MOL   C25216678   1.069   3.388   7.479  0.3325  0.4134 -0.3229
   44MOL   C25316679   0.980   3.290   7.556  0.5175  0.5360  0.5261
   44MOL   C25416680   0.860   3.357   7.615 -0.5350 -0.0671 -0.7027
   44MOL   C25516681   1.058   3.219   7.665 -0.5686  0.1957 -0.0711
   44MOL   H25616682   0.948   3.619   7.233 -0.3554 -0.9023  1.1347
   44MOL   H25716683   1.103   3.654   7.319 -0.1190 -0.3154  0.6834
   44MOL   H25816684   1.185   3.442   7.277 -0.6121 -0.0139  0.6037
   44MOL   H25916685   1.154   3.322   7.465 -0.0686 -0.0219 -0.7302
   44MOL   H26016686   1.088   3.472   7.545 -1.3101 -0.7354  1.6940
   44MOL   H26116687   0.939   3.206   7.499  0.6415  0.9539 -0.1860
   44MOL   H26216688   0.887   3.440   7.680  1.0388 -1.2125  0.1214
   44MOL   H26316689   0.788   3.291   7.663  1.0612 -0.5486  1.0410
   44MOL   H26416690   0.800   3.389   7.529  0.2661 -1.5574 -1.8281
   44MOL   H26516691   1.142   3.155   7.636  0.3541  0.0586  2.7006
   44MOL   H26616692   1.095   3.294   7.736  1.1813  1.0428 -1.8297
   44MOL   H26716693   0.987   3.155   7.717  0.5347  0.2492  1.5601
   44MOL   C26816694   1.040   3.359   7.127  0.1756 -0.0843 -0.6626
   44MOL   C26916695   1.078   3.212   7.156  0.4162  0.3519 -0.1215
   44MOL   O27016696   1.211   3.186   7.132 -0.0259  0.0571 -0.0962
   44MOL   C27116697   1.254   3.069   7.209 -0.2643  0.2775  0.6962
   44MOL   C27216698   1.381   3.023   7.147  0.5553 -0.1750  0.2728
   44MOL   C27316699   1.345   2.958   7.017  0.3837 -0.1433  0.7549
   44MOL   C27416700   1.507   3.109   7.138  0.7475 -0.6556 -0.4118
   44MOL   H27516701   1.092   3.388   7.036  0.6273  0.4065 -0.2554
   44MOL   H27616702   0.932   3.371   7.115 -0.0334  2.6369  2.9270
   44MOL   H27716703   1.056   3.195   7.262  0.0348  0.1041 -0.2403
   44MOL   H27816704   1.277   3.100   7.311  0.7531  0.2808  0.4679
   44MOL   H27916705   1.179   2.991   7.222 -1.6950  1.7552  1.5000
   44MOL   H28016706   1.429   2.936   7.192  0.3714 -0.5003 -0.1507
   44MOL   H28116707   1.440   2.927   6.974  0.9190  0.5311  1.4370
   44MOL   H28216708   1.301   3.029   6.947 -0.8536  0.2925  1.9653
   44MOL   H28316709   1.276   2.876   7.034  1.1191 -0.3016  3.1472
   44MOL   H28416710   1.490   3.204   7.087  0.1441  0.5206  1.8961
   44MOL   H28516711   1.596   3.055   7.106  0.8720 -0.4563 -0.4010
   44MOL   H28616712   1.533   3.137   7.240  1.6103  0.3691 -0.8998
   44MOL   C28716713   0.996   3.112   7.070 -0.1685 -0.4810 -0.7448
   44MOL   C28816714   0.860   3.087   7.144  0.0242  0.5140 -1.0897
   44MOL   O28916715   0.863   2.956   7.217  0.1002 -0.1698  0.3066
   44MOL   C29016716   0.891   2.965   7.356  0.2459  0.3605 -0.0900
   44MOL   C29116717   0.916   2.822   7.417  0.1193  0.0028  0.3678
   44MOL   C29216718   0.796   2.733   7.417 -0.5052  0.6840  0.3112
   44MOL   C29316719   0.980   2.824   7.555  0.0520 -1.1779 -0.1337
   44MOL   H29416720   1.045   3.018   7.044 -0.4128 -0.7152 -0.3545
   44MOL   H29516721   0.985   3.171   6.978 -0.6399 -0.4443 -0.6661
   44MOL   H29616722   0.832   3.171   7.207  2.7615  2.4591 -2.3254
   44MOL   H29716723   0.986   3.016   7.369  1.7277 -1.4205 -3.2057
   44MOL   H29816724   0.812   3.026   7.400 -1.0182 -1.4286  0.2107
   44MOL   H29916725   0.992   2.784   7.348 -0.4634 -1.6272  0.5967
   44MOL   H30016726   0.817   2.632   7.452 -0.7293  1.9470  4.3882
   44MOL   H30116727   0.752   2.729   7.317  0.3183  0.2190 -0.0343
   44MOL   H30216728   0.726   2.772   7.491 -0.8660  1.6667 -0.5232
   44MOL   H30316729   1.078   2.871   7.556 -0.9197  0.8609  1.3488
   44MOL   H30416730   0.923   2.883   7.626 -0.2419  0.0965 -1.4129
   44MOL   H30516731   0.983   2.720   7.590 -2.0626 -1.0907  0.4012
   44MOL   C30616732   0.755   3.079   7.028  0.2487  0.5750  0.1165
   44MOL   C30716733   0.608   3.079   7.076 -0.7820  0.5981  0.2405
   44MOL   O30816734   0.582   3.207   7.122  0.2443 -0.3603 -0.7608
   44MOL   C30916735   0.563   3.213   7.264 -0.3942  0.4737 -0.2822
   44MOL   C31016736   0.523   3.353   7.287  0.3726  0.3472 -0.0056
   44MOL   C31116737   0.636   3.454   7.256 -0.4003 -0.3973 -0.7184
   44MOL   C31216738   0.462   3.365   7.423  0.2059 -0.6575  0.3115
   44MOL   H31316739   0.783   2.989   6.975 -0.9704 -0.6275  1.4754
   44MOL   H31416740   0.762   3.158   6.953  0.6314  1.0782  0.6722
   44MOL   H31516741   0.584   3.015   7.161  1.0989  3.3169  2.9398
   44MOL   H31616742   0.651   3.193   7.324 -0.9320  1.0171  0.6932
   44MOL   H31716743   0.484   3.146   7.299 -0.0513 -0.0511 -0.5144
   44MOL   H31816744   0.442   3.375   7.217 -0.2335  0.5141  0.7416
   44MOL   H31916745   0.727   3.426   7.309 -1.4288 -2.3244  0.0738
   44MOL   H32016746   0.612   3.554   7.290  1.3792  0.5913 -2.2676
   44MOL   H32116747   0.651   3.448   7.148 -1.3578 -1.2412 -0.8133
   44MOL   H32216748   0.393   3.285   7.450  0.0912 -0.4433  0.6614
   44MOL   H32316749   0.426   3.466   7.442 -1.0131 -0.5987 -2.1650
   44MOL   H32416750   0.541   3.358   7.498 -0.1013 -0.1633  0.6862
   44MOL   C32516751   0.520   3.039   6.965  0.3448  1.0170 -0.2436
   44MOL   C32616752   0.376   2.996   6.985  0.5791 -0.1534 -0.8114
   44MOL   O32716753   0.326   2.951   6.858 -0.0710 -0.1045 -0.8897
   44MOL   C32816754   0.254   3.050   6.791 -0.6111  0.0575  0.4186
   44MOL   C32916755   0.168   2.988   6.679 -0.9976  0.5075  0.1994
   44MOL   C33016756   0.084   3.098   6.620 -0.1282 -0.1762  0.1752
   44MOL   C33116757   0.249   2.898   6.575 -0.7531 -0.0032 -0.3614
   44MOL   H33216758   0.563   2.947   6.926  1.7165  1.1962  0.8315
   44MOL   H33316759   0.524   3.110   6.882 -1.2253  0.8990 -0.4394
   44MOL   H33416760   0.331   3.082   7.033 -1.3863 -2.1030  0.9836
   44MOL   H33516761   0.186   3.097   6.863 -0.2157  0.8275  0.2960
   44MOL   H33616762   0.317   3.131   6.754 -0.0381  0.0426  1.3312
   44MOL   H33716763   0.099   2.923   6.734  0.4228 -0.8895  0.3530
   44MOL   H33816764   0.028   3.061   6.534  0.8748 -0.5460 -0.3248
   44MOL   H33916765   0.006   3.136   6.685  0.8077  1.5073  0.3295
   44MOL   H34016766   0.141   3.182   6.582  1.0513 -0.6640  0.8205
   44MOL   H34116767   0.286   2.805   6.617 -1.3066  0.0800  0.3197
   44MOL   H34216768   0.189   2.871   6.488 -0.3868 -1.4898 -0.1572
   44MOL   H34316769   0.329   2.963   6.540 -0.9202  1.6385  2.2304
   44MOL   C34416770   0.357   2.876   7.089 -0.6736  0.2636 -0.2119
   44MOL   C34516771   0.221   2.855   7.147 -0.1590  0.1367 -0.0601
   44MOL   O34616772   0.189   2.980   7.217  0.3757 -0.0230 -0.6269
   44MOL   C34716773   0.216   2.968   7.359  0.1064 -0.2969 -0.6070
   44MOL   C34816774   0.119   2.873   7.441 -0.4274  0.6556 -0.2460
   44MOL   C34916775   7.810   2.941   7.447  0.6042 -0.6988  0.3620
   44MOL   C35016776   0.173   2.845   7.584 -0.1666 -0.2436  0.4966
   44MOL   H35116777   0.419   2.886   7.177 -2.3630  0.0457  1.0252
   44MOL   H35216778   0.382   2.783   7.039 -0.9932 -0.2664  0.6079
   44MOL   H35316779   0.236   2.771   7.215 -0.5871  0.7267  0.7736
   44MOL   H35416780   0.214   3.074   7.384 -0.6871 -0.3695 -0.3354
   44MOL   H35516781   0.321   2.943   7.376  0.6170  2.7063  1.1105
   44MOL   H35616782   0.105   2.781   7.385 -0.4596  1.9251 -2.3950
   44MOL   H35716783   7.737   2.860   7.454 -0.9831  0.6387 -0.3977
   44MOL   H35816784   7.786   2.993   7.355 -1.7248 -0.2227  1.1975
   44MOL   H35916785   7.784   3.009   7.528  2.0337 -0.0000  0.2339
   44MOL   H36016786   0.152   2.924   7.656  1.4125  2.1891 -1.6329
   44MOL   H36116787   0.118   2.765   7.634 -0.9576 -0.0194 -0.0034
   44MOL   H36216788   0.279   2.819   7.588 -0.1889 -0.8695 -2.1112
   44MOL   C36316789   0.113   2.823   7.038  0.2756 -0.0179  0.7492
   44MOL   C36416790   0.136   2.706   6.947 -0.4255  0.0315  0.4009
   44MOL   O36516791   0.179   2.587   7.011  0.5662  0.0238 -0.1018
   44MOL   C36616792   0.230   2.495   6.917  0.2330 -1.1637 -0.9109
   44MOL   C36716793   0.245   2.364   6.984 -0.1167  0.3573  0.6867
   44MOL   C36816794   0.360   2.362   7.089 -0.2337  0.4860 -0.6715
   44MOL   C36916795   0.263   2.247   6.889 -0.0678  0.0552  0.1026
   44MOL   H37016796   0.028   2.795   7.101 -0.4937 -1.6673 -0.9477
   44MOL   H37116797   0.097   2.917   6.985  2.4389 -0.4919 -0.8045
   44MOL   H37216798   0.230   2.728   6.896 -1.1342  0.0437 -0.9399
   44MOL   H37316799   0.165   2.489   6.829  0.8447  2.0714 -1.6706
   44MOL   H37416800   0.329   2.527   6.885  1.1417 -2.3001  0.7246
   44MOL   H37516801   0.148   2.353   7.032 -0.3642 -1.2545 -0.1533
   44MOL   H37616802   0.358   2.259   7.125 -0.6563  0.3353 -1.1187
   44MOL   H37716803   0.337   2.436   7.166 -0.5087 -1.1737  0.8652
   44MOL   H37816804   0.459   2.394   7.055 -0.9764  2.9583 -0.6277
   44MOL   H37916805   0.241   2.157   6.946 -0.8427 -0.7439 -1.4525
   44MOL   H38016806   0.366   2.243   6.853  0.2060  2.6806  0.4712
   44MOL   H38116807   0.187   2.240   6.811 -1.7080 -0.1238  1.6905
   44MOL   H38216808   0.056   2.685   6.876 -1.2479  1.9267  0.7408
   45MOL     C116809   3.792   1.269   3.374  0.5813  0.2503 -0.1481
   45MOL     C216810   3.877   1.253   3.497  0.5587 -0.2309 -0.2307
   45MOL     O316811   3.845   1.136   3.568  0.3813  0.4175 -0.4658
   45MOL     C416812   3.709   1.109   3.598  0.1174 -0.3639 -0.5784
   45MOL     C516813   3.730   0.984   3.682  0.3398 -0.5969  0.0898
   45MOL     C616814   3.798   0.989   3.820  0.4959  0.0823 -0.1394
   45MOL     C716815   3.801   0.874   3.594 -0.2272 -0.2296  0.4472
   45MOL     H816816   3.784   1.173   3.323 -2.2175 -1.2802  2.9679
   45MOL     H916817   3.687   1.296   3.391  1.2607  1.8382  1.6169
   45MOL    H1016818   3.848   1.338   3.559  1.5407 -0.4935  0.6064
   45MOL    H1116819   3.654   1.084   3.507 -1.9547 -0.3544  0.6362
   45MOL    H1216820   3.665   1.188   3.659 -0.2803 -0.6350 -0.5140
   45MOL    H1316821   3.626   0.952   3.687  0.1738 -0.4955 -2.0657
   45MOL    H1416822   3.884   1.057   3.827  1.4457 -0.9902 -1.0646
   45MOL    H1516823   3.725   1.028   3.891  1.6726 -0.2892  1.3012
   45MOL    H1616824   3.836   0.894   3.858  0.5915  1.2893  2.8800
   45MOL    H1716825   3.800   0.773   3.635  1.3688 -0.1295  0.7631
   45MOL    H1816826   3.742   0.865   3.503 -2.3008  1.6424  1.5513
   45MOL    H1916827   3.900   0.905   3.562 -0.4967  0.0331 -0.1275
   45MOL    H2016828   3.832   1.338   3.300  2.2511 -0.1491  0.3596
   45MOL    C2116829   4.029   1.256   3.464  0.3592  0.0104  1.0006
   45MOL    C2216830   4.125   1.299   3.580  0.2437  0.0495 -0.5229
   45MOL    O2316831   4.242   1.218   3.574  0.5836 -0.0358  0.0815
   45MOL    C2416832   4.315   1.208   3.698 -0.4678  0.1544 -0.2311
   45MOL    C2516833   4.423   1.085   3.691  0.3700  0.4596 -0.1825
   45MOL    C2616834   4.354   0.950   3.657 -0.4106  0.3404  0.0458
   45MOL    C2716835   4.539   1.113   3.594  0.1275  0.5265  0.4019
   45MOL    H2816836   4.053   1.160   3.417  0.4703  0.0132  1.0502
   45MOL    H2916837   4.048   1.337   3.394 -3.1561 -0.4379 -0.5599
   45MOL    H3016838   4.072   1.269   3.671  0.1905 -1.9363 -1.2050
   45MOL    H3116839   4.236   1.193   3.772 -0.4879  1.0301 -0.0707
   45MOL    H3216840   4.375   1.293   3.730  0.9948 -0.1866 -1.9868
   45MOL    H3316841   4.456   1.075   3.794 -0.4984  1.6975  0.2267
   45MOL    H3416842   4.279   0.962   3.578  1.4554 -0.7940 -1.9776
   45MOL    H3516843   4.301   0.905   3.740  1.0060 -0.3335  0.6021
   45MOL    H3616844   4.438   0.883   3.640 -2.0109 -1.6873 -0.0431
   45MOL    H3716845   4.508   1.088   3.493 -0.0137 -1.7744  0.9847
   45MOL    H3816846   4.552   1.221   3.589  1.2787  0.4060  0.6858
   45MOL    H3916847   4.625   1.049   3.613  0.4678  0.6359 -0.7084
   45MOL    C4016848   4.169   1.452   3.571 -0.2835  0.4359 -0.0765
   45MOL    C4116849   4.053   1.545   3.606  0.6599  0.4424 -0.0626
   45MOL    O4216850   4.107   1.677   3.591  0.7742 -0.1138  0.0167
   45MOL    C4316851   4.008   1.777   3.582  1.1195  0.7040 -0.3696
   45MOL    C4416852   4.091   1.916   3.574  0.0625  0.6942  0.7579
   45MOL    C4516853   4.177   1.921   3.439  0.4397  0.5622 -0.0148
   45MOL    C4616854   4.009   2.041   3.589 -0.0222 -0.3451  0.1581
   45MOL    H4716855   4.212   1.477   3.475  0.4527  0.3597  0.2337
   45MOL    H4816856   4.246   1.486   3.640 -1.3263  0.5870  1.0316
   45MOL    H4916857   3.975   1.542   3.531  1.0429  0.7796 -0.4756
   45MOL    H5016858   3.947   1.792   3.671 -0.6542 -0.2716 -1.3879
   45MOL    H5116859   3.948   1.754   3.493  1.5858 -0.9473 -0.2681
   45MOL    H5216860   4.152   1.926   3.663  1.8900 -0.6916 -0.2953
   45MOL    H5316861   4.128   1.931   3.343 -1.1677  2.7635  0.9897
   45MOL    H5416862   4.245   2.006   3.443  1.2827 -0.0402 -1.1744
   45MOL    H5516863   4.234   1.829   3.430 -1.6877 -0.8378  0.3995
   45MOL    H5616864   3.944   2.056   3.675  1.3896  2.8441  0.7288
   45MOL    H5716865   3.949   2.043   3.499  1.9216  1.5230 -1.1448
   45MOL    H5816866   4.077   2.126   3.600  0.0059 -0.4298  0.6858
   45MOL    C5916867   3.986   1.516   3.745 -0.7702 -0.0444 -0.1638
   45MOL    C6016868   4.076   1.499   3.862 -0.9353 -0.3374  0.1522
   45MOL    O6116869   3.985   1.464   3.970  0.1118 -0.2541  0.1402
   45MOL    C6216870   3.975   1.323   3.982  0.2090  0.5176 -0.7796
   45MOL    C6316871   3.866   1.301   4.085  0.0650  0.8413  0.6604
   45MOL    C6416872   3.720   1.327   4.029  0.1210  0.5397 -1.0198
   45MOL    C6516873   3.873   1.167   4.168 -0.3557  0.4786  1.0164
   45MOL    H6616874   3.917   1.431   3.738 -1.6049  0.7608 -1.9089
   45MOL    H6716875   3.920   1.601   3.759 -1.6370 -0.7287 -0.0182
   45MOL    H6816876   4.148   1.418   3.844  0.8181  1.4906 -1.3197
   45MOL    H6916877   3.952   1.262   3.895 -1.2281 -0.5971  0.3601
   45MOL    H7016878   4.066   1.279   4.022 -1.1845 -0.9749  0.8244
   45MOL    H7116879   3.868   1.387   4.152 -1.2731  1.6683 -0.3387
   45MOL    H7216880   3.654   1.373   4.103 -1.6776  0.2471 -2.4108
   45MOL    H7316881   3.680   1.230   4.001  0.0886  0.1333  0.3937
   45MOL    H7416882   3.713   1.399   3.948  0.9229  1.1548 -0.5599
   45MOL    H7516883   3.788   1.159   4.236 -1.7511 -2.3422 -0.9209
   45MOL    H7616884   3.871   1.080   4.102  2.5755  0.7129  0.5595
   45MOL    H7716885   3.956   1.165   4.238 -0.2534 -1.1195  0.8677
   45MOL    C7816886   4.147   1.626   3.901 -0.4918 -0.1335 -0.4287
   45MOL    C7916887   4.217   1.632   4.039  0.2967 -0.3686  0.1254
   45MOL    O8016888   4.357   1.615   4.017  0.0726 -0.6201 -0.1395
   45MOL    C8116889   4.406   1.484   3.994  0.2491  0.5852  0.1351
   45MOL    C8216890   4.551   1.502   3.943  0.5829  0.0826  0.5293
   45MOL    C8316891   4.613   1.366   3.901 -0.2452 -0.4787  0.7342
   45MOL    C8416892   4.636   1.579   4.034 -0.2854  0.3567 -0.3032
   45MOL    H8516893   4.088   1.717   3.894 -0.1291  0.3508  2.1095
   45MOL    H8616894   4.228   1.637   3.830 -0.7283  2.0129 -0.4017
   45MOL    H8716895   4.171   1.555   4.101  1.1334 -0.7954  0.2285
   45MOL    H8816896   4.392   1.419   4.080 -1.0411 -2.1632 -2.0413
   45MOL    H8916897   4.346   1.433   3.918 -0.1600  0.9504  0.2149
   45MOL    H9016898   4.537   1.565   3.855 -0.8362 -1.1717 -0.1844
   45MOL    H9116899   4.560   1.308   3.826 -2.6382  0.2727  1.8222
   45MOL    H9216900   4.613   1.306   3.992  0.8007 -0.7629  0.5543
   45MOL    H9316901   4.709   1.374   3.849 -0.6265 -0.0738  0.1021
   45MOL    H9416902   4.627   1.687   4.022  0.6755  0.1155 -3.4610
   45MOL    H9516903   4.742   1.557   4.020 -0.5619 -0.1178 -1.7290
   45MOL    H9616904   4.621   1.573   4.142  2.2265  3.4070  0.3229
   45MOL    C9716905   4.213   1.776   4.105 -0.5122 -0.9612 -0.2034
   45MOL    C9816906   4.070   1.815   4.164 -0.2462 -0.5154  0.4341
   45MOL    O9916907   4.071   1.940   4.233  0.4477 -0.0118 -0.3537
   45MOL   C10016908   4.179   1.974   4.327  0.5092 -0.6964  0.0703
   45MOL   C10116909   4.162   2.108   4.404 -0.5438 -0.1170  0.7847
   45MOL   C10216910   4.128   2.212   4.296  0.1358 -0.1540  0.6890
   45MOL   C10316911   4.046   2.107   4.502  0.2874  0.1307  0.0178
   45MOL   H10416912   4.253   1.843   4.029 -1.2211  2.5440  2.4286
   45MOL   H10516913   4.284   1.765   4.187  0.6585  0.7282 -0.9713
   45MOL   H10616914   4.010   1.843   4.077  1.0489 -0.9830 -0.6314
   45MOL   H10716915   4.275   1.971   4.276  0.3186 -2.1171 -0.2166
   45MOL   H10816916   4.180   1.893   4.400 -0.5448 -0.0844  0.7750
   45MOL   H10916917   4.253   2.145   4.452  0.9486 -1.5526 -0.8959
   45MOL   H11016918   4.133   2.315   4.334 -0.9991  0.8047 -1.6734
   45MOL   H11116919   4.206   2.219   4.221 -1.7074  1.1318 -1.1787
   45MOL   H11216920   4.035   2.186   4.245  0.6315 -0.6713  0.0564
   45MOL   H11316921   4.005   2.007   4.510  1.0340 -0.0017  2.4450
   45MOL   H11416922   4.084   2.126   4.602  1.2075 -0.6683 -0.1639
   45MOL   H11516923   3.960   2.169   4.478  1.5870  2.1217  0.3110
   45MOL   C11616924   4.009   1.698   4.250 -0.5056 -0.5889  0.1301
   45MOL   C11716925   3.886   1.727   4.330  0.1202 -0.0709  0.1781
   45MOL   O11816926   3.784   1.747   4.233  0.0884  0.3187  0.8427
   45MOL   C11916927   3.672   1.820   4.280 -0.1647  0.1241  0.6144
   45MOL   C12016928   3.550   1.789   4.192  0.0114 -0.7325  0.6489
   45MOL   C12116929   3.531   1.631   4.188  0.3084 -0.0028 -0.2594
   45MOL   C12216930   3.423   1.851   4.250 -0.1753 -0.2479  0.5630
   45MOL   H12316931   3.993   1.616   4.179  3.0428 -2.2673  1.1479
   45MOL   H12416932   4.090   1.666   4.316 -1.2237 -0.1938  1.2153
   45MOL   H12516933   3.898   1.813   4.396  1.7234  0.3208 -0.5879
   45MOL   H12616934   3.695   1.926   4.290 -0.5572  0.2524  0.1624
   45MOL   H12716935   3.643   1.787   4.379 -1.6519  1.4755  0.6428
   45MOL   H12816936   3.564   1.818   4.088 -1.2329  0.1799  0.7327
   45MOL   H12916937   3.453   1.592   4.122 -1.1112  0.3480  1.1547
   45MOL   H13016938   3.504   1.597   4.288 -1.3903  0.3148 -0.5900
   45MOL   H13116939   3.623   1.576   4.170  0.5141 -0.3699  1.7972
   45MOL   H13216940   3.391   1.809   4.346  0.2513 -0.4248  0.6280
   45MOL   H13316941   3.438   1.959   4.250 -0.5641 -0.1597 -1.6449
   45MOL   H13416942   3.344   1.840   4.176  1.0853 -1.0970 -0.6756
   45MOL   C13516943   3.855   1.608   4.424 -0.1598 -0.0837 -0.2811
   45MOL   C13616944   3.948   1.575   4.546  0.5655  0.3406  0.0228
   45MOL   O13716945   4.077   1.523   4.505  0.3818 -0.2632 -0.2952
   45MOL   C13816946   4.091   1.376   4.520  0.4958 -0.5199 -0.6973
   45MOL   C13916947   4.219   1.319   4.448  0.0558  0.1353  0.0302
   45MOL   C14016948   4.222   1.166   4.475  0.1867  0.0863  0.1573
   45MOL   C14116949   4.228   1.359   4.302  0.1712 -0.6253  0.5588
   45MOL   H14216950   3.754   1.627   4.461 -0.0932 -0.2425 -0.0256
   45MOL   H14316951   3.843   1.518   4.364  0.7523  0.0396 -0.6569
   45MOL   H14416952   3.897   1.499   4.605 -1.9335  0.6803 -1.6496
   45MOL   H14516953   4.004   1.334   4.469  0.3574 -1.2024  0.0957
   45MOL   H14616954   4.075   1.348   4.624 -0.3566  2.0906 -0.0913
   45MOL   H14716955   4.299   1.362   4.509 -1.8962  1.4610  1.7116
   45MOL   H14816956   4.240   1.147   4.581 -3.3434 -3.3434  0.2514
   45MOL   H14916957   4.311   1.126   4.427 -0.9529 -0.1803 -1.7699
   45MOL   H15016958   4.128   1.121   4.442 -0.3906  1.6116 -0.3256
   45MOL   H15116959   4.279   1.455   4.294 -0.8681 -0.2768 -2.4020
   45MOL   H15216960   4.285   1.285   4.245 -2.4599 -0.6382 -2.1721
   45MOL   H15316961   4.134   1.358   4.247  0.6811 -1.5450 -0.3279
   45MOL   C15416962   3.981   1.691   4.638 -0.1263 -0.5912 -0.7176
   45MOL   C15516963   3.921   1.674   4.780 -0.2345 -0.6219  0.0071
   45MOL   O15616964   3.783   1.666   4.762  0.1606  0.2605  0.1874
   45MOL   C15716965   3.715   1.734   4.862 -0.0983  0.3455  0.3824
   45MOL   C15816966   3.558   1.710   4.858 -0.3777  0.1085 -0.7646
   45MOL   C15916967   3.497   1.731   4.721 -0.3907 -0.1541 -0.4619
   45MOL   C16016968   3.525   1.560   4.899 -0.2614 -1.0852  0.4390
   45MOL   H16116969   3.944   1.784   4.595 -0.8767  0.2102  1.5627
   45MOL   H16216970   4.088   1.699   4.658 -0.2435  2.0192 -0.8709
   45MOL   H16316971   3.946   1.771   4.821  1.9192 -1.5674  1.0319
   45MOL   H16416972   3.732   1.839   4.840  2.1179 -0.5892 -2.5500
   45MOL   H16516973   3.752   1.705   4.960 -0.6854 -0.8975  0.2501
   45MOL   H16616974   3.510   1.781   4.925 -0.1065  0.0184 -0.4757
   45MOL   H16716975   3.394   1.697   4.715 -0.5630  0.3873 -0.6117
   45MOL   H16816976   3.555   1.692   4.637  1.3474 -0.0663  0.6540
   45MOL   H16916977   3.503   1.837   4.699 -1.8712  0.1509  0.6059
   45MOL   H17016978   3.417   1.548   4.892 -0.5477  0.8704  1.1997
   45MOL   H17116979   3.577   1.496   4.828 -1.1177  0.1807 -1.3595
   45MOL   H17216980   3.561   1.530   4.997  0.4781 -2.3847 -0.2086
   45MOL   C17316981   3.979   1.561   4.867 -0.1639  0.1255 -0.3805
   45MOL   C17416982   4.132   1.573   4.903  0.4347  0.0892  0.2332
   45MOL   O17516983   4.164   1.654   5.014 -0.2136  0.0641  0.0268
   45MOL   C17616984   4.192   1.791   4.987 -0.3543  1.0374 -0.0584
   45MOL   C17716985   4.271   1.858   5.106 -0.2057 -0.2370  0.2405
   45MOL   C17816986   4.204   1.851   5.239 -0.5319 -0.3078 -0.2433
   45MOL   C17916987   4.418   1.820   5.116 -0.5617  0.3332  0.4762
   45MOL   H18016988   3.917   1.558   4.957  0.8860  0.0381  0.3515
   45MOL   H18116989   3.966   1.464   4.819  4.5338 -0.9369  0.2520
   45MOL   H18216990   4.182   1.599   4.810  0.1054  0.0532  0.0485
   45MOL   H18316991   4.098   1.846   4.981 -0.8696  0.2282  0.5415
   45MOL   H18416992   4.245   1.803   4.893 -0.5060  1.8184 -0.0507
   45MOL   H18516993   4.277   1.963   5.077 -0.5564  0.2497  1.8570
   45MOL   H18616994   4.263   1.894   5.320  1.0376 -2.4176 -0.2182
   45MOL   H18716995   4.122   1.922   5.248 -0.1575 -0.0881  1.5569
   45MOL   H18816996   4.198   1.748   5.273 -0.6707 -1.3381 -3.2582
   45MOL   H18916997   4.434   1.713   5.128 -0.5646  0.5052  2.2174
   45MOL   H19016998   4.467   1.875   5.197  1.3857  0.1523 -0.5723
   45MOL   H19116999   4.466   1.841   5.021  2.3063  0.9960  2.0120
   45MOL   C19217000   4.201   1.438   4.928  0.0948  0.1629 -0.1784
   45MOL   C19317001   4.351   1.437   4.909 -0.0560  0.1318  0.0716
   45MOL   O19417002   4.379   1.481   4.779  0.3040 -0.0455 -0.1508
   45MOL   C19517003   4.470   1.587   4.776 -0.0310 -1.0405  0.3024
   45MOL   C19617004   4.484   1.638   4.624  0.0382 -0.4214 -0.0722
   45MOL   C19717005   4.610   1.711   4.597 -0.5050 -0.1624  0.8635
   45MOL   C19817006   4.349   1.706   4.575 -0.5805  0.2220 -0.0503
   45MOL   H19917007   4.168   1.366   4.852  2.7437 -0.5707 -0.6757
   45MOL   H20017008   4.167   1.393   5.022 -1.3666  0.7747 -0.3922
   45MOL   H20117009   4.400   1.498   4.985  2.1052  0.8119 -1.8221
   45MOL   H20217010   4.565   1.549   4.814  0.6766  0.1165 -0.3157
   45MOL   H20317011   4.430   1.658   4.848 -2.8048  0.1972 -2.3960
   45MOL   H20417012   4.499   1.549   4.562  2.2013 -0.7974  0.9646
   45MOL   H20517013   4.608   1.753   4.496  0.0832  1.1432  1.3872
   45MOL   H20617014   4.616   1.796   4.665 -1.5787  1.1191 -0.6039
   45MOL   H20717015   4.697   1.646   4.605  0.2824  0.7935  0.3102
   45MOL   H20817016   4.311   1.784   4.641  0.6843  0.5687  0.2866
   45MOL   H20917017   4.367   1.747   4.476 -3.6240 -0.7351 -1.0532
   45MOL   H21017018   4.269   1.633   4.559 -1.0121  0.9469 -1.2693
   45MOL   C21117019   4.393   1.284   4.920 -0.5456 -0.0814 -0.0174
   45MOL   C21217020   4.546   1.264   4.932  0.5118 -0.3361 -0.4558
   45MOL   O21317021   4.587   1.310   5.065  0.1324  0.2226 -0.2205
   45MOL   C21417022   4.733   1.324   5.071 -0.1989  0.2284  1.0663
   45MOL   C21517023   4.753   1.422   5.193  0.2891  0.5686 -0.3165
   45MOL   C21617024   4.678   1.553   5.168  0.7419  0.3687  0.9284
   45MOL   C21717025   4.714   1.356   5.330  0.4653  0.9196  0.7560
   45MOL   H21817026   4.344   1.231   4.838  1.9329  0.1688 -1.6898
   45MOL   H21917027   4.348   1.240   5.009 -1.3431  1.2500  0.2405
   45MOL   H22017028   4.595   1.324   4.855  1.0027  1.8626  1.5396
   45MOL   H22117029   4.770   1.382   4.987  0.6686  2.4867  2.9442
   45MOL   H22217030   4.779   1.226   5.079 -1.2251 -0.6624 -2.9479
   45MOL   H22317031   4.860   1.442   5.202  0.3108 -0.0830  1.0235
   45MOL   H22417032   4.664   1.604   5.263 -1.4575  0.4683  0.5726
   45MOL   H22517033   4.730   1.619   5.099  1.0525 -2.2372 -1.3988
   45MOL   H22617034   4.575   1.534   5.137  0.9701 -1.8380  1.4497
   45MOL   H22717035   4.720   1.435   5.406 -0.0836  2.2747 -0.5769
   45MOL   H22817036   4.767   1.265   5.357  0.1011  0.3384 -0.4814
   45MOL   H22917037   4.608   1.336   5.316  0.6983  1.6250 -2.3889
   45MOL   C23017038   4.586   1.115   4.917 -0.1141 -0.0018  0.9708
   45MOL   C23117039   4.579   1.062   4.776 -0.0111 -0.2529 -0.5218
   45MOL   O23217040   4.665   1.135   4.700 -0.1615 -0.0492  0.0680
   45MOL   C23317041   4.597   1.203   4.591 -0.1742  0.3642  0.6253
   45MOL   C23417042   4.701   1.268   4.500  0.1107  0.3264 -0.3506
   45MOL   C23517043   4.800   1.154   4.454 -0.3450 -0.0929  0.2958
   45MOL   C23617044   4.633   1.318   4.368  0.4650  0.3064  0.1436
   45MOL   H23717045   4.529   1.057   4.990 -2.3032  0.2290 -0.5194
   45MOL   H23817046   4.693   1.102   4.936  0.1795  0.8112 -0.1200
   45MOL   H23917047   4.473   1.067   4.749 -0.3269  2.1771  1.0421
   45MOL   H24017048   4.539   1.129   4.536  0.3545 -0.6355  1.3894
   45MOL   H24117049   4.539   1.279   4.641  0.0560  1.2744 -0.4642
   45MOL   H24217050   4.749   1.353   4.548  0.1825  0.8485 -1.3160
   45MOL   H24317051   4.888   1.198   4.407 -0.2862 -0.1394  0.3621
   45MOL   H24417052   4.749   1.071   4.404  0.3363 -1.6293  2.0785
   45MOL   H24517053   4.831   1.107   4.548 -0.2468 -0.3888  0.1183
   45MOL   H24617054   4.572   1.401   4.403  0.8198 -0.5335  2.9446
   45MOL   H24717055   4.707   1.362   4.301  0.3293  1.1264  0.5305
   45MOL   H24817056   4.570   1.244   4.319  3.1454 -1.9425 -0.0408
   45MOL   C24917057   4.635   0.918   4.783  0.1771 -0.5026  0.4161
   45MOL   C25017058   4.646   0.850   4.645  0.0441  0.8182  0.0355
   45MOL   O25117059   4.725   0.731   4.642  0.5318 -0.0274  0.2980
   45MOL   C25217060   4.862   0.754   4.629  0.2925  0.1219 -0.4072
   45MOL   C25317061   4.928   0.610   4.641  0.0736 -0.2374  0.5517
   45MOL   C25417062   4.906   0.551   4.785 -0.5212 -0.2087  0.0289
   45MOL   C25517063   5.074   0.611   4.596  0.1060 -0.0067 -0.4202
   45MOL   H25617064   4.592   0.856   4.862 -2.4628  0.8681  0.0985
   45MOL   H25717065   4.737   0.935   4.817  0.4814  0.4821 -0.9561
   45MOL   H25817066   4.681   0.917   4.566  2.4738 -1.2139 -0.6783
   45MOL   H25917067   4.875   0.799   4.531  0.1170  2.3123  0.5468
   45MOL   H26017068   4.896   0.829   4.700 -1.7186  1.0834 -0.4297
   45MOL   H26117069   4.876   0.551   4.565  0.5363 -0.2598  0.2497
   45MOL   H26217070   4.802   0.560   4.816 -0.0291 -0.3621  1.7857
   45MOL   H26317071   4.969   0.612   4.850  3.0165 -1.0024 -2.5172
   45MOL   H26417072   4.935   0.447   4.797 -1.0893 -0.2646  0.9955
   45MOL   H26517073   5.120   0.513   4.611 -1.3447 -0.4153  1.5479
   45MOL   H26617074   5.084   0.638   4.491  0.7044 -0.9107 -0.6076
   45MOL   H26717075   5.134   0.675   4.661 -1.0557 -1.0277  1.7193
   45MOL   C26817076   4.509   0.792   4.606  0.3855 -0.2311  0.5298
   45MOL   C26917077   4.487   0.747   4.459 -0.0455  0.5415  0.1666
   45MOL   O27017078   4.503   0.859   4.374 -0.8431  0.3531 -0.2458
   45MOL   C27117079   4.569   0.829   4.251  0.6316 -0.3403 -1.2679
   45MOL   C27217080   4.574   0.954   4.170  0.8831 -0.6157  0.8237
   45MOL   C27317081   4.654   0.935   4.038 -0.0811 -0.2818 -0.3535
   45MOL   C27417082   4.427   0.985   4.123  0.9838 -0.1499  0.4560
   45MOL   H27517083   4.430   0.860   4.638  1.0715  0.3039  1.1236
   45MOL   H27617084   4.495   0.702   4.666  2.1267 -1.2433 -0.5348
   45MOL   H27717085   4.560   0.667   4.442 -2.7399 -1.6615 -1.5445
   45MOL   H27817086   4.667   0.796   4.286  0.4283 -2.4685 -2.5758
   45MOL   H27917087   4.516   0.745   4.206 -0.5003 -0.2029 -0.2221
   45MOL   H28017088   4.608   1.033   4.237 -1.2735  1.0339  0.0459
   45MOL   H28117089   4.689   1.029   3.995 -0.8123  0.9706  1.7455
   45MOL   H28217090   4.592   0.873   3.972 -2.0309 -1.5201  2.5552
   45MOL   H28317091   4.738   0.867   4.052  0.6568  0.8702  0.8589
   45MOL   H28417092   4.387   0.891   4.085 -1.4032  0.9811  0.1419
   45MOL   H28517093   4.422   1.048   4.034  1.2486 -0.7672 -0.0077
   45MOL   H28617094   4.372   1.025   4.207  0.9791  0.7464  0.0257
   45MOL   C28717095   4.343   0.697   4.430 -1.1398 -0.6822 -0.0568
   45MOL   C28817096   4.286   0.597   4.518 -0.2702  0.8359 -0.2967
   45MOL   O28917097   4.258   0.644   4.648 -0.2378  0.0761 -0.2220
   45MOL   C29017098   4.135   0.718   4.663  0.7018  0.3105 -0.0115
   45MOL   C29117099   4.124   0.762   4.810  1.0372  0.7688  0.2259
   45MOL   C29217100   4.230   0.866   4.844  0.1810  0.9593 -0.6253
   45MOL   C29317101   4.132   0.633   4.894 -0.4847 -0.1172  0.3155
   45MOL   H29417102   4.345   0.645   4.334  0.6449  0.7437 -0.8260
   45MOL   H29517103   4.277   0.783   4.418 -0.0246  0.3513  1.0766
   45MOL   H29617104   4.191   0.577   4.469  0.2851  1.0755 -1.4769
   45MOL   H29717105   4.135   0.811   4.606 -2.4016 -0.3162 -1.1227
   45MOL   H29817106   4.045   0.669   4.626  0.5931  0.5246 -0.0357
   45MOL   H29917107   4.026   0.808   4.817 -0.3065 -2.0672  0.4719
   45MOL   H30017108   4.230   0.955   4.782  0.7416  0.3889 -1.4568
   45MOL   H30117109   4.328   0.818   4.839 -1.4469 -2.4336 -1.9812
   45MOL   H30217110   4.207   0.889   4.948 -1.2232 -1.4420 -0.3718
   45MOL   H30317111   4.070   0.554   4.851 -0.6374  1.2301 -1.9868
   45MOL   H30417112   4.233   0.594   4.904 -1.0123 -1.5526  0.1712
   45MOL   H30517113   4.087   0.647   4.993 -1.5527  0.0646 -0.1848
   45MOL   C30617114   4.373   0.463   4.527 -0.4112  0.3341 -0.5851
   45MOL   C30717115   4.293   0.346   4.593  0.5914  0.4096  0.0747
   45MOL   O30817116   4.254   0.257   4.485  0.8669 -0.2826  0.0580
   45MOL   C30917117   4.115   0.267   4.454 -0.5564 -0.0651  0.1967
   45MOL   C31017118   4.106   0.259   4.303 -0.3671 -0.7674 -0.1440
   45MOL   C31117119   4.152   0.388   4.232  0.3921 -0.5300 -0.0646
   45MOL   C31217120   3.960   0.231   4.269  0.1211  0.6467 -0.1782
   45MOL   H31317121   4.463   0.484   4.585  1.0792  3.0121 -3.7234
   45MOL   H31417122   4.409   0.432   4.429  0.7607 -0.4234  0.0724
   45MOL   H31517123   4.208   0.391   4.643 -1.0138  1.3979 -3.3704
   45MOL   H31617124   4.080   0.366   4.482 -2.4423 -0.5651 -0.3336
   45MOL   H31717125   4.050   0.195   4.504  0.5904 -0.6878  0.8154
   45MOL   H31817126   4.156   0.170   4.265  1.6433 -0.2808  1.2490
   45MOL   H31917127   4.139   0.383   4.124 -0.3205  0.7852 -0.0543
   45MOL   H32017128   4.261   0.387   4.238  0.3584  0.9515  1.2214
   45MOL   H32117129   4.119   0.481   4.278 -1.0164 -0.8369 -0.4459
   45MOL   H32217130   3.892   0.303   4.314  0.5967  0.1752  1.3256
   45MOL   H32317131   3.922   0.135   4.302  0.7678  0.0935 -1.0369
   45MOL   H32417132   3.940   0.246   4.163  1.9913 -1.1645 -0.8054
   45MOL   C32517133   4.388   0.265   4.692 -0.1256  0.1803  0.5621
   45MOL   C32617134   4.403   0.334   4.830 -0.3962 -0.6950  0.5126
   45MOL   O32717135   4.364   0.236   4.924 -0.1088  0.1567  0.0020
   45MOL   C32817136   4.236   0.250   4.973 -0.0872  0.1242  0.1867
   45MOL   C32917137   4.180   0.117   5.033  0.5352  0.3968  0.0804
   45MOL   C33017138   4.053   0.146   5.124  0.1484  0.0905 -1.0778
   45MOL   C33117139   4.141   0.016   4.915 -0.4330 -0.2759 -0.3526
   45MOL   H33217140   4.485   0.243   4.648 -1.1596 -1.0184 -1.1825
   45MOL   H33317141   4.349   0.164   4.709  0.0639  0.1824  1.0093
   45MOL   H33417142   4.343   0.425   4.833  3.2493  1.8139  0.2048
   45MOL   H33517143   4.241   0.332   5.045  1.2110  0.1105  0.1113
   45MOL   H33617144   4.163   0.273   4.895  0.1187  0.0848 -0.0187
   45MOL   H33717145   4.258   0.071   5.094  0.8028 -0.4089 -0.8510
   45MOL   H33817146   4.057   0.242   5.175 -0.7624  0.1010 -1.0156
   45MOL   H33917147   3.965   0.155   5.059 -1.6014  0.9909  1.3463
   45MOL   H34017148   4.036   0.058   5.186  0.7157  0.8781  0.2080
   45MOL   H34117149   4.224   0.015   4.845 -1.1197 -1.0708 -1.1619
   45MOL   H34217150   4.138   7.740   4.957 -1.7485 -0.0919  0.0060
   45MOL   H34317151   4.043   0.043   4.876  0.3659  1.9883 -0.8575
   45MOL   C34417152   4.550   0.387   4.870 -0.1557 -0.3585  0.4738
   45MOL   C34517153   4.576   0.443   5.012  0.3325  0.4510 -0.4847
   45MOL   O34617154   4.717   0.441   5.029 -0.7690 -0.0097  0.2248
   45MOL   C34717155   4.747   0.318   5.097 -0.1808 -0.1649 -0.1436
   45MOL   C34817156   4.897   0.307   5.088 -0.1819 -0.6663  0.1216
   45MOL   C34917157   4.943   0.165   5.128  0.6214  1.1336  0.0642
   45MOL   C35017158   4.972   0.421   5.157 -0.1059  0.1086 -0.0879
   45MOL   H35117159   4.575   0.460   4.793  0.3718  1.2572  2.1597
   45MOL   H35217160   4.627   0.311   4.852  0.9160  1.0901 -1.2205
   45MOL   H35317161   4.518   0.392   5.089  1.2027 -0.4515 -0.4298
   45MOL   H35417162   4.701   0.228   5.058  0.5548 -0.1327 -1.1086
   45MOL   H35517163   4.704   0.316   5.197 -0.6249  2.0025 -0.2672
   45MOL   H35617164   4.912   0.308   4.980 -0.2303 -1.7952  0.1012
   45MOL   H35717165   4.927   0.165   5.236 -0.9929  1.5179 -0.1586
   45MOL   H35817166   5.051   0.152   5.133  0.2174 -2.8831  0.4428
   45MOL   H35917167   4.890   0.083   5.079  1.8386 -0.4019  1.2703
   45MOL   H36017168   4.930   0.517   5.126 -2.4815 -0.7772  0.2533
   45MOL   H36117169   4.953   0.412   5.264 -0.8966 -0.8645 -0.3018
   45MOL   H36217170   5.077   0.405   5.136 -0.3656 -0.4774 -0.9421
   45MOL   C36317171   4.549   0.597   5.015 -0.7290  0.0846  0.0972
   45MOL   C36417172   4.588   0.655   5.155 -0.5098 -0.0154 -0.2802
   45MOL   O36517173   4.533   0.787   5.173 -0.4988  0.6506  0.2335
   45MOL   C36617174   4.544   0.830   5.308  0.2870 -0.0130 -0.3334
   45MOL   C36717175   4.500   0.977   5.313  0.1777  0.1632 -0.3581
   45MOL   C36817176   4.551   1.050   5.436  0.0004 -0.6953 -0.5417
   45MOL   C36917177   4.354   0.992   5.297  0.1423  0.2770  0.9844
   45MOL   H37017178   4.623   0.651   4.956  0.1979  0.7660  1.8318
   45MOL   H37117179   4.447   0.621   4.985 -2.0849 -2.0686  2.7294
   45MOL   H37217180   4.694   0.646   5.179 -0.5717  1.1776  0.4444
   45MOL   H37317181   4.488   0.769   5.379  1.4929 -0.3097  0.3830
   45MOL   H37417182   4.646   0.822   5.345  0.5523  0.9267 -0.8607
   45MOL   H37517183   4.549   1.017   5.225 -0.4256 -1.1362 -1.2963
   45MOL   H37617184   4.659   1.032   5.438  0.4389  1.4361 -2.6891
   45MOL   H37717185   4.510   1.008   5.528  0.7262 -0.9152 -0.3121
   45MOL   H37817186   4.542   1.158   5.434 -1.2463 -0.7365  1.4803
   45MOL   H37917187   4.320   1.095   5.312  0.0480  0.6968 -1.9734
   45MOL   H38017188   4.279   0.940   5.358  0.0768 -0.8417 -0.0338
   45MOL   H38117189   4.320   0.973   5.196 -0.0835 -0.9406  1.2808
   45MOL   H38217190   4.535   0.601   5.233 -1.3539  2.2365  0.7467
   46MOL     C117191   4.991   1.870   2.662 -0.0604 -1.1136  0.2067
   46MOL     C217192   5.044   1.998   2.595  0.6649  0.4687 -0.4098
   46MOL     O317193   5.068   1.948   2.460 -0.6180  0.1312 -0.6801
   46MOL     C417194   5.199   1.992   2.404  1.4157  0.2062 -0.5876
   46MOL     C517195   5.210   1.985   2.245  0.1961  0.3794  0.5865
   46MOL     C617196   5.095   2.064   2.189  0.3436  0.0032  0.5192
   46MOL     C717197   5.214   1.836   2.195 -0.2806 -0.1235  0.3790
   46MOL     H817198   4.971   1.898   2.766 -1.0355 -1.2653  0.0644
   46MOL     H917199   4.900   1.830   2.617  0.9571 -1.8996 -1.1548
   46MOL    H1017200   5.129   2.040   2.648  0.1868 -0.2816  0.9756
   46MOL    H1117201   5.280   1.939   2.453  0.7552 -1.7017 -1.4970
   46MOL    H1217202   5.198   2.099   2.423  1.1006 -0.3811  3.0858
   46MOL    H1317203   5.299   2.035   2.207 -1.2296  2.8692  0.4725
   46MOL    H1417204   5.110   2.082   2.082 -3.7399  2.4443  0.2502
   46MOL    H1517205   4.993   2.035   2.215  0.4720 -1.5907 -0.6286
   46MOL    H1617206   5.107   2.162   2.235  1.4744  0.2933 -0.3609
   46MOL    H1717207   5.289   1.787   2.259 -0.0060  1.1643  1.0544
   46MOL    H1817208   5.118   1.786   2.208 -0.1793  0.1136  2.1576
   46MOL    H1917209   5.236   1.830   2.089 -1.3073 -1.1731  0.2090
   46MOL    H2017210   5.069   1.795   2.655 -0.1263 -0.9890 -2.1962
   46MOL    C2117211   4.924   2.102   2.581 -0.2564 -0.6030 -0.3605
   46MOL    C2217212   4.940   2.230   2.507  0.5418  0.3572  0.0522
   46MOL    O2317213   4.824   2.295   2.546 -0.2659  0.5577  0.9775
   46MOL    C2417214   4.729   2.299   2.437  0.0817  0.2800 -0.9887
   46MOL    C2517215   4.611   2.393   2.478 -0.5309  0.5451 -0.2151
   46MOL    C2617216   4.559   2.465   2.354 -0.1143  0.3945  0.1054
   46MOL    C2717217   4.510   2.310   2.553 -0.7681  0.3928  0.2118
   46MOL    H2817218   4.840   2.038   2.554  0.9791 -2.0867 -0.7980
   46MOL    H2917219   4.902   2.127   2.685  0.1647 -2.6973  0.2514
   46MOL    H3017220   4.948   2.205   2.401 -0.5753  0.2109 -0.0120
   46MOL    H3117221   4.705   2.200   2.397  1.2730 -1.5661  2.6432
   46MOL    H3217222   4.793   2.348   2.363  4.2899 -0.6706  1.8556
   46MOL    H3317223   4.661   2.465   2.544  2.0219 -1.2091 -0.1386
   46MOL    H3417224   4.619   2.551   2.323 -0.3415  1.2040  1.8297
   46MOL    H3517225   4.454   2.496   2.346  0.1358  1.2202 -0.0353
   46MOL    H3617226   4.558   2.404   2.264  0.1852  1.6181 -0.7359
   46MOL    H3717227   4.499   2.219   2.494 -1.3889  0.1853  0.6429
   46MOL    H3817228   4.530   2.297   2.659 -2.3942 -1.1854  0.3450
   46MOL    H3917229   4.413   2.358   2.542 -0.1844  1.4317 -0.4927
   46MOL    C4017230   5.053   2.320   2.553 -0.1068  0.0106 -0.1989
   46MOL    C4117231   5.080   2.436   2.462 -0.5559  0.0581 -0.6143
   46MOL    O4217232   5.222   2.450   2.458  0.0819  0.2632 -0.5047
   46MOL    C4317233   5.281   2.423   2.328  0.0095  0.2217  0.6850
   46MOL    C4417234   5.433   2.447   2.323 -0.4657  0.4028 -1.1428
   46MOL    C4517235   5.495   2.424   2.182 -0.4730  0.2433 -0.1475
   46MOL    C4617236   5.470   2.584   2.392 -0.3273 -0.9573  0.0362
   46MOL    H4717237   5.146   2.265   2.570 -2.1057 -3.9989 -1.5888
   46MOL    H4817238   5.042   2.353   2.657 -0.4340 -0.4947 -0.0651
   46MOL    H4917239   5.042   2.411   2.363 -0.3657  0.1277 -0.7069
   46MOL    H5017240   5.224   2.478   2.253  0.5697  1.3261  1.0587
   46MOL    H5117241   5.259   2.319   2.305  0.5154  0.5000 -1.1400
   46MOL    H5217242   5.475   2.377   2.395 -2.0859  1.0559  0.4866
   46MOL    H5317243   5.462   2.510   2.123 -2.1663 -0.1733  0.1665
   46MOL    H5417244   5.602   2.407   2.187 -0.6444 -0.6653  0.5051
   46MOL    H5517245   5.448   2.336   2.139  0.4021 -0.4381  0.2799
   46MOL    H5617246   5.431   2.600   2.492 -0.4384  0.5218 -0.2368
   46MOL    H5717247   5.421   2.654   2.324 -1.2282 -1.6773 -0.0705
   46MOL    H5817248   5.578   2.597   2.393 -0.5604  1.1573  0.3162
   46MOL    C5917249   5.014   2.567   2.505 -0.5395  0.4548  0.0245
   46MOL    C6017250   5.044   2.684   2.408  0.4861  0.3919 -0.1295
   46MOL    O6117251   5.043   2.814   2.473 -0.0815  0.0193 -0.2369
   46MOL    C6217252   5.183   2.851   2.505 -0.0377  0.4370 -0.2089
   46MOL    C6317253   5.185   2.996   2.557 -0.1313 -0.4866 -0.2748
   46MOL    C6417254   5.098   3.013   2.684  0.2766  0.9198 -0.2046
   46MOL    C6517255   5.325   3.047   2.577  0.0834 -0.2548  0.4556
   46MOL    H6617256   5.045   2.588   2.608 -1.3039 -0.4281  0.4399
   46MOL    H6717257   4.907   2.555   2.515 -0.5264 -0.7896 -1.1610
   46MOL    H6817258   5.143   2.678   2.364  0.5885  0.9554  0.0168
   46MOL    H6917259   5.220   2.778   2.577  0.2279  0.5824 -0.1996
   46MOL    H7017260   5.243   2.842   2.415  0.8922  0.2610  0.4291
   46MOL    H7117261   5.148   3.055   2.473  0.0217 -0.7929 -0.5593
   46MOL    H7217262   4.995   3.022   2.651  0.6350  1.7356 -1.1210
   46MOL    H7317263   5.125   3.102   2.742 -0.0154  1.6347 -1.1681
   46MOL    H7417264   5.112   2.924   2.746 -1.5784  1.9317  1.7429
   46MOL    H7517265   5.388   2.989   2.645 -1.4891 -1.3425  1.0198
   46MOL    H7617266   5.378   3.039   2.482  1.6256  1.7561  1.1048
   46MOL    H7717267   5.325   3.147   2.622 -1.1461 -0.5014  1.0284
   46MOL    C7817268   4.928   2.684   2.295  0.7589  0.3451 -0.0319
   46MOL    C7917269   4.948   2.782   2.175  0.6749  0.5168 -0.6242
   46MOL    O8017270   5.063   2.729   2.120 -0.4314  0.1868  0.3115
   46MOL    C8117271   5.152   2.828   2.075 -0.2180  0.2510 -0.1470
   46MOL    C8217272   5.290   2.760   2.063  0.4512  0.6824  0.3875
   46MOL    C8317273   5.401   2.869   2.094  0.5699 -0.3153  0.2484
   46MOL    C8417274   5.312   2.687   1.932 -0.0850 -0.2527 -0.3005
   46MOL    H8517275   4.828   2.698   2.337  0.9808  5.0571 -0.7572
   46MOL    H8617276   4.929   2.588   2.243  0.6134  0.3468 -0.0372
   46MOL    H8717277   4.958   2.883   2.217 -3.1631  1.1932 -1.1802
   46MOL    H8817278   5.116   2.856   1.976  1.3851  2.7885 -0.0429
   46MOL    H8917279   5.143   2.917   2.138  0.2947 -0.5582  1.0973
   46MOL    H9017280   5.298   2.691   2.146 -1.0197 -0.3232 -0.2923
   46MOL    H9117281   5.373   2.932   2.178 -1.6716 -1.1542  0.1622
   46MOL    H9217282   5.400   2.942   2.013  0.8128 -0.4410  0.1302
   46MOL    H9317283   5.496   2.822   2.120  0.0853 -1.9732 -0.9247
   46MOL    H9417284   5.218   2.645   1.898 -1.4547  1.7788  0.8370
   46MOL    H9517285   5.386   2.608   1.941 -1.0476 -1.0833  0.4735
   46MOL    H9617286   5.347   2.760   1.859  1.3243 -0.5155  0.0921
   46MOL    C9717287   4.842   2.776   2.067  0.6236  0.2065  0.3574
   46MOL    C9817288   4.832   2.886   1.968  0.6401  0.0532 -0.6644
   46MOL    O9917289   4.696   2.923   1.956  0.4609 -0.1677 -0.4478
   46MOL   C10017290   4.674   3.052   1.998 -0.6611  0.4553  0.5649
   46MOL   C10117291   4.526   3.087   1.984  0.1631  0.5410 -0.2071
   46MOL   C10217292   4.486   3.232   2.032  0.2562  0.7385  0.2462
   46MOL   C10317293   4.477   3.072   1.833  0.2561 -0.2932  0.2926
   46MOL   H10417294   4.748   2.778   2.121 -0.3948  0.5733 -1.3797
   46MOL   H10517295   4.857   2.680   2.017  1.9011 -0.7442  2.5077
   46MOL   H10617296   4.887   2.972   2.006  1.8423 -1.0626  0.1877
   46MOL   H10717297   4.728   3.121   1.932  0.9103 -0.9286  0.3729
   46MOL   H10817298   4.714   3.076   2.097 -1.2906  3.7538  0.0713
   46MOL   H10917299   4.467   3.021   2.046  2.0415 -1.4434 -0.4699
   46MOL   H11017300   4.546   3.307   1.981  2.1090 -0.4200  0.6631
   46MOL   H11117301   4.383   3.256   2.007  0.2572  2.1051  1.5160
   46MOL   H11217302   4.494   3.246   2.140 -0.5755 -2.6673  0.8143
   46MOL   H11317303   4.489   2.971   1.792  1.1268 -0.0080 -0.1661
   46MOL   H11417304   4.372   3.095   1.813  0.1947 -1.1716 -0.4492
   46MOL   H11517305   4.525   3.142   1.765 -1.5438 -0.3692 -1.1022
   46MOL   C11617306   4.883   2.856   1.826  0.7629  0.5483  0.0671
   46MOL   C11717307   4.939   2.979   1.752  0.9502  0.2586 -0.1653
   46MOL   O11817308   5.024   3.049   1.841 -0.0917  0.5866 -0.2794
   46MOL   C11917309   5.022   3.192   1.838  0.0367 -0.4556 -0.4711
   46MOL   C12017310   5.127   3.258   1.937 -0.2955  0.4741  0.4010
   46MOL   C12117311   5.105   3.217   2.087  0.8219  0.3588  0.6266
   46MOL   C12217312   5.274   3.222   1.904 -0.0611 -0.9415  0.0992
   46MOL   H12317313   4.962   2.783   1.837 -0.3676 -0.9952 -1.6415
   46MOL   H12417314   4.804   2.797   1.778  1.6769 -0.9513  0.3683
   46MOL   H12517315   4.853   3.042   1.730  0.2613 -0.4618  0.4373
   46MOL   H12617316   4.923   3.235   1.858  0.7867  0.2493  1.9418
   46MOL   H12717317   5.057   3.222   1.739  0.3448 -0.1694 -0.2740
   46MOL   H12817318   5.112   3.366   1.928 -1.4040  0.3307  0.4424
   46MOL   H12917319   5.189   3.234   2.155  0.3320  3.2007  0.5955
   46MOL   H13017320   5.075   3.113   2.092  1.2024  0.2722  1.1463
   46MOL   H13117321   5.027   3.281   2.127 -0.1092  0.2461 -0.9853
   46MOL   H13217322   5.308   3.253   1.805  2.8119 -0.5937  1.1432
   46MOL   H13317323   5.333   3.280   1.975 -0.4324 -0.5798  0.1161
   46MOL   H13417324   5.289   3.114   1.909  0.5428 -0.8706 -0.1746
   46MOL   C13517325   5.017   2.947   1.628 -0.1680 -0.0531 -0.2279
   46MOL   C13617326   4.935   2.884   1.517 -0.3800 -0.4128 -0.2290
   46MOL   O13717327   4.875   2.995   1.446 -0.1549  0.1038 -0.3212
   46MOL   C13817328   4.747   2.962   1.392  0.0493 -0.2710 -0.1252
   46MOL   C13917329   4.710   3.082   1.301  0.4792  0.1063 -0.2272
   46MOL   C14017330   4.655   3.195   1.388 -0.7061 -0.4634  0.2310
   46MOL   C14117331   4.812   3.120   1.193  0.5280  0.1511 -0.3182
   46MOL   H14217332   5.052   3.045   1.597  0.7078  0.1895  1.4473
   46MOL   H14317333   5.102   2.882   1.649 -0.2960 -0.6704 -1.5579
   46MOL   H14417334   4.877   2.803   1.561  2.4482 -0.6495  3.3677
   46MOL   H14517335   4.674   2.940   1.470  0.4309  1.4147  0.7337
   46MOL   H14617336   4.752   2.873   1.329  0.8463  0.6577 -1.3901
   46MOL   H14717337   4.626   3.058   1.234  0.1529 -2.8881  1.1536
   46MOL   H14817338   4.566   3.165   1.443  0.3574 -1.0087  1.6956
   46MOL   H14917339   4.620   3.273   1.321  1.4522 -0.0813 -0.4948
   46MOL   H15017340   4.724   3.256   1.447 -0.2062 -0.7868 -0.0131
   46MOL   H15117341   4.783   3.206   1.133 -0.5465  1.1685  1.6307
   46MOL   H15217342   4.912   3.152   1.225  0.2930  1.7440 -1.1496
   46MOL   H15317343   4.830   3.041   1.119 -0.8898 -1.4130  0.9658
   46MOL   C15417344   5.020   2.808   1.412 -0.1532  0.1147  0.5477
   46MOL   C15517345   5.029   2.657   1.446  0.3184 -0.2183  0.1419
   46MOL   O15617346   5.080   2.578   1.341 -0.1824 -1.0859  0.8088
   46MOL   C15717347   5.004   2.579   1.218 -0.1766  0.2385  0.3314
   46MOL   C15817348   5.038   2.461   1.142  0.8121  0.5456  0.8834
   46MOL   C15917349   4.965   2.459   1.008 -0.7218 -0.6685  0.1247
   46MOL   C16017350   5.191   2.452   1.124  0.2814 -0.1035 -0.4156
   46MOL   H16117351   5.123   2.842   1.423  0.7995 -2.5806  0.1670
   46MOL   H16217352   4.993   2.834   1.310 -1.8999  0.2680  1.0252
   46MOL   H16317353   4.930   2.621   1.473  0.7253 -1.6859 -0.2744
   46MOL   H16417354   5.020   2.669   1.158  2.8447  0.2416  1.0634
   46MOL   H16517355   4.896   2.580   1.234 -0.2512 -1.3766  0.0394
   46MOL   H16617356   4.996   2.374   1.193 -1.4718  2.2151  1.9587
   46MOL   H16717357   5.007   2.531   0.939 -3.6933  1.6191  0.5874
   46MOL   H16817358   4.861   2.491   1.016 -0.8424 -0.1051 -3.1618
   46MOL   H16917359   4.968   2.360   0.963 -2.6390 -1.6836  2.1536
   46MOL   H17017360   5.239   2.428   1.219  1.9094  2.4277 -0.5642
   46MOL   H17117361   5.219   2.380   1.047  1.6552  2.4145 -2.3596
   46MOL   H17217362   5.225   2.548   1.086 -1.2956  1.2300  1.4220
   46MOL   C17317363   5.124   2.626   1.567  0.0139  0.5140 -0.0038
   46MOL   C17417364   5.150   2.485   1.602 -0.1678  0.6148  0.8473
   46MOL   O17517365   5.278   2.476   1.659  0.1550  0.3127 -0.5649
   46MOL   C17617366   5.370   2.389   1.598  0.4460 -0.9068  0.6158
   46MOL   C17717367   5.501   2.370   1.688 -0.2631 -0.1185 -0.6917
   46MOL   C17817368   5.585   2.500   1.692  0.1306  0.3319 -0.0912
   46MOL   C17917369   5.470   2.306   1.827  0.2349 -0.1600 -0.6612
   46MOL   H18017370   5.221   2.674   1.555  0.7371 -0.2707  2.4276
   46MOL   H18117371   5.088   2.672   1.659  1.8596 -0.0102  1.0052
   46MOL   H18217372   5.146   2.424   1.512  0.2327 -0.9495  1.8787
   46MOL   H18317373   5.389   2.447   1.507 -1.8783 -1.2939 -0.1290
   46MOL   H18417374   5.328   2.293   1.569 -2.7671 -0.4166  3.4209
   46MOL   H18517375   5.572   2.316   1.624  1.8274  0.2603  1.2576
   46MOL   H18617376   5.673   2.489   1.755  1.4099  2.8025 -1.3858
   46MOL   H18717377   5.612   2.534   1.593 -2.0398  0.4484 -0.6684
   46MOL   H18817378   5.536   2.591   1.728 -0.8555 -0.1904 -0.0831
   46MOL   H18917379   5.555   2.257   1.875  0.2118  1.3094  0.9259
   46MOL   H19017380   5.405   2.220   1.818  1.6850 -1.4587  0.9109
   46MOL   H19117381   5.427   2.383   1.891  1.3782 -0.9506  1.0854
   46MOL   C19217382   5.059   2.425   1.706  0.5882 -0.9032  0.5071
   46MOL   C19317383   4.915   2.392   1.670  0.1876 -0.0678 -0.0118
   46MOL   O19417384   4.863   2.334   1.785 -0.2480 -0.0491 -0.2046
   46MOL   C19517385   4.794   2.434   1.861  0.2674  0.4057 -0.1062
   46MOL   C19617386   4.689   2.370   1.953 -0.6545  0.6070  0.2939
   46MOL   C19717387   4.747   2.255   2.041  0.0968  0.2710 -0.6640
   46MOL   C19817388   4.567   2.321   1.879 -0.0830 -0.5934  0.2090
   46MOL   H19917389   5.048   2.492   1.792  0.5691 -0.4316  0.1422
   46MOL   H20017390   5.102   2.332   1.743  0.7420 -0.5108  1.3401
   46MOL   H20117391   4.866   2.485   1.644 -2.4807 -2.0170 -2.2577
   46MOL   H20217392   4.741   2.506   1.797  0.2954 -0.8972 -1.6196
   46MOL   H20317393   4.870   2.487   1.919 -0.2702  0.6815  0.3592
   46MOL   H20417394   4.672   2.445   2.031  2.5408  0.4552  1.2394
   46MOL   H20517395   4.849   2.281   2.070 -0.0669  0.0276  0.1376
   46MOL   H20617396   4.680   2.236   2.125 -1.6415 -1.8223 -2.4711
   46MOL   H20717397   4.755   2.169   1.975  0.7214 -0.9786  1.0119
   46MOL   H20817398   4.495   2.283   1.951  0.2386 -2.0161 -0.2031
   46MOL   H20917399   4.519   2.399   1.821 -0.2667 -1.0614 -0.2724
   46MOL   H21017400   4.602   2.238   1.816  1.2490  1.3408 -1.6722
   46MOL   C21117401   4.894   2.290   1.558 -0.5390 -0.3998  0.1712
   46MOL   C21217402   4.756   2.287   1.494  0.0961 -0.3160 -0.3672
   46MOL   O21317403   4.723   2.415   1.446  0.7166 -0.1708 -0.0131
   46MOL   C21417404   4.612   2.480   1.504 -0.1750 -0.2126 -0.7754
   46MOL   C21517405   4.609   2.607   1.426  0.1951 -0.4077 -0.0795
   46MOL   C21617406   4.600   2.586   1.272 -0.1147  0.1128  0.7014
   46MOL   C21717407   4.493   2.696   1.474  0.4047 -0.0269  0.3289
   46MOL   H21817408   4.924   2.189   1.585  0.1048 -0.2212  0.1247
   46MOL   H21917409   4.968   2.312   1.482 -0.3993 -1.1593  0.0839
   46MOL   H22017410   4.682   2.248   1.565 -0.2869  0.4325 -0.3445
   46MOL   H22117411   4.625   2.512   1.607 -3.3702 -0.1731 -0.3408
   46MOL   H22217412   4.518   2.426   1.499 -0.3336 -0.0088  0.0027
   46MOL   H22317413   4.697   2.668   1.447 -0.4302  1.2424 -2.0938
   46MOL   H22417414   4.675   2.513   1.241  0.5268  0.8468  0.5290
   46MOL   H22517415   4.498   2.556   1.248  0.2121 -1.4478  1.1747
   46MOL   H22617416   4.610   2.674   1.210  0.8033  0.6237  1.5492
   46MOL   H22717417   4.497   2.708   1.583  0.7421 -1.1087  0.4449
   46MOL   H22817418   4.393   2.655   1.458  0.4995  0.1253 -0.6548
   46MOL   H22917419   4.493   2.796   1.432  2.5133 -0.3349 -0.4439
   46MOL   C23017420   4.752   2.187   1.388 -0.0897  0.7834  0.7820
   46MOL   C23117421   4.604   2.131   1.357  0.2813 -0.0562 -0.4685
   46MOL   O23217422   4.591   2.114   1.214 -0.1319  0.0376  0.1611
   46MOL   C23317423   4.559   2.230   1.142 -0.1222 -0.0745 -0.4384
   46MOL   C23417424   4.603   2.205   0.995  0.4385  0.2401 -0.1668
   46MOL   C23517425   4.503   2.108   0.923  0.2181 -0.2146 -0.4715
   46MOL   C23617426   4.597   2.343   0.929  1.5031 -0.4937  0.1244
   46MOL   H23717427   4.816   2.100   1.400 -1.1084 -0.1493 -0.4033
   46MOL   H23817428   4.787   2.231   1.295  1.8596 -1.1462  0.5846
   46MOL   H23917429   4.531   2.207   1.386  0.7457  0.0118  0.5299
   46MOL   H24017430   4.457   2.265   1.157 -0.2061  0.2834 -1.8139
   46MOL   H24117431   4.627   2.305   1.184 -0.3879  0.0534 -0.2339
   46MOL   H24217432   4.701   2.161   0.978 -0.8683 -1.6346 -3.0459
   46MOL   H24317433   4.507   2.107   0.814 -1.2063  1.0194 -0.5424
   46MOL   H24417434   4.403   2.148   0.942 -0.0098 -0.5396 -0.9669
   46MOL   H24517435   4.504   2.011   0.974 -0.1171 -0.3813 -0.7833
   46MOL   H24617436   4.683   2.407   0.950 -0.1870  1.6145  0.8640
   46MOL   H24717437   4.587   2.325   0.822 -2.0037  1.3545  0.0647
   46MOL   H24817438   4.509   2.397   0.965  0.4308 -1.4994 -0.9535
   46MOL   C24917439   4.568   1.992   1.421  0.4760 -0.8700 -0.2947
   46MOL   C25017440   4.559   1.983   1.574 -1.1550 -0.1828 -0.7379
   46MOL   O25117441   4.693   1.986   1.620  0.3873 -0.5793  0.0165
   46MOL   C25217442   4.709   1.933   1.746 -0.2193 -1.4155 -0.1965
   46MOL   C25317443   4.861   1.946   1.762 -0.2206 -0.3116 -0.5479
   46MOL   C25417444   4.936   1.877   1.652 -0.2837 -0.5086 -0.4413
   46MOL   C25517445   4.915   1.930   1.903 -0.0527  0.6988 -0.3592
   46MOL   H25617446   4.640   1.918   1.388 -0.3067 -2.5788  1.7335
   46MOL   H25717447   4.472   1.958   1.383 -0.9170 -1.0405  3.1853
   46MOL   H25817448   4.520   1.884   1.597 -1.1532 -0.3856 -1.5992
   46MOL   H25917449   4.663   2.003   1.815 -1.6176 -0.1463 -2.3274
   46MOL   H26017450   4.679   1.831   1.768  0.6812 -1.1101  2.5596
   46MOL   H26117451   4.887   2.051   1.748  1.7927 -0.7161  0.0918
   46MOL   H26217452   4.885   1.878   1.556  1.4161 -0.6142 -1.3664
   46MOL   H26317453   4.943   1.770   1.670 -0.8253 -0.4924 -0.1043
   46MOL   H26417454   5.031   1.929   1.637  0.1805 -1.8047 -2.1035
   46MOL   H26517455   5.005   1.989   1.919  0.1106  0.5256 -0.6278
   46MOL   H26617456   4.848   1.964   1.981  0.2142 -1.8840  1.0677
   46MOL   H26717457   4.947   1.826   1.911 -0.6802  0.5120 -0.2438
   46MOL   C26817458   4.461   2.089   1.638  0.6677 -0.3017 -0.2689
   46MOL   C26917459   4.314   2.088   1.585  0.0077  0.0667  0.8347
   46MOL   O27017460   4.263   2.208   1.633  0.5717  0.4976  0.3835
   46MOL   C27117461   4.187   2.286   1.539  0.0562 -0.3318  0.4818
   46MOL   C27217462   4.144   2.415   1.616  0.0407 -0.1921 -0.2715
   46MOL   C27317463   4.038   2.380   1.715 -0.0258  0.2274 -0.0379
   46MOL   C27417464   4.263   2.477   1.687 -0.4089 -0.0194 -0.6605
   46MOL   H27517465   4.504   2.188   1.621 -0.3299  0.3295  0.8238
   46MOL   H27617466   4.434   2.092   1.743 -0.2720  0.5051 -0.5250
   46MOL   H27717467   4.327   2.087   1.477 -0.2941 -0.7917  0.7986
   46MOL   H27817468   4.243   2.313   1.449  1.3852 -0.0121  1.3877
   46MOL   H27917469   4.100   2.239   1.493  1.4861 -1.8553 -0.7220
   46MOL   H28017470   4.110   2.497   1.552 -1.1215 -0.5532 -0.1242
   46MOL   H28117471   4.031   2.462   1.787 -0.5437  0.4847 -0.3771
   46MOL   H28217472   4.068   2.300   1.783 -1.1766  0.2596  0.5279
   46MOL   H28317473   3.949   2.352   1.659  1.1310 -1.0787 -1.2594
   46MOL   H28417474   4.233   2.576   1.723  2.5051  0.0129  1.8875
   46MOL   H28517475   4.341   2.495   1.613 -1.3160  1.0348 -1.3898
   46MOL   H28617476   4.301   2.415   1.767 -0.5394 -1.8546 -1.9943
   46MOL   C28717477   4.234   1.964   1.645 -0.2619 -0.9430  0.0175
   46MOL   C28817478   4.122   1.914   1.554  0.3631  0.2873 -1.3832
   46MOL   O28917479   4.023   1.844   1.629  0.3672 -0.0588 -0.4852
   46MOL   C29017480   3.923   1.936   1.675 -0.4033  0.3463  0.0735
   46MOL   C29117481   3.862   1.870   1.804 -0.2324  0.1997  0.6306
   46MOL   C29217482   3.972   1.853   1.911  0.0404  0.5968  0.1298
   46MOL   C29317483   3.805   1.738   1.773 -0.7896  0.2920  0.3269
   46MOL   H29417484   4.199   1.996   1.743 -1.0918  0.2964 -0.6542
   46MOL   H29517485   4.301   1.883   1.669  0.8676 -0.6386 -1.9994
   46MOL   H29617486   4.082   2.001   1.503  0.3393  0.5049 -0.9981
   46MOL   H29717487   3.962   2.032   1.708 -0.1006 -0.2240  1.4221
   46MOL   H29817488   3.852   1.952   1.594  0.4806  1.9284 -0.4000
   46MOL   H29917489   3.788   1.934   1.850 -1.1510  0.4861 -1.1922
   46MOL   H30017490   4.066   1.803   1.888  0.0634 -0.9413  3.2631
   46MOL   H30117491   3.931   1.792   1.992  0.2124  0.5129  0.1534
   46MOL   H30217492   4.005   1.948   1.951  1.4320  0.0208  0.3797
   46MOL   H30317493   3.715   1.724   1.713 -0.5897 -1.0342  0.3143
   46MOL   H30417494   3.884   1.677   1.728 -1.1230 -0.0664  0.2223
   46MOL   H30517495   3.787   1.695   1.871  0.1058 -0.1417  0.3071
   46MOL   C30617496   4.179   1.825   1.440  0.2833  0.2433 -0.4488
   46MOL   C30717497   4.086   1.819   1.318  0.3538 -0.1816  0.8388
   46MOL   O30817498   4.083   1.955   1.269  0.1164 -0.2607 -0.5053
   46MOL   C30917499   3.959   1.991   1.205 -0.1691 -0.2536 -0.5000
   46MOL   C31017500   3.981   2.087   1.082 -0.2884  0.3970 -0.0389
   46MOL   C31117501   4.037   2.012   0.958 -0.3194 -0.3850  0.0054
   46MOL   C31217502   4.056   2.206   1.119 -0.1316 -0.2669 -0.1053
   46MOL   H31317503   4.208   1.730   1.485 -0.7117  0.0993 -0.1090
   46MOL   H31417504   4.277   1.864   1.410  0.7792 -1.2496 -0.7917
   46MOL   H31517505   3.987   1.782   1.345  0.4978 -0.5110  0.9179
   46MOL   H31617506   3.909   2.050   1.282  0.0340  0.8350 -1.1882
   46MOL   H31717507   3.899   1.905   1.176  0.5370 -0.1465 -2.3270
   46MOL   H31817508   3.885   2.130   1.053  1.2534  2.2254 -2.7087
   46MOL   H31917509   3.990   1.927   0.908 -0.8116  0.5223 -1.0949
   46MOL   H32017510   4.133   1.969   0.988  0.8952  1.8825 -0.5134
   46MOL   H32117511   4.059   2.072   0.870  0.9793 -2.2838 -1.0018
   46MOL   H32217512   4.057   2.280   1.039 -0.8650 -0.0309  0.1002
   46MOL   H32317513   4.163   2.199   1.140 -0.0138 -1.3535 -1.0629
   46MOL   H32417514   4.004   2.258   1.199 -0.0165 -0.6189  0.2004
   46MOL   C32517515   4.143   1.728   1.211 -0.3095  0.2274 -0.5882
   46MOL   C32617516   4.159   1.583   1.257 -0.1049  0.1116  0.1034
   46MOL   O32717517   4.035   1.519   1.276  0.1062  0.3352  0.2836
   46MOL   C32817518   3.976   1.515   1.407 -0.2422 -0.2170 -0.1893
   46MOL   C32917519   3.863   1.418   1.414 -0.4113 -0.0252  0.5402
   46MOL   C33017520   3.906   1.271   1.419  0.1595 -0.0354  0.2802
   46MOL   C33117521   3.778   1.448   1.542  0.3269  0.0089 -0.0419
   46MOL   H33217522   4.239   1.770   1.181 -0.8573  0.5543 -1.9367
   46MOL   H33317523   4.076   1.725   1.125  0.4034  0.5436 -1.1599
   46MOL   H33417524   4.228   1.576   1.341  0.7826 -0.0807 -0.6334
   46MOL   H33517525   4.054   1.496   1.482 -1.6866 -2.0646  0.8904
   46MOL   H33617526   3.932   1.609   1.442 -0.8784  0.4582 -2.7602
   46MOL   H33717527   3.800   1.442   1.328  1.5647 -1.5695 -1.4145
   46MOL   H33817528   3.966   1.255   1.329  1.9477  0.9868  1.2635
   46MOL   H33917529   3.967   1.246   1.505  1.3337 -2.5576 -1.2297
   46MOL   H34017530   3.825   1.198   1.419  1.4653 -1.5976 -3.3461
   46MOL   H34117531   3.706   1.367   1.556  2.1674 -1.4582  1.3164
   46MOL   H34217532   3.842   1.451   1.630  1.2443  0.6368 -0.7222
   46MOL   H34317533   3.717   1.538   1.534  1.9990  1.2522  0.9610
   46MOL   C34417534   4.211   1.493   1.141  0.4119 -0.2472 -1.0491
   46MOL   C34517535   4.357   1.513   1.103  0.0552 -0.0712  0.0845
   46MOL   O34617536   4.437   1.503   1.221 -0.3342 -0.1005 -0.9502
   46MOL   C34717537   4.567   1.561   1.198  0.3060  0.0708 -1.1002
   46MOL   C34817538   4.643   1.591   1.324  0.1194  0.0601 -0.5185
   46MOL   C34917539   4.553   1.651   1.436  0.2000 -0.0156  0.2205
   46MOL   C35017540   4.771   1.670   1.300 -0.7988 -0.4189 -0.5716
   46MOL   H35117541   4.143   1.497   1.056  0.3090 -0.1086 -0.9613
   46MOL   H35217542   4.210   1.390   1.177  1.1212  0.5370  1.3138
   46MOL   H35317543   4.361   1.611   1.057 -0.7085  0.7078  1.6385
   46MOL   H35417544   4.568   1.646   1.131 -1.0389  1.7912  0.9808
   46MOL   H35517545   4.624   1.493   1.136  0.0880 -1.2245  0.0890
   46MOL   H35617546   4.669   1.490   1.357 -2.0993 -0.4787 -0.3127
   46MOL   H35717547   4.617   1.683   1.518 -0.9151  1.5385  0.5175
   46MOL   H35817548   4.478   1.591   1.487  2.2137 -1.5033  1.5005
   46MOL   H35917549   4.498   1.743   1.412  0.4638  0.4845  1.5012
   46MOL   H36017550   4.739   1.750   1.233  1.0909 -0.5798 -1.6992
   46MOL   H36117551   4.814   1.710   1.391 -1.0984 -1.2655 -0.0519
   46MOL   H36217552   4.854   1.618   1.254 -0.2572  0.7802 -0.9677
   46MOL   C36317553   4.408   1.399   1.006 -0.3713 -0.4749  0.1427
   46MOL   C36417554   4.321   1.362   0.888 -0.1750 -0.3752 -0.0277
   46MOL   O36517555   4.302   1.475   0.809 -0.2015  0.2552  0.5495
   46MOL   C36617556   4.187   1.466   0.728  0.7588  0.1865 -0.1233
   46MOL   C36717557   4.161   1.606   0.682  0.2160  0.3216 -0.2014
   46MOL   C36817558   4.275   1.681   0.620  0.0589 -0.4801 -0.3118
   46MOL   C36917559   4.107   1.681   0.804  0.0282 -0.4728 -0.6699
   46MOL   H37017560   4.507   1.423   0.967 -0.8388  0.9359 -0.1812
   46MOL   H37117561   4.423   1.312   1.070  0.1622  0.1763  0.9213
   46MOL   H37217562   4.233   1.307   0.920  0.2562 -3.2754 -3.4976
   46MOL   H37317563   4.190   1.398   0.642  2.2554 -2.1338  1.6874
   46MOL   H37417564   4.114   1.418   0.793  0.9491 -1.0993 -0.8367
   46MOL   H37517565   4.081   1.595   0.609  0.2407  0.0074 -0.1817
   46MOL   H37617566   4.335   1.614   0.559  0.4843  0.1873 -0.6267
   46MOL   H37717567   4.350   1.723   0.687 -0.2396  2.4965 -1.7339
   46MOL   H37817568   4.227   1.766   0.572  1.0428  0.3762  0.1944
   46MOL   H37917569   4.016   1.637   0.844 -1.3674 -0.4438 -3.7055
   46MOL   H38017570   4.083   1.781   0.767  1.1206  0.4426  1.0432
   46MOL   H38117571   4.179   1.687   0.885 -0.4017 -0.5223 -0.2870
   46MOL   H38217572   4.381   1.290   0.832  1.6733  0.7506  0.4466
   47MOL     C117573   0.854   1.727   6.882 -0.0801 -0.1604 -0.0591
   47MOL     C217574   0.864   1.614   6.982 -0.3405 -0.1628  0.4658
   47MOL     O317575   0.910   1.669   7.100 -0.5180  0.1053  0.0895
   47MOL     C417576   1.052   1.677   7.106  1.2257 -0.2028 -0.3678
   47MOL     C517577   1.087   1.725   7.244 -0.8256  0.0770  0.4979
   47MOL     C617578   1.072   1.611   7.351 -0.1195 -0.5941 -0.5971
   47MOL     C717579   1.025   1.862   7.274  0.5720 -0.1423 -0.2141
   47MOL     H817580   0.781   1.803   6.910 -0.9924 -1.9776  2.6901
   47MOL     H917581   0.954   1.763   6.859  0.0908 -1.9827 -2.3498
   47MOL    H1017582   0.935   1.542   6.941  0.8851  2.0310 -1.3602
   47MOL    H1117583   1.100   1.741   7.031  1.8423 -3.3276 -2.7742
   47MOL    H1217584   1.091   1.577   7.083  0.6110 -0.5397  0.0549
   47MOL    H1317585   1.193   1.744   7.258 -1.4597  2.3618  2.5017
   47MOL    H1417586   1.154   1.543   7.326 -0.4125 -1.2891  0.2801
   47MOL    H1517587   1.102   1.641   7.451 -1.0185 -1.2806 -0.1136
   47MOL    H1617588   0.975   1.565   7.333 -0.2595  0.4852 -2.7385
   47MOL    H1717589   1.053   1.892   7.375  2.2537  0.0747 -0.7339
   47MOL    H1817590   1.062   1.937   7.204  0.5505 -0.1875 -0.2751
   47MOL    H1917591   0.916   1.851   7.265  0.6194 -0.4242 -0.4601
   47MOL    H2017592   0.834   1.671   6.791  1.0202  0.2590 -0.5592
   47MOL    C2117593   0.727   1.558   7.006 -0.1183  0.4646 -0.6318
   47MOL    C2217594   0.719   1.427   7.100  0.2761 -0.0532  0.6383
   47MOL    O2317595   0.580   1.400   7.124  0.3348  0.2036  0.3543
   47MOL    C2417596   0.518   1.474   7.235 -0.6703 -0.2323  0.2800
   47MOL    C2517597   0.365   1.445   7.241  0.0987 -0.0196 -0.0731
   47MOL    C2617598   0.302   1.520   7.356 -0.5348  0.3327  0.0637
   47MOL    C2717599   0.295   1.489   7.112  0.0434  0.4138 -0.0002
   47MOL    H2817600   0.665   1.639   7.045  1.8625  0.1154  3.5589
   47MOL    H2917601   0.686   1.523   6.912  1.7598  0.1821 -1.3694
   47MOL    H3017602   0.769   1.444   7.195  0.9673  2.2608 -0.1249
   47MOL    H3117603   0.534   1.579   7.210  0.5735  0.1097  2.3276
   47MOL    H3217604   0.571   1.456   7.328 -1.9851 -0.5257  0.9869
   47MOL    H3317605   0.345   1.338   7.248 -0.5545  0.0304 -1.0645
   47MOL    H3417606   0.199   1.510   7.388 -0.2282  1.2033  1.3896
   47MOL    H3517607   0.319   1.627   7.343 -0.9499  0.2850 -0.8720
   47MOL    H3617608   0.357   1.486   7.444 -1.9142  0.3748  0.9465
   47MOL    H3717609   0.343   1.428   7.036 -3.7179 -0.7042 -1.5837
   47MOL    H3817610   0.188   1.477   7.098  0.3505 -0.4780 -1.6470
   47MOL    H3917611   0.313   1.595   7.095  0.4919  0.2319 -0.6827
   47MOL    C4017612   0.792   1.305   7.045  0.1022  0.5935  0.1661
   47MOL    C4117613   0.830   1.202   7.156  0.3152  0.1779  0.3542
   47MOL    O4217614   0.953   1.133   7.123  0.0549  0.0619 -0.0886
   47MOL    C4317615   1.072   1.192   7.178 -0.0553 -0.4818  0.1533
   47MOL    C4417616   1.198   1.133   7.112  0.3523 -0.0679 -0.1871
   47MOL    C4517617   1.215   0.981   7.146 -0.7253  0.1880  0.4145
   47MOL    C4617618   1.190   1.165   6.964  0.0387  0.6616  0.6676
   47MOL    H4717619   0.891   1.327   7.004  1.0075 -0.8333  1.5065
   47MOL    H4817620   0.740   1.251   6.965 -1.2273  1.0238  0.7350
   47MOL    H4917621   0.845   1.255   7.250 -0.1378  1.1102 -0.0893
   47MOL    H5017622   1.073   1.162   7.283  0.1780 -1.7318 -0.1955
   47MOL    H5117623   1.073   1.300   7.169  0.2783 -0.4046  1.0906
   47MOL    H5217624   1.285   1.190   7.145  0.9465 -0.2705 -1.3776
   47MOL    H5317625   1.126   0.928   7.111 -0.1237 -0.3289 -0.3456
   47MOL    H5417626   1.304   0.941   7.097  0.3666  1.4621  1.3241
   47MOL    H5517627   1.218   0.964   7.254  0.6802  3.0565  0.8605
   47MOL    H5617628   1.129   1.090   6.913 -1.6100  0.1177  3.3635
   47MOL    H5717629   1.291   1.168   6.923 -0.1686 -1.4530 -0.0848
   47MOL    H5817630   1.152   1.263   6.936 -1.7780  0.4640  2.3366
   47MOL    C5917631   0.713   1.093   7.181 -0.4600  0.1117 -0.1009
   47MOL    C6017632   0.739   1.000   7.298  0.5634 -0.7139  0.3428
   47MOL    O6117633   0.661   0.883   7.277 -0.2129  0.2114 -0.3143
   47MOL    C6217634   0.706   0.767   7.345  0.1651 -0.4617  0.4959
   47MOL    C6317635   0.618   0.646   7.314 -0.3226 -0.3040  1.0069
   47MOL    C6417636   0.474   0.666   7.352  0.2553 -0.8519 -0.0956
   47MOL    C6517637   0.645   0.613   7.172  0.1288 -0.1615 -0.9423
   47MOL    H6617638   0.714   1.021   7.099 -0.0752 -1.3225  1.1483
   47MOL    H6717639   0.612   1.130   7.167 -0.1191  0.7424 -0.9865
   47MOL    H6817640   0.846   0.982   7.301  0.9233  1.4566  1.4125
   47MOL    H6917641   0.811   0.754   7.320  0.0844 -1.6270  0.7190
   47MOL    H7017642   0.678   0.788   7.448 -0.6547  1.5782 -0.1317
   47MOL    H7117643   0.661   0.564   7.371 -0.2475 -1.2151 -0.3273
   47MOL    H7217644   0.462   0.719   7.447  1.2623 -0.5376 -0.1395
   47MOL    H7317645   0.423   0.570   7.353 -1.3479 -0.0175  1.5722
   47MOL    H7417646   0.418   0.726   7.280  2.0241  1.2432  0.2021
   47MOL    H7517647   0.632   0.700   7.108  0.2652  0.7143  0.1931
   47MOL    H7617648   0.749   0.581   7.172  0.9785  2.4869 -0.7682
   47MOL    H7717649   0.584   0.533   7.131 -0.4850 -0.4126  0.4319
   47MOL    C7817650   0.694   1.069   7.439 -0.6954 -0.5846 -0.5177
   47MOL    C7917651   0.805   1.145   7.514  0.2710  0.5185  0.3254
   47MOL    O8017652   0.748   1.238   7.598  0.7392 -0.8496  0.2115
   47MOL    C8117653   0.747   1.370   7.540 -0.1571  0.7643 -0.0931
   47MOL    C8217654   0.699   1.485   7.633  0.3288  0.5225 -0.1232
   47MOL    C8317655   0.801   1.497   7.747  0.1318  0.0686 -0.4175
   47MOL    C8417656   0.556   1.467   7.684  0.0938 -0.3712  0.2715
   47MOL    H8517657   0.655   0.994   7.507  0.5953 -0.0297  0.8728
   47MOL    H8617658   0.620   1.145   7.413  0.0447 -0.0785 -1.1941
   47MOL    H8717659   0.864   1.190   7.435  0.3346 -1.3872 -0.7330
   47MOL    H8817660   0.844   1.394   7.495 -0.1019 -0.7241 -0.7891
   47MOL    H8917661   0.673   1.365   7.461 -0.4725 -0.1480  0.2534
   47MOL    H9017662   0.693   1.583   7.587 -1.3563  0.9575  0.9603
   47MOL    H9117663   0.789   1.416   7.819  2.5618 -0.1898 -0.2745
   47MOL    H9217664   0.807   1.595   7.795  1.2275 -0.4795  0.5850
   47MOL    H9317665   0.904   1.475   7.721  0.4183  1.4948 -0.5453
   47MOL    H9417666   0.527   1.542   7.758  1.3029  1.3236 -0.9504
   47MOL    H9517667   0.557   1.372   7.737 -4.1848 -1.7486 -1.8385
   47MOL    H9617668   0.484   1.465   7.602  1.7347 -1.9185 -1.1637
   47MOL    C9717669   0.892   1.044   7.601 -0.3753  0.0415 -0.5097
   47MOL    C9817670   1.041   1.089   7.631  0.1311  0.2553  0.0779
   47MOL    O9917671   1.081   0.981   7.717 -0.1879 -0.0461  0.2430
   47MOL   C10017672   1.171   0.888   7.643 -0.0956  0.3438  0.1924
   47MOL   C10117673   1.167   0.753   7.719  0.1207 -0.1003  0.0796
   47MOL   C10217674   1.031   0.676   7.696  0.0953  0.7941  0.0605
   47MOL   C10317675   1.288   0.664   7.688  0.3581 -0.6082 -0.5863
   47MOL   H10417676   0.894   0.945   7.556  0.1046 -0.0369 -0.3208
   47MOL   H10517677   0.847   1.026   7.698 -1.1990  1.2625 -0.6459
   47MOL   H10617678   1.106   1.092   7.544 -0.2016  1.0668 -0.1405
   47MOL   H10717679   1.270   0.932   7.651 -0.8298  2.1641 -0.3216
   47MOL   H10817680   1.134   0.878   7.541 -2.0359  1.4592  0.7447
   47MOL   H10917681   1.177   0.780   7.824 -0.0813  2.0551 -0.4334
   47MOL   H11017682   1.046   0.631   7.598 -1.3141  1.3324 -0.4173
   47MOL   H11117683   1.016   0.602   7.774  0.0805  0.2985 -0.4122
   47MOL   H11217684   0.947   0.746   7.699  0.1845  0.9145 -0.2981
   47MOL   H11317685   1.290   0.574   7.750 -1.5780 -1.5319 -1.8076
   47MOL   H11417686   1.285   0.633   7.584  0.4833  1.3018 -1.1712
   47MOL   H11517687   1.384   0.715   7.700 -1.3810  2.5064  0.8291
   47MOL   C11617688   1.053   1.231   7.713 -0.6023  0.2233 -0.4064
   47MOL   C11717689   1.196   1.276   7.732 -0.1729 -0.2783 -0.0063
   47MOL   O11817690   1.250   1.303   7.600 -0.7057  0.0730 -0.1692
   47MOL   C11917691   1.393   1.321   7.600 -0.4122  0.1782 -0.9872
   47MOL   C12017692   1.459   1.276   7.468 -0.3823  0.0083 -0.2450
   47MOL   C12117693   1.605   1.313   7.449 -0.3035 -0.0334 -0.6791
   47MOL   C12217694   1.440   1.125   7.427  0.6346  0.3244 -0.0142
   47MOL   H12317695   1.007   1.309   7.652 -2.7770 -0.0841  0.7820
   47MOL   H12417696   1.004   1.213   7.808 -0.7795 -0.2653 -0.5858
   47MOL   H12517697   1.246   1.192   7.782 -1.8089 -1.3273 -0.1050
   47MOL   H12617698   1.447   1.280   7.685 -0.3148  1.9188 -0.1892
   47MOL   H12717699   1.397   1.430   7.600  2.6249  0.1129 -0.0925
   47MOL   H12817700   1.399   1.327   7.392  0.5020  0.8351 -0.3963
   47MOL   H12917701   1.651   1.279   7.542 -1.7148  1.5910  0.6647
   47MOL   H13017702   1.620   1.421   7.455  0.5976 -0.1161 -1.4531
   47MOL   H13117703   1.647   1.263   7.362  1.8462 -0.5536  0.6243
   47MOL   H13217704   1.473   1.110   7.325  0.3876  3.3412 -0.5965
   47MOL   H13317705   1.499   1.062   7.494 -0.3514 -1.1726 -0.5349
   47MOL   H13417706   1.334   1.101   7.434  0.9276 -0.1573  4.8401
   47MOL   C13517707   1.201   1.394   0.006  0.1591 -0.0332  0.5785
   47MOL   C13617708   1.172   1.371   0.149 -1.0075  0.3382 -0.3887
   47MOL   O13717709   1.260   1.283   0.210 -0.5319  0.0054  0.3154
   47MOL   C13817710   1.199   1.167   0.262  0.3844 -0.3079 -0.3498
   47MOL   C13917711   1.300   1.103   0.363  0.0153 -0.0134  0.1441
   47MOL   C14017712   1.250   0.978   0.450 -0.4016 -0.3216 -0.0497
   47MOL   C14117713   1.419   1.051   0.267 -0.0381  0.3213 -0.3265
   47MOL   H14217714   1.304   1.430   0.006  0.6714 -1.4438 -0.6986
   47MOL   H14317715   1.137   1.476   7.797  1.2737 -0.1387 -1.9241
   47MOL   H14417716   1.068   1.339   0.153 -0.8081 -0.2267  0.7132
   47MOL   H14517717   1.171   1.103   0.178 -0.3668 -0.9942  0.4139
   47MOL   H14617718   1.110   1.187   0.322  2.3151  0.8067  2.2369
   47MOL   H14717719   1.326   1.184   0.430  2.1130 -0.5486  0.0097
   47MOL   H14817720   1.148   0.995   0.485 -0.5036 -1.7407  0.3669
   47MOL   H14917721   1.325   0.963   0.528  0.7572  1.1340 -0.8536
   47MOL   H15017722   1.238   0.883   0.399 -2.3106  0.2111 -0.5987
   47MOL   H15117723   1.381   0.975   0.198  0.0519  0.1443 -0.1829
   47MOL   H15217724   1.472   1.129   0.213  1.2008 -1.0228 -1.0899
   47MOL   H15317725   1.494   0.998   0.326 -1.2698  0.6524  1.5832
   47MOL   C15417726   1.180   1.503   0.228 -0.2855 -0.5737 -0.9147
   47MOL   C15517727   1.058   1.606   0.215 -0.1983 -0.2815  0.2599
   47MOL   O15617728   1.061   1.664   0.084  0.1954  0.5937  0.2609
   47MOL   C15717729   1.171   1.752   0.057  0.3363  0.8294  0.4175
   47MOL   C15817730   1.148   1.789   7.737 -0.1433  0.0343 -1.4173
   47MOL   C15917731   1.013   1.863   7.711  0.3611 -0.4214  0.2892
   47MOL   C16017732   1.278   1.852   7.684 -0.1148  0.0805 -0.0125
   47MOL   H16117733   1.278   1.547   0.211  0.4069 -1.2462  1.1373
   47MOL   H16217734   1.186   1.476   0.334  0.3877  1.1425 -0.4946
   47MOL   H16317735   1.085   1.684   0.285  1.7027  0.3700 -1.1631
   47MOL   H16417736   1.263   1.696   0.069  1.6701  2.2661 -2.7352
   47MOL   H16517737   1.179   1.832   0.132  1.3701  1.0304  0.0989
   47MOL   H16617738   1.150   1.695   7.681  2.9167 -1.8715  1.6774
   47MOL   H16717739   1.000   1.887   7.605 -0.6026 -1.6909  0.1098
   47MOL   H16817740   1.023   1.957   7.765  1.2144  0.5356 -1.4933
   47MOL   H16917741   0.922   1.817   7.749  0.0236  0.9932  1.2116
   47MOL   H17017742   1.312   1.942   7.736 -1.0972  0.6388 -0.3032
   47MOL   H17117743   1.363   1.785   7.677  1.0798  1.4094  1.3016
   47MOL   H17217744   1.251   1.882   7.583  2.1283  1.0396 -0.3659
   47MOL   C17317745   0.921   1.548   0.254  0.0800 -0.2930  0.4083
   47MOL   C17417746   0.803   1.647   0.272 -0.0297 -0.5016  0.2285
   47MOL   O17517747   0.687   1.570   0.272  0.2998  0.2376 -0.6902
   47MOL   C17617748   0.570   1.632   0.221 -0.4523 -0.2756  0.4297
   47MOL   C17717749   0.444   1.541   0.237  0.0805  0.2514  0.1861
   47MOL   C17817750   0.403   1.523   0.384  0.1061 -0.8086  0.1458
   47MOL   C17917751   0.324   1.592   0.159  0.3438  0.0838  0.3443
   47MOL   H18017752   0.891   1.478   0.176 -0.0539 -1.7328  1.6994
   47MOL   H18117753   0.923   1.484   0.343 -1.1286  1.0729  1.4446
   47MOL   H18217754   0.810   1.713   0.185 -0.4871  1.2933  1.5361
   47MOL   H18317755   0.578   1.658   0.115 -2.5670  2.2766  0.8449
   47MOL   H18417756   0.548   1.732   0.258  1.5851  1.3322 -2.4716
   47MOL   H18517757   0.467   1.443   0.195 -0.3901 -1.3093  3.3397
   47MOL   H18617758   0.314   1.459   0.389 -0.8654  0.4315 -0.8259
   47MOL   H18717759   0.486   1.479   0.439  0.1875  0.4662  1.0530
   47MOL   H18817760   0.376   1.617   0.431  1.0811 -1.4284  2.0029
   47MOL   H18917761   0.237   1.527   0.149  0.2396  0.2616  0.0792
   47MOL   H19017762   0.362   1.595   0.057 -1.8750 -3.1856 -0.6578
   47MOL   H19117763   0.292   1.695   0.178  1.0256  0.6380 -1.4033
   47MOL   C19217764   0.793   1.724   0.404 -0.1939 -0.0204  0.1240
   47MOL   C19317765   0.738   1.875   0.399 -0.6004  0.5584 -0.0446
   47MOL   O19417766   0.842   1.967   0.416 -0.0676 -0.2016 -0.1618
   47MOL   C19517767   0.920   1.999   0.301 -0.1448 -0.3010  0.3559
   47MOL   C19617768   1.046   2.072   0.347  0.0920 -0.2241  0.1691
   47MOL   C19717769   1.113   2.128   0.218  0.5084  0.2390  0.0942
   47MOL   C19817770   1.145   1.969   0.423  0.3596 -0.1818  0.9452
   47MOL   H19917771   0.884   1.704   0.461 -1.5349 -2.3923  1.5540
   47MOL   H20017772   0.736   1.666   0.477 -2.4558  2.0039  0.0153
   47MOL   H20117773   0.700   1.888   0.297  0.3263  1.1933 -0.3122
   47MOL   H20217774   0.873   2.056   0.221 -0.7362  1.2730  1.8223
   47MOL   H20317775   0.957   1.911   0.247  0.5627  1.2804 -1.8246
   47MOL   H20417776   1.018   2.151   0.417  2.7532  2.2370 -1.4681
   47MOL   H20517777   1.219   2.147   0.239  0.5024 -0.9074  1.1830
   47MOL   H20617778   1.110   2.056   0.136 -1.5537 -0.1666  0.4968
   47MOL   H20717779   1.069   2.220   0.179 -0.4774 -0.7550 -1.1519
   47MOL   H20817780   1.080   1.934   0.504 -0.8041 -1.4583 -0.4879
   47MOL   H20917781   1.176   1.885   0.361  0.9479 -1.0375  2.3654
   47MOL   H21017782   1.231   2.014   0.472 -0.3071  2.5109 -0.2948
   47MOL   C21117783   0.628   1.903   0.499 -0.6884 -0.2564  0.1554
   47MOL   C21217784   0.569   2.041   0.463 -0.3544  0.8283  0.3951
   47MOL   O21317785   0.428   2.014   0.483  0.1786 -0.2198 -0.5569
   47MOL   C21417786   0.354   1.988   0.361  0.0157  0.0751 -0.2352
   47MOL   C21517787   0.205   2.016   0.383 -0.2477 -0.8048  0.1268
   47MOL   C21617788   0.177   2.167   0.397  0.3018 -0.1780 -0.3036
   47MOL   C21717789   0.117   1.946   0.275 -0.1741 -0.2070 -0.3801
   47MOL   H21817790   0.651   1.892   0.605 -1.1249 -1.6358  0.1209
   47MOL   H21917791   0.556   1.823   0.483 -0.0971 -0.6551 -0.5193
   47MOL   H22017792   0.587   2.069   0.359  0.3555 -1.4271 -0.1173
   47MOL   H22117793   0.383   1.891   0.319  0.1793  1.0154 -2.3750
   47MOL   H22217794   0.388   2.049   0.277  1.0627  0.0548  0.1629
   47MOL   H22317795   0.179   1.967   0.476 -0.9859  0.3933  0.5582
   47MOL   H22417796   0.195   2.203   0.296  0.8843 -0.2406 -0.2213
   47MOL   H22517797   0.069   2.172   0.413  0.1786 -0.3736 -1.0707
   47MOL   H22617798   0.231   2.222   0.475  1.7247 -0.7289 -0.8805
   47MOL   H22717799   0.119   2.012   0.188 -5.0370  1.3104  0.5074
   47MOL   H22817800   0.023   1.923   0.325  1.1174 -1.1164  1.7043
   47MOL   H22917801   0.147   1.846   0.244 -0.4720 -0.5836  0.5370
   47MOL   C23017802   0.605   2.154   0.568 -0.0785 -0.0523 -0.3071
   47MOL   C23117803   0.559   2.290   0.512 -0.1714  0.9665  0.9026
   47MOL   O23217804   0.582   2.371   0.630 -0.1052 -0.3092  0.6280
   47MOL   C23317805   0.483   2.472   0.640 -0.2024 -0.3004  0.2034
   47MOL   C23417806   0.534   2.558   0.752  0.2909 -0.0100 -0.5022
   47MOL   C23517807   0.560   2.482   0.884  0.6826 -0.2230  0.4044
   47MOL   C23617808   0.660   2.633   0.712  0.1472 -0.1657  0.3920
   47MOL   H23717809   0.714   2.156   0.569 -0.0643 -1.0277  1.5542
   47MOL   H23817810   0.562   2.128   0.665 -1.0084 -1.9148 -1.1820
   47MOL   H23917811   0.453   2.279   0.488 -0.2459 -0.3766  1.8097
   47MOL   H24017812   0.452   2.539   0.559 -0.4369  3.7694  3.4858
   47MOL   H24117813   0.396   2.417   0.678 -0.4689  0.9636  1.4561
   47MOL   H24217814   0.465   2.639   0.776  0.6682  0.8139 -2.1200
   47MOL   H24317815   0.583   2.541   0.973 -0.6341 -0.0478  0.6278
   47MOL   H24417816   0.643   2.413   0.867 -1.7558 -2.6648 -2.0088
   47MOL   H24517817   0.475   2.416   0.902  0.3837  0.1927  0.5088
   47MOL   H24617818   0.650   2.712   0.637 -0.2636 -0.1401  0.4719
   47MOL   H24717819   0.705   2.680   0.800 -0.9004  2.0631 -0.2176
   47MOL   H24817820   0.732   2.563   0.671 -0.3356  0.1069 -0.9313
   47MOL   C24917821   0.655   2.347   0.394  0.1124  0.5274 -0.1475
   47MOL   C25017822   0.598   2.466   0.317 -0.2831 -0.0719 -0.0671
   47MOL   O25117823   0.701   2.490   0.218 -0.1025 -0.5990 -0.4490
   47MOL   C25217824   0.745   2.632   0.225  0.3080 -0.2077  0.5178
   47MOL   C25317825   0.829   2.663   0.108  0.7747 -0.1224 -0.8629
   47MOL   C25417826   0.747   2.648   7.807 -0.1469  0.7314 -0.2997
   47MOL   C25517827   0.959   2.577   0.096 -0.0779 -0.2884  0.3521
   47MOL   H25617828   0.681   2.276   0.315  0.5274 -0.9723  1.3156
   47MOL   H25717829   0.752   2.377   0.435 -0.3146 -0.0923  1.3647
   47MOL   H25817830   0.592   2.555   0.379  5.7022  1.0200 -0.7417
   47MOL   H25917831   0.652   2.688   0.214  0.1984  0.1386  3.0078
   47MOL   H26017832   0.788   2.670   0.317  1.4911  1.1317 -0.5503
   47MOL   H26117833   0.866   2.764   0.125  0.2424 -0.2996  1.5144
   47MOL   H26217834   0.726   2.543   7.784  2.7139 -0.6066  2.8373
   47MOL   H26317835   0.789   2.691   7.716 -0.9391  0.6220 -0.7216
   47MOL   H26417836   0.650   2.697   7.816 -0.0107  0.9681 -0.1275
   47MOL   H26517837   1.024   2.601   0.180  1.9737  1.9808 -1.7843
   47MOL   H26617838   0.935   2.471   0.089 -0.0472 -0.4969  2.9020
   47MOL   H26717839   1.006   2.593   7.823 -0.0088 -0.4328  0.3613
   47MOL   C26817840   0.458   2.425   0.263 -0.8716  0.2056  0.0219
   47MOL   C26917841   0.378   2.532   0.187  0.7769 -0.7469  0.4891
   47MOL   O27017842   0.335   2.626   0.284 -0.3717 -0.0962  0.0475
   47MOL   C27117843   0.281   2.746   0.237 -0.3743  0.5831  0.0230
   47MOL   C27217844   0.149   2.779   0.306  0.3767  0.9003 -0.0564
   47MOL   C27317845   0.166   2.815   0.456 -0.2608  0.4676  0.4571
   47MOL   C27417846   0.054   2.880   0.240 -0.2077 -0.1540  0.2293
   47MOL   H27517847   0.381   2.407   0.338 -1.1743  3.3251  0.5259
   47MOL   H27617848   0.466   2.337   0.199  0.5717  0.4829 -0.1926
   47MOL   H27717849   0.446   2.589   0.123 -1.6436  1.5713 -0.0999
   47MOL   H27817850   0.352   2.828   0.227 -0.9629  1.0237 -0.5171
   47MOL   H27917851   0.254   2.746   0.132 -0.4192  4.3499 -0.0205
   47MOL   H28017852   0.090   2.688   0.318  3.0501 -1.0547 -0.9727
   47MOL   H28117853   0.071   2.819   0.509 -1.8206  1.4500 -2.3108
   47MOL   H28217854   0.230   2.903   0.466  0.8722 -0.1930 -0.7133
   47MOL   H28317855   0.223   2.732   0.498  0.5106  0.6636 -0.1787
   47MOL   H28417856   0.018   2.836   0.147  1.1508  0.3768 -0.5705
   47MOL   H28517857   0.106   2.973   0.218  1.2483 -0.8182  0.7587
   47MOL   H28617858   7.802   2.906   0.313 -0.8145 -0.6515 -0.2235
   47MOL   C28717859   0.257   2.482   0.101 -0.1193  0.4048  0.0745
   47MOL   C28817860   0.296   2.365   0.001  0.3258 -0.3677 -0.4801
   47MOL   O28917861   0.338   2.420   7.702 -0.4237  0.0186  0.0051
   47MOL   C29017862   0.478   2.403   7.701 -0.2463 -0.1035  0.0758
   47MOL   C29117863   0.540   2.435   7.557 -0.5361 -0.1929 -0.1669
   47MOL   C29217864   0.500   2.576   7.517 -0.1504  0.0654 -0.3191
   47MOL   C29317865   0.504   2.346   7.437 -0.8338 -0.1834 -0.5423
   47MOL   H29417866   0.198   2.559   0.051 -0.3216  2.2821  3.0970
   47MOL   H29517867   0.180   2.447   0.169 -1.2363 -0.8892 -1.8206
   47MOL   H29617868   0.365   2.296   0.050 -0.8478 -0.6474  0.7954
   47MOL   H29717869   0.523   2.470   7.775 -1.8567  0.3333  0.6687
   47MOL   H29817870   0.490   2.297   7.725 -1.5765 -0.5513 -1.2091
   47MOL   H29917871   0.648   2.443   7.563 -0.6741  0.6688  1.3838
   47MOL   H30017872   0.558   2.601   7.429  0.2210 -0.6702 -0.2787
   47MOL   H30117873   0.529   2.638   7.602  1.2606 -0.6699 -0.2633
   47MOL   H30217874   0.393   2.589   7.499 -0.2613 -2.1405 -1.3562
   47MOL   H30317875   0.546   2.363   7.338 -1.8146 -0.0430 -0.9428
   47MOL   H30417876   0.532   2.241   7.446  0.9198  0.1564 -1.7323
   47MOL   H30517877   0.396   2.345   7.426 -0.9060  0.1352  0.1097
   47MOL   C30617878   0.169   2.277   7.785 -0.5115  0.0471  0.5882
   47MOL   C30717879   0.216   2.157   7.699  0.1153 -0.2546 -0.1148
   47MOL   O30817880   0.308   2.084   7.769 -0.4537  0.4656  0.3483
   47MOL   C30917881   0.414   2.020   7.693  0.6129 -0.0171  0.2623
   47MOL   C31017882   0.520   1.946   7.786  0.4433 -0.8327 -0.8702
   47MOL   C31117883   0.598   2.046   0.043 -0.0554 -0.2233  0.0042
   47MOL   C31217884   0.616   1.847   7.711  0.5190  0.4378 -0.0983
   47MOL   H31317885   0.091   2.334   7.735  0.3566  0.9617  0.2422
   47MOL   H31417886   0.113   2.243   0.047 -2.3066 -1.9579 -1.3181
   47MOL   H31517887   0.258   2.198   7.607  2.2534 -2.0851  0.0260
   47MOL   H31617888   0.466   2.089   7.627 -2.5605  0.3601 -1.9791
   47MOL   H31717889   0.361   1.944   7.635 -1.1932  0.1170  1.6891
   47MOL   H31817890   0.459   1.894   0.036 -1.5612  1.1908 -1.0377
   47MOL   H31917891   0.664   2.109   7.807  2.8726 -3.4820 -0.3172
   47MOL   H32017892   0.648   2.008   0.132 -1.3338 -0.7432  0.5045
   47MOL   H32117893   0.532   2.115   0.096 -0.1499 -1.0366  0.9484
   47MOL   H32217894   0.692   1.889   7.644  0.4692  0.6460 -0.0247
   47MOL   H32317895   0.561   1.776   7.648 -0.0485  1.6569 -1.0100
   47MOL   H32417896   0.669   1.777   7.774 -1.2338  0.2844  1.2491
   47MOL   C32517897   0.094   2.065   7.649 -0.3618 -0.4200 -0.6405
   47MOL   C32617898   0.068   2.059   7.493  0.6720  0.2234  0.2642
   47MOL   O32717899   0.070   2.187   7.439  0.0136  0.4123  0.1457
   47MOL   C32817900   7.779   2.262   7.469 -1.3471 -0.0146 -0.0727
   47MOL   C32917901   7.791   2.415   7.423 -0.2781  0.4286  0.1313
   47MOL   C33017902   0.080   2.491   7.493 -0.3524  0.1607  0.6493
   47MOL   C33117903   7.805   2.401   7.271 -0.4835 -0.5933 -0.8190
   47MOL   H33217904   0.009   2.102   7.706  1.7482 -0.3789  2.6338
   47MOL   H33317905   0.093   1.965   7.692 -3.3262 -0.6272 -1.1119
   47MOL   H33417906   7.800   2.003   7.481  0.0842  1.2904 -0.1385
   47MOL   H33517907   7.694   2.211   7.424 -0.2565 -1.2381 -0.8149
   47MOL   H33617908   7.745   2.262   7.573 -2.1964 -1.5302 -0.3269
   47MOL   H33717909   7.694   2.461   7.444  1.1356  2.1068  3.4895
   47MOL   H33817910   0.063   2.497   7.600  0.1266  0.0414  0.7308
   47MOL   H33917911   0.168   2.436   7.459 -0.6657 -1.5456  2.4833
   47MOL   H34017912   0.078   2.593   7.456 -0.6228 -0.1869 -0.3333
   47MOL   H34117913   0.003   2.500   7.231  3.0911 -0.3162  1.6840
   47MOL   H34217914   0.059   2.331   7.241 -0.4539 -0.6860 -0.5236
   47MOL   H34317915   7.715   2.369   7.217 -0.2098  0.5557 -1.9819
   47MOL   C34417916   0.178   1.975   7.423 -0.6154  0.0238  1.4365
   47MOL   C34517917   0.166   1.971   7.268  0.2114 -0.4134  0.2058
   47MOL   O34617918   0.283   1.907   7.212  0.4239 -0.3314  0.5148
   47MOL   C34717919   0.390   1.998   7.189 -0.0151 -0.0838  0.7460
   47MOL   C34817920   0.521   1.922   7.189 -0.6942  0.6928  0.0334
   47MOL   C34917921   0.538   1.853   7.324 -0.0233 -0.2550  0.5926
   47MOL   C35017922   0.643   2.010   7.147  0.0212  0.1030  0.1995
   47MOL   H35117923   0.176   1.876   7.470 -0.9379 -1.2919 -1.2792
   47MOL   H35217924   0.273   2.018   7.456  1.0211 -2.9365  0.7810
   47MOL   H35317925   0.167   2.072   7.226 -1.1742  0.2507  1.6999
   47MOL   H35417926   0.402   2.076   7.264  1.4609  1.4340 -1.0279
   47MOL   H35517927   0.377   2.032   7.087 -0.1851  1.8408  1.3745
   47MOL   H35617928   0.518   1.847   7.110  1.4407  1.7524 -1.1201
   47MOL   H35717929   0.614   1.776   7.320  0.1601 -0.0357 -0.2970
   47MOL   H35817930   0.443   1.812   7.359 -1.9619  0.4071 -3.5016
   47MOL   H35917931   0.579   1.934   7.385  0.3209  0.5439 -0.6796
   47MOL   H36017932   0.677   2.090   7.213  1.2568 -0.2473 -0.0038
   47MOL   H36117933   0.732   1.950   7.131 -0.1304 -1.0436  3.3393
   47MOL   H36217934   0.626   2.056   7.050 -0.4547  0.1898  0.3231
   47MOL   C36317935   0.043   1.888   7.218  0.0093  0.2783 -0.7798
   47MOL   C36417936   0.041   1.737   7.249 -0.0478 -0.6664 -0.0333
   47MOL   O36517937   7.738   1.686   7.202  0.2492 -0.0988 -0.0132
   47MOL   C36617938   7.738   1.547   7.182  0.1306  0.1053 -0.5022
   47MOL   C36717939   7.599   1.493   7.176  0.5008  0.5942  0.4452
   47MOL   C36817940   7.604   1.333   7.190  1.1621 -0.4392 -0.4101
   47MOL   C36917941   7.508   1.538   7.059 -0.3239 -0.0287  0.3937
   47MOL   H37017942   7.781   1.927   7.272  1.6038  2.4963  0.2659
   47MOL   H37117943   0.021   1.899   7.112  0.8837 -0.2233 -1.0134
   47MOL   H37217944   0.067   1.724   7.354  0.1838  1.1469  0.1513
   47MOL   H37317945   7.788   1.518   7.089  1.3697  1.8316 -0.3985
   47MOL   H37417946   7.795   1.496   7.260  0.2976  0.8291 -0.1409
   47MOL   H37517947   7.551   1.516   7.271  1.7261  2.0562  0.7305
   47MOL   H37617948   7.505   1.288   7.203  1.0236  0.3613  1.3550
   47MOL   H37717949   7.639   1.323   7.292 -0.7011 -1.8111  0.1273
   47MOL   H37817950   7.675   1.281   7.126 -0.1208 -0.1406 -2.1461
   47MOL   H37917951   7.409   1.493   7.061  0.5967 -2.2285 -0.6596
   47MOL   H38017952   7.548   1.533   6.957 -0.1683 -0.8148  0.4895
   47MOL   H38117953   7.478   1.642   7.069 -0.3304  0.1325 -1.1752
   47MOL   H38217954   0.122   1.681   7.202 -0.3358  0.2160 -1.6383
   48MOL     C117955   4.448   0.714   6.361 -0.9193  0.2959  0.4458
   48MOL     C217956   4.347   0.824   6.314 -0.0713  0.6006 -0.3663
   48MOL     O317957   4.408   0.929   6.240 -0.3241 -0.4675  0.1270
   48MOL     C417958   4.432   1.057   6.301 -0.0148  0.3909 -0.1224
   48MOL     C517959   4.309   1.152   6.304  0.0933 -0.7482 -0.1695
   48MOL     C617960   4.282   1.198   6.161  0.3558 -0.7800  0.4398
   48MOL     C717961   4.335   1.274   6.400  0.4817  0.1222 -0.5270
   48MOL     H817962   4.384   0.643   6.414 -1.7128 -0.1879 -1.1180
   48MOL     H917963   4.494   0.650   6.286 -1.5237 -0.8216  1.0197
   48MOL    H1017964   4.280   0.871   6.386  1.0318  2.8469 -0.7421
   48MOL    H1117965   4.508   1.092   6.232  0.9175  0.3772  0.8895
   48MOL    H1217966   4.482   1.039   6.396  0.0885  0.1167 -0.2272
   48MOL    H1317967   4.222   1.094   6.334  0.0886 -0.9793 -0.6331
   48MOL    H1417968   4.358   1.268   6.128 -1.4027 -0.4047 -3.0411
   48MOL    H1517969   4.293   1.110   6.096  0.2410  0.4656 -1.2958
   48MOL    H1617970   4.190   1.253   6.140  0.9621 -0.3038 -1.0801
   48MOL    H1717971   4.349   1.231   6.499 -1.4159  0.9714  0.1388
   48MOL    H1817972   4.427   1.317   6.362  0.8206  0.9520  1.1910
   48MOL    H1917973   4.256   1.350   6.396 -0.6808 -0.9242  1.7433
   48MOL    H2017974   4.527   0.754   6.424 -0.7664  1.2267 -0.3242
   48MOL    C2117975   4.240   0.778   6.218 -1.1614 -0.5964  0.2149
   48MOL    C2217976   4.130   0.690   6.287  0.2901  0.8346 -0.4535
   48MOL    O2317977   4.034   0.764   6.360  0.1836  0.1553 -0.7110
   48MOL    C2417978   4.000   0.734   6.497 -0.1539  0.1455  0.2534
   48MOL    C2517979   3.902   0.847   6.533 -0.7415 -0.3996 -0.0878
   48MOL    C2617980   3.979   0.979   6.564 -0.2514  0.6560  0.6945
   48MOL    C2717981   3.788   0.872   6.430 -0.2929  0.2008 -0.6786
   48MOL    H2817982   4.198   0.862   6.162 -0.0365 -0.2138 -0.0664
   48MOL    H2917983   4.285   0.715   6.141 -1.3083 -0.0185 -0.3480
   48MOL    H3017984   4.172   0.611   6.350 -1.0647  1.1659  0.8917
   48MOL    H3117985   4.088   0.746   6.561  0.9749 -0.6506 -1.1275
   48MOL    H3217986   3.964   0.631   6.496  3.6811 -1.2740 -0.2423
   48MOL    H3317987   3.858   0.816   6.628 -2.8598  3.5477  0.3239
   48MOL    H3417988   4.021   0.965   6.663  1.0842  0.3502  0.1027
   48MOL    H3517989   3.932   1.077   6.558  0.0668  0.9523  2.8713
   48MOL    H3617990   4.058   0.991   6.489 -2.0280 -3.1583 -1.9490
   48MOL    H3717991   3.817   0.910   6.332  1.1498 -2.8035 -1.4749
   48MOL    H3817992   3.733   0.780   6.410 -0.2658 -0.0241  0.2958
   48MOL    H3917993   3.714   0.943   6.465  1.4538  2.1801 -0.9055
   48MOL    C4017994   4.042   0.628   6.171 -0.7251  0.1937 -0.4829
   48MOL    C4117995   4.106   0.515   6.095  0.0811 -0.1457 -0.3192
   48MOL    O4217996   4.026   0.459   5.993 -0.1299  0.0929 -0.0510
   48MOL    C4317997   4.010   0.543   5.872  0.7717 -0.1655  0.3973
   48MOL    C4417998   3.981   0.464   5.739 -0.3951  0.2281 -0.4530
   48MOL    C4517999   3.857   0.382   5.742 -0.1058  0.1390 -0.2938
   48MOL    C4618000   3.985   0.565   5.619  0.9310 -0.5753  0.0255
   48MOL    H4718001   4.024   0.703   6.094 -1.7939  1.8236  1.2959
   48MOL    H4818002   3.944   0.596   6.207 -1.5372  1.6848 -1.3092
   48MOL    H4918003   4.194   0.556   6.044  0.4901 -0.9684 -0.2831
   48MOL    H5018004   4.107   0.589   5.854  0.9476 -0.1444  1.3839
   48MOL    H5118005   3.939   0.625   5.882  0.9197 -0.0942  0.8727
   48MOL    H5218006   4.066   0.398   5.724 -0.4021  0.2398 -0.5425
   48MOL    H5318007   3.847   0.323   5.651 -1.7577  1.8138 -1.2328
   48MOL    H5418008   3.861   0.313   5.826  0.8596  0.2883 -0.2220
   48MOL    H5518009   3.766   0.443   5.750 -0.6082 -0.6425  0.0456
   48MOL    H5618010   4.078   0.620   5.602  0.6031  0.3026  1.0365
   48MOL    H5718011   3.894   0.625   5.608  0.5182 -1.0910  0.6131
   48MOL    H5818012   3.979   0.500   5.531 -0.7224 -0.7799  0.2645
   48MOL    C5918013   4.145   0.396   6.175  0.6774  0.8258  0.0870
   48MOL    C6018014   4.262   0.319   6.104  0.5498 -0.3361  0.8297
   48MOL    O6118015   4.264   0.181   6.154 -0.1135 -0.9462  0.0539
   48MOL    C6218016   4.175   0.084   6.107 -0.0484 -0.9140  0.4257
   48MOL    C6318017   4.244   7.770   6.080  0.0526 -0.1977 -0.9325
   48MOL    C6418018   4.304   7.711   6.205 -0.5911  0.3134  0.0353
   48MOL    C6518019   4.142   7.666   6.024  0.2125 -0.5138 -0.0385
   48MOL    H6618020   4.056   0.332   6.174  1.0268  0.3389 -2.3091
   48MOL    H6718021   4.158   0.411   6.282 -0.7365 -0.8288  0.5136
   48MOL    H6818022   4.242   0.326   5.997 -3.0381  0.7148  1.4890
   48MOL    H6918023   4.080   0.067   6.158 -0.4725 -0.0906 -0.0766
   48MOL    H7018024   4.133   0.121   6.014 -1.7312 -1.0781  1.1091
   48MOL    H7118025   4.322   7.783   6.005  1.3912  1.6763  0.7118
   48MOL    H7218026   4.221   7.696   6.274  0.3474 -4.1864  0.3464
   48MOL    H7318027   4.386   7.766   6.251  0.1047 -2.2559  2.0013
   48MOL    H7418028   4.343   7.611   6.189 -1.7883 -0.0794 -0.4762
   48MOL    H7518029   4.043   7.698   6.057  1.3432  1.0945  1.8542
   48MOL    H7618030   4.155   7.650   5.917  0.3709 -0.7553  0.0148
   48MOL    H7718031   4.147   7.565   6.067  2.3107 -0.1781  0.5451
   48MOL    C7818032   4.400   0.375   6.129 -0.1797 -0.2998 -0.0901
   48MOL    C7918033   4.480   0.416   6.008  0.3209  0.1302  0.1593
   48MOL    O8018034   4.434   0.544   5.982  0.3809  0.4785 -0.0299
   48MOL    C8118035   4.439   0.578   5.846  0.6927 -0.5166  0.7096
   48MOL    C8218036   4.436   0.730   5.828 -0.3433  0.2910  0.2343
   48MOL    C8318037   4.392   0.783   5.693 -0.1636 -0.3768  0.3242
   48MOL    C8418038   4.562   0.793   5.876 -0.0200 -0.3209  0.0007
   48MOL    H8518039   4.455   0.296   6.180  1.9793  0.9848 -0.3580
   48MOL    H8618040   4.391   0.462   6.194 -1.7292 -0.8867  0.5122
   48MOL    H8718041   4.464   0.335   5.936 -1.4409 -1.4504  2.2676
   48MOL    H8818042   4.525   0.541   5.791  0.2278 -0.1472 -0.2653
   48MOL    H8918043   4.354   0.536   5.792 -0.6095  0.4336  1.9727
   48MOL    H9018044   4.369   0.779   5.899  0.7554  1.3312  0.5852
   48MOL    H9118045   4.446   0.724   5.620 -1.7753 -2.0263  0.4298
   48MOL    H9218046   4.421   0.887   5.677  0.0250 -0.3310  0.9360
   48MOL    H9318047   4.287   0.767   5.668 -0.8911  1.3351  2.1451
   48MOL    H9418048   4.648   0.761   5.817  1.1982 -0.7031  1.9328
   48MOL    H9518049   4.580   0.757   5.977  0.3039  0.3298  0.1786
   48MOL    H9618050   4.564   0.902   5.866  0.3187 -0.3828 -0.6575
   48MOL    C9718051   4.636   0.402   6.031  0.1487 -0.0063 -0.0861
   48MOL    C9818052   4.704   0.287   5.957 -0.8934  0.1027 -0.2817
   48MOL    O9918053   4.842   0.280   5.999 -0.1845  0.4875  0.4954
   48MOL   C10018054   4.911   0.156   6.003  0.2114  0.1493  0.7342
   48MOL   C10118055   5.061   0.194   6.035  0.0725 -0.1699  0.5075
   48MOL   C10218056   5.140   0.065   6.049 -0.3760  0.0608 -0.0698
   48MOL   C10318057   5.123   0.303   5.941  0.4761 -0.2084  0.1551
   48MOL   H10418058   4.646   0.389   6.139  0.6642 -1.0496 -0.2569
   48MOL   H10518059   4.684   0.500   6.024 -2.0751  1.1269  0.1723
   48MOL   H10618060   4.654   0.199   5.997 -0.6392  0.6897  1.3789
   48MOL   H10718061   4.905   0.108   5.905  0.2549  0.9422  0.3337
   48MOL   H10818062   4.870   0.084   6.074 -0.5639  1.1422  1.3070
   48MOL   H10918063   5.070   0.234   6.136  2.4761  1.4341 -0.3041
   48MOL   H11018064   5.150   0.023   5.949  0.2607 -1.4033  0.5959
   48MOL   H11118065   5.240   0.067   6.094  0.4323 -1.1601 -1.7599
   48MOL   H11218066   5.090   7.815   6.111 -2.4321 -0.6508 -2.5210
   48MOL   H11318067   5.069   0.396   5.952 -0.2369 -0.7268  1.0817
   48MOL   H11418068   5.226   0.323   5.972  0.0193 -1.1928  2.3843
   48MOL   H11518069   5.126   0.267   5.838 -0.9075 -1.7637  0.6486
   48MOL   C11618070   4.698   0.286   5.803  0.5920 -0.0098 -0.6937
   48MOL   C11718071   4.625   0.167   5.737 -0.3186 -0.5288  0.0273
   48MOL   O11818072   4.587   0.187   5.596 -0.8310 -0.2473 -0.2652
   48MOL   C11918073   4.468   0.258   5.572 -0.5585  0.2472 -0.2850
   48MOL   C12018074   4.444   0.290   5.420 -0.8856 -0.0163  0.2959
   48MOL   C12118075   4.424   0.163   5.337  0.0920  0.3001  0.2183
   48MOL   C12218076   4.334   0.390   5.384 -0.2536 -0.2241  0.0810
   48MOL   H12318077   4.660   0.382   5.767  1.8734  0.5443 -0.6003
   48MOL   H12418078   4.802   0.290   5.772  1.1948  1.5967  1.3991
   48MOL   H12518079   4.536   0.142   5.795  1.3113 -1.9284  2.0160
   48MOL   H12618080   4.473   0.356   5.619 -1.0797  0.5073 -0.7689
   48MOL   H12718081   4.376   0.218   5.616 -0.9182  1.4029  0.0376
   48MOL   H12818082   4.536   0.333   5.381 -0.8863 -1.1781 -1.0176
   48MOL   H12918083   4.438   0.198   5.235 -3.4555  3.4557  0.7236
   48MOL   H13018084   4.331   0.106   5.332  0.7167 -0.7752  0.5941
   48MOL   H13118085   4.503   0.089   5.352 -1.0894 -1.2959 -1.1544
   48MOL   H13218086   4.240   0.365   5.432 -1.1690 -0.6096 -1.8619
   48MOL   H13318087   4.355   0.488   5.426 -1.5915 -0.4130  1.2081
   48MOL   H13418088   4.324   0.402   5.276 -0.3358 -1.5709 -0.0722
   48MOL   C13518089   4.705   0.037   5.740  0.0403  0.0774 -0.9248
   48MOL   C13618090   4.655   7.743   5.663 -0.2165 -0.5317 -0.2990
   48MOL   O13718091   4.765   7.654   5.642  0.1527  0.1504  0.1232
   48MOL   C13818092   4.837   7.596   5.748 -0.2472 -0.1920  1.2012
   48MOL   C13918093   4.977   7.562   5.704 -0.2191 -0.0867  0.1247
   48MOL   C14018094   5.070   7.681   5.686  0.1523  0.5105  0.5220
   48MOL   C14118095   5.046   7.469   5.803 -0.0767 -0.2282 -0.4097
   48MOL   H14218096   4.807   0.054   5.707  1.0801  0.3882  2.2724
   48MOL   H14318097   4.724   0.009   5.844  3.9301 -1.2511 -1.9248
   48MOL   H14418098   4.635   7.783   5.564 -0.4810 -2.3374 -0.9761
   48MOL   H14518099   4.781   7.505   5.770  0.0227 -0.5202  0.5482
   48MOL   H14618100   4.838   7.649   5.843  1.8513 -2.5878  2.6010
   48MOL   H14718101   4.978   7.523   5.602  0.5826  1.6423 -0.5554
   48MOL   H14818102   5.174   7.657   5.664 -0.7834 -1.3763 -2.1597
   48MOL   H14918103   5.059   7.750   5.770 -1.2088  0.9706 -0.0107
   48MOL   H15018104   5.036   7.736   5.598 -1.9087 -1.2193  0.1949
   48MOL   H15118105   4.994   7.374   5.814  0.4732 -0.8097 -2.5334
   48MOL   H15218106   5.148   7.449   5.773 -0.6464 -0.4622 -2.2327
   48MOL   H15318107   5.066   7.527   5.893 -1.8339  0.4426 -0.4377
   48MOL   C15418108   4.529   7.670   5.738 -0.2059 -0.0979 -0.6263
   48MOL   C15518109   4.443   7.586   5.644  0.4176  0.5939  0.2119
   48MOL   O15618110   4.385   7.502   5.731 -0.2452  0.5652 -0.1898
   48MOL   C15718111   4.432   7.363   5.723 -0.0940 -0.4755  0.6891
   48MOL   C15818112   4.385   7.279   5.850 -0.6803 -0.0781  0.8831
   48MOL   C15918113   4.407   7.127   5.837 -0.4259  0.1824 -0.0497
   48MOL   C16018114   4.456   7.321   5.983 -0.0125  0.1619  0.2599
   48MOL   H16118115   4.470   7.751   5.781  0.7065 -0.2128  0.8794
   48MOL   H16218116   4.557   7.613   5.827 -0.1675  0.7481 -0.0878
   48MOL   H16318117   4.502   7.524   5.577  0.2027  0.3477  0.2539
   48MOL   H16418118   4.539   7.358   5.705 -0.1329  0.0234  0.3003
   48MOL   H16518119   4.386   7.330   5.630  1.3887 -1.9236  0.4435
   48MOL   H16618120   4.278   7.298   5.854 -0.7313 -0.0689 -0.4715
   48MOL   H16718121   4.507   7.094   5.807 -0.6523 -1.2767  0.7307
   48MOL   H16818122   4.337   7.085   5.765  1.2086 -0.5494 -1.2597
   48MOL   H16918123   4.386   7.086   5.936 -0.2665 -0.1701 -0.1614
   48MOL   H17018124   4.393   7.305   6.070 -2.0998  0.8588 -1.0955
   48MOL   H17118125   4.559   7.286   5.983 -0.7072 -1.9281  0.7638
   48MOL   H17218126   4.461   7.430   5.974  1.3015  0.2009  1.2058
   48MOL   C17318127   4.349   7.667   5.566  0.0224  0.1394  0.4947
   48MOL   C17418128   4.235   7.582   5.503 -0.3653 -0.2020 -0.5926
   48MOL   O17518129   4.137   7.678   5.483  0.1293  0.2706 -0.1986
   48MOL   C17618130   4.044   7.684   5.588  0.5749  0.2463 -0.2503
   48MOL   C17718131   3.954   7.802   5.562 -0.1188 -0.4836 -0.4683
   48MOL   C17818132   3.824   7.782   5.654 -0.0688  0.1844 -0.1625
   48MOL   C17918133   4.031   0.114   5.573  0.2487 -0.1827 -0.3848
   48MOL   H18018134   4.302   7.740   5.632  2.2691  1.0966  1.1025
   48MOL   H18118135   4.393   7.732   5.490 -2.2052  1.0254 -0.0804
   48MOL   H18218136   4.208   7.501   5.570 -2.2875 -0.1396 -1.2612
   48MOL   H18318137   4.080   7.691   5.690 -0.0391 -0.8696  0.0580
   48MOL   H18418138   3.987   7.592   5.577 -1.0987  1.1418  0.6516
   48MOL   H18518139   3.934   7.797   5.455 -2.0910  0.1897 -0.1404
   48MOL   H18618140   3.838   7.797   5.762  2.2820 -1.5243 -0.1739
   48MOL   H18718141   3.730   0.001   5.623 -1.6648 -1.8836  1.6128
   48MOL   H18818142   3.805   7.674   5.651 -0.1256  0.1256  1.5776
   48MOL   H18918143   4.050   0.149   5.674 -0.7911 -1.9119  0.4330
   48MOL   H19018144   3.975   0.187   5.515 -0.2005  0.5333  0.9430
   48MOL   H19118145   4.133   0.103   5.538  0.4459  1.0967 -0.2216
   48MOL   C19218146   4.279   7.514   5.367 -0.6389  0.1114 -0.9941
   48MOL   C19318147   4.172   7.426   5.293 -0.9442 -0.4178 -0.4140
   48MOL   O19418148   4.153   7.309   5.367 -0.0125  0.0800  0.0938
   48MOL   C19518149   4.026   7.316   5.427 -0.8803  0.5445 -0.2510
   48MOL   C19618150   4.004   7.205   5.536 -0.4691  0.0297 -0.7580
   48MOL   C19718151   4.122   7.202   5.632  0.2094 -0.1398  0.4699
   48MOL   C19818152   3.965   7.068   5.487 -0.0473 -0.0819 -0.4998
   48MOL   H19918153   4.367   7.451   5.382  1.0828  1.8546 -3.3915
   48MOL   H20018154   4.307   7.602   5.310 -0.0481  1.1102  0.8095
   48MOL   H20118155   4.083   7.485   5.273 -2.1006 -2.1733 -0.5450
   48MOL   H20218156   3.959   7.284   5.347 -1.5215 -2.0574  1.2666
   48MOL   H20318157   4.000   7.408   5.479  0.3748  1.6211 -1.4752
   48MOL   H20418158   3.919   7.233   5.599  0.2405 -0.8570  0.6352
   48MOL   H20518159   4.137   7.306   5.664 -0.9973 -0.1623  1.1299
   48MOL   H20618160   4.112   7.141   5.722 -0.4795  1.4048  1.4675
   48MOL   H20718161   4.215   7.178   5.581 -0.8743  1.6409 -2.4894
   48MOL   H20818162   4.015   7.050   5.391  1.4434  2.3579 -0.2140
   48MOL   H20918163   3.972   6.980   5.550  1.1140  0.7402  0.5456
   48MOL   H21018164   3.861   7.076   5.457 -0.2199 -0.9856 -0.1640
   48MOL   C21118165   4.198   7.375   5.149 -0.0736  0.4230  0.0010
   48MOL   C21218166   4.246   7.470   5.036  0.1129 -0.9759 -0.3647
   48MOL   O21318167   4.379   7.516   5.067 -0.1764 -0.3515  0.0205
   48MOL   C21418168   4.435   7.623   4.994 -0.1134  0.0076  0.1864
   48MOL   C21518169   4.556   7.666   5.076 -0.0314 -0.5526  0.1800
   48MOL   C21618170   4.663   7.561   5.070  0.0106 -0.4745  0.5523
   48MOL   C21718171   4.612   7.792   5.015 -1.1689 -0.9856  0.2622
   48MOL   H21818172   4.111   7.326   5.104 -0.4534  1.7188 -0.7083
   48MOL   H21918173   4.271   7.295   5.139 -0.2506  0.5013 -2.3053
   48MOL   H22018174   4.182   7.557   5.047  1.2187 -0.4319  2.2375
   48MOL   H22118175   4.371   7.709   4.976 -0.9392 -0.4704  0.7760
   48MOL   H22218176   4.472   7.584   4.899  1.0199 -0.0502  0.6501
   48MOL   H22318177   4.544   7.690   5.182  1.1572  1.6578 -0.1361
   48MOL   H22418178   4.718   7.580   5.161 -2.7254 -1.1223  2.4171
   48MOL   H22518179   4.628   7.459   5.087  2.1789 -1.9265 -3.1179
   48MOL   H22618180   4.733   7.562   4.986  1.5148  1.1571  1.8021
   48MOL   H22718181   4.542   0.050   4.998  1.6129  1.1026 -1.6133
   48MOL   H22818182   4.662   7.785   4.918 -1.8139  1.0572 -0.2441
   48MOL   H22918183   4.690   0.019   5.070 -1.3922 -1.1559  0.7424
   48MOL   C23018184   4.252   7.406   4.897 -1.1138 -0.3393 -0.3967
   48MOL   C23118185   4.339   7.280   4.885 -0.9868 -0.3610  0.3376
   48MOL   O23218186   4.255   7.183   4.950  0.1825  0.3515  0.1562
   48MOL   C23318187   4.329   7.077   5.011 -0.7770 -0.1835  0.3361
   48MOL   C23418188   4.233   6.965   5.072  0.4360  0.6485  0.2205
   48MOL   C23518189   4.319   6.841   5.097  0.0875 -0.5162  0.3354
   48MOL   C23618190   4.167   7.020   5.197  0.0601 -0.7293  0.0311
   48MOL   H23718191   4.289   7.481   4.827  1.6754 -1.3784 -0.0740
   48MOL   H23818192   4.159   7.383   4.845 -1.1796 -1.5459  0.2334
   48MOL   H23918193   4.430   7.291   4.943  0.5944 -1.4529 -1.8587
   48MOL   H24018194   4.392   7.036   4.932  0.3195  0.1490  1.0277
   48MOL   H24118195   4.406   7.108   5.081 -0.3565 -2.1505  0.7702
   48MOL   H24218196   4.162   6.928   4.998  0.0548 -0.2292  1.0168
   48MOL   H24318197   4.406   6.868   5.156 -1.9551  1.4319  2.5928
   48MOL   H24418198   4.351   6.795   5.004  0.1335  3.1208 -1.5500
   48MOL   H24518199   4.264   6.758   5.141 -0.1980  0.4768  1.9112
   48MOL   H24618200   4.097   7.103   5.186  1.6976  0.8042  0.8888
   48MOL   H24718201   4.108   6.940   5.241 -0.8081  0.1067  0.4104
   48MOL   H24818202   4.247   7.039   5.269  0.3733 -0.5951 -0.3461
   48MOL   C24918203   4.372   7.230   4.742  0.2038  0.1712  0.1905
   48MOL   C25018204   4.506   7.252   4.688 -0.3344 -0.2006 -0.2791
   48MOL   O25118205   4.533   7.396   4.693 -0.0255 -0.7087  0.3859
   48MOL   C25218206   4.553   7.445   4.562  0.0224  0.3900 -0.6055
   48MOL   C25318207   4.548   7.601   4.556  0.0106  0.1698  0.3315
   48MOL   C25418208   4.584   7.638   4.412 -0.1889  0.5512  0.5541
   48MOL   C25518209   4.642   7.677   4.650 -0.1906 -0.1783 -0.2181
   48MOL   H25618210   4.294   7.267   4.676 -0.2025 -0.0889  0.5196
   48MOL   H25718211   4.345   7.124   4.741 -0.7043  0.3567  2.3136
   48MOL   H25818212   4.523   7.213   4.588  2.8686  0.7526 -0.1424
   48MOL   H25918213   4.640   7.412   4.506  0.9080  1.2963  0.2132
   48MOL   H26018214   4.468   7.409   4.504 -0.3141 -1.6077  1.0450
   48MOL   H26118215   4.447   7.637   4.576 -0.1984 -0.8049  1.0473
   48MOL   H26218216   4.686   7.602   4.398 -0.6882  0.0882 -2.2709
   48MOL   H26318217   4.593   7.747   4.407  3.4940  0.2595 -1.3152
   48MOL   H26418218   4.527   7.600   4.328 -2.0851 -0.5499  2.3038
   48MOL   H26518219   4.651   7.781   4.621  1.7415  1.1484  4.6499
   48MOL   H26618220   4.604   7.666   4.751  0.2210  4.0076  0.4749
   48MOL   H26718221   4.743   7.637   4.642  2.0868  5.3741 -1.0941
   48MOL   C26818222   4.610   7.178   4.773 -1.0578  0.0429  0.6809
   48MOL   C26918223   4.757   7.194   4.724 -0.2256 -0.5689  0.5660
   48MOL   O27018224   4.777   7.150   4.588 -0.1274  0.2531  0.2632
   48MOL   C27118225   4.743   7.019   4.542 -0.4031  0.0893 -0.3984
   48MOL   C27218226   4.753   7.012   4.393 -0.8268  0.6189 -0.1550
   48MOL   C27318227   4.748   6.865   4.343 -0.2382 -0.2311 -0.6906
   48MOL   C27418228   4.639   7.097   4.336 -0.2433  0.2225 -0.1565
   48MOL   H27518229   4.597   7.069   4.769 -1.2703  0.1202 -2.3379
   48MOL   H27618230   4.618   7.199   4.879  2.0330 -1.6868  0.8583
   48MOL   H27718231   4.782   7.300   4.720 -1.2848 -0.2179  2.3562
   48MOL   H27818232   4.825   6.959   4.582 -2.2988 -2.3432 -0.0605
   48MOL   H27918233   4.646   6.987   4.578 -0.7894  4.1496  2.5135
   48MOL   H28018234   4.854   7.049   4.373 -0.2875 -0.1324  1.1083
   48MOL   H28118235   4.769   6.857   4.236  1.2220 -0.7515 -0.3639
   48MOL   H28218236   4.645   6.832   4.355 -0.5910  1.2125  0.3917
   48MOL   H28318237   4.817   6.793   4.386  1.5525  2.0662  0.4125
   48MOL   H28418238   4.655   7.205   4.337  1.9365 -0.0936  0.1903
   48MOL   H28518239   4.543   7.073   4.382  1.1799 -0.7354  2.3626
   48MOL   H28618240   4.631   7.090   4.227  2.9359 -0.5390 -0.3796
   48MOL   C28718241   4.861   7.117   4.811  0.2356 -0.1141  0.2001
   48MOL   C28818242   5.004   7.093   4.752 -0.6720  0.4121  0.1573
   48MOL   O28918243   5.075   7.007   4.836  1.0909  0.0095  0.6307
   48MOL   C29018244   5.082   6.876   4.784  0.2378 -0.2849  0.5526
   48MOL   C29118245   5.135   6.784   4.896  0.3232 -0.1871  0.7267
   48MOL   C29218246   5.275   6.815   4.949 -0.0896  0.0375 -0.3000
   48MOL   C29318247   5.126   6.642   4.851  0.0282  0.6710  1.5011
   48MOL   H29418248   4.815   7.021   4.838  0.0209 -0.1254 -0.2074
   48MOL   H29518249   4.866   7.173   4.905  1.5592  1.5540 -0.8395
   48MOL   H29618250   5.008   7.069   4.646 -2.1949  1.9625 -0.2720
   48MOL   H29718251   4.979   6.859   4.751  0.5562  1.1466 -1.2624
   48MOL   H29818252   5.140   6.866   4.692 -2.8192  0.5303 -1.5695
   48MOL   H29918253   5.066   6.791   4.980 -0.1478  0.3445  0.3037
   48MOL   H30018254   5.353   6.757   4.900  0.6831  1.4352 -0.7401
   48MOL   H30118255   5.287   6.791   5.054  0.6318  0.4412 -0.2916
   48MOL   H30218256   5.294   6.920   4.926 -1.3928  0.3043 -0.2146
   48MOL   H30318257   5.182   6.624   4.760 -2.2115 -1.8534  0.5614
   48MOL   H30418258   5.159   6.566   4.922  0.0936 -0.4598  0.2849
   48MOL   H30518259   5.021   6.620   4.832 -0.2302  2.7241  0.4158
   48MOL   C30618260   5.094   7.222   4.774  0.4466 -0.7686  0.0318
   48MOL   C30718261   5.240   7.204   4.721 -0.1269  0.9189  0.4263
   48MOL   O30818262   5.237   7.196   4.580 -0.1605 -0.5221 -0.3287
   48MOL   C30918263   5.337   7.114   4.517 -1.3226 -0.0122 -0.4005
   48MOL   C31018264   5.339   7.139   4.366 -0.5073  0.0183 -0.3704
   48MOL   C31118265   5.200   7.119   4.304 -0.8533 -0.5539 -0.0775
   48MOL   C31218266   5.447   7.068   4.281  1.0797 -0.4971 -0.4247
   48MOL   H31318267   5.083   7.232   4.882 -3.5989 -2.2567 -0.1389
   48MOL   H31418268   5.044   7.306   4.726  2.8796  0.6292 -0.1144
   48MOL   H31518269   5.289   7.113   4.755 -1.6500  0.0479  0.3327
   48MOL   H31618270   5.315   7.008   4.519  1.9771 -0.6921  1.5690
   48MOL   H31718271   5.431   7.144   4.563  0.3647 -2.4755 -2.1344
   48MOL   H31818272   5.357   7.247   4.366  0.2251 -0.1041 -1.0551
   48MOL   H31918273   5.197   7.154   4.200  1.2372  2.1372  0.7145
   48MOL   H32018274   5.132   7.171   4.370 -0.8858 -1.5755  0.7018
   48MOL   H32118275   5.164   7.017   4.315  0.7402 -1.1693 -0.3208
   48MOL   H32218276   5.549   7.093   4.308  1.6896 -1.9328 -1.3172
   48MOL   H32318277   5.423   7.083   4.176 -0.5680  0.6231  0.0979
   48MOL   H32418278   5.450   6.961   4.303  2.4176 -0.3649  0.0846
   48MOL   C32518279   5.324   7.331   4.750 -0.7869 -0.2740  0.0804
   48MOL   C32618280   5.376   7.369   4.894 -0.3251 -0.4252  0.0701
   48MOL   O32718281   5.275   7.404   4.985 -0.6204 -0.0326  0.7212
   48MOL   C32818282   5.247   7.545   5.003 -0.8198  0.2490  0.9903
   48MOL   C32918283   5.148   7.575   5.115 -0.2792  0.6587 -0.9069
   48MOL   C33018284   5.018   7.495   5.106 -0.1810 -0.8797 -0.3820
   48MOL   C33118285   5.209   7.540   5.246 -0.6447 -0.6328 -0.4193
   48MOL   H33218286   5.260   7.415   4.721  1.4874  1.5088  0.1166
   48MOL   H33318287   5.408   7.335   4.681 -1.7344  2.2835 -1.0157
   48MOL   H33418288   5.443   7.454   4.884  0.6030 -0.7975  2.7147
   48MOL   H33518289   5.338   7.600   5.028 -1.3900  1.8030 -0.2903
   48MOL   H33618290   5.214   7.581   4.906  2.5975 -1.3703 -0.8641
   48MOL   H33718291   5.138   7.684   5.120 -1.6755  0.5290 -0.7415
   48MOL   H33818292   4.958   7.515   5.017  2.3145  0.7098 -1.7680
   48MOL   H33918293   5.033   7.387   5.112  0.3988 -0.8224 -0.7269
   48MOL   H34018294   4.945   7.531   5.178 -0.5968  1.4284 -1.8995
   48MOL   H34118295   5.294   7.607   5.263 -0.2755 -0.9586 -0.9917
   48MOL   H34218296   5.155   7.550   5.340 -0.6398 -0.1043 -0.4692
   48MOL   H34318297   5.236   7.434   5.243 -1.0576 -0.7540  0.0781
   48MOL   C34418298   5.461   7.263   4.960 -0.0415  0.2921 -0.6411
   48MOL   C34518299   5.508   7.303   5.103 -0.4152  1.1223 -0.1409
   48MOL   O34618300   5.604   7.199   5.128  0.6039  0.2383  0.0495
   48MOL   C34718301   5.568   7.098   5.218  0.2924  0.5319  0.3005
   48MOL   C34818302   5.681   6.991   5.219  0.5362 -0.7261 -0.4403
   48MOL   C34918303   5.632   6.871   5.309 -0.3073 -0.2456  0.4829
   48MOL   C35018304   5.809   7.059   5.259  0.3038 -0.0802  0.4604
   48MOL   H35118305   5.544   7.251   4.891  0.1482  0.0102 -0.3619
   48MOL   H35218306   5.411   7.166   4.970 -1.3092  0.8416 -1.5225
   48MOL   H35318307   5.431   7.303   5.180 -0.3750 -1.3303 -0.0747
   48MOL   H35418308   5.470   7.065   5.185  0.1116  1.3055  0.0551
   48MOL   H35518309   5.555   7.135   5.319  0.4880 -0.0981  0.5581
   48MOL   H35618310   5.688   6.948   5.119 -1.3150  1.0606 -1.3686
   48MOL   H35718311   5.570   6.902   5.394 -4.2501 -2.0476 -1.6214
   48MOL   H35818312   5.720   6.816   5.345  0.8406  0.2969 -1.4328
   48MOL   H35918313   5.561   6.820   5.245  1.1602 -2.3371  0.4576
   48MOL   H36018314   5.850   7.135   5.193  0.5834  1.2151  2.0760
   48MOL   H36118315   5.802   7.099   5.361  1.2699  1.6423 -0.1194
   48MOL   H36218316   5.887   6.983   5.259 -1.4563 -2.0160 -3.2718
   48MOL   C36318317   5.591   7.433   5.120  0.7706 -0.8276  0.1202
   48MOL   C36418318   5.648   7.439   5.264 -0.2130 -0.3677 -0.4780
   48MOL   O36518319   5.721   7.561   5.280 -0.1440 -0.3995  0.4088
   48MOL   C36618320   5.854   7.560   5.228 -0.7247 -0.5998  0.2836
   48MOL   C36718321   5.925   7.691   5.236 -0.0955  0.1355 -0.2186
   48MOL   C36818322   5.870   7.784   5.130 -0.2703  0.1596  1.3467
   48MOL   C36918323   6.073   7.666   5.212  0.0560  0.4239  0.4526
   48MOL   H37018324   5.665   7.438   5.039  1.2476  0.6181  0.6314
   48MOL   H37118325   5.519   7.514   5.121  0.7035 -0.8993  2.3921
   48MOL   H37218326   5.710   7.354   5.294 -0.4294 -0.0533  0.8988
   48MOL   H37318327   5.898   7.484   5.292 -1.0288  0.6972  2.0679
   48MOL   H37418328   5.854   7.517   5.127 -0.3949  0.2517 -0.0839
   48MOL   H37518329   5.916   7.741   5.332 -2.0845  0.9815 -0.8410
   48MOL   H37618330   5.940   0.043   5.121 -0.4358  0.1794  0.1603
   48MOL   H37718331   5.769   7.815   5.159  0.4162  1.9415  1.8819
   48MOL   H37818332   5.855   7.752   5.027 -1.0188  0.4857  1.3522
   48MOL   H37918333   6.133   7.756   5.208 -0.7437  1.0065  1.4643
   48MOL   H38018334   6.081   7.622   5.112 -0.6462  1.6943 -0.1779
   48MOL   H38118335   6.117   7.609   5.294 -0.7065  1.3996  1.5484
   48MOL   H38218336   5.572   7.442   5.342  0.2180 -2.3311  0.0628
   49MOL     C118337   3.488   6.909   2.198 -0.0023 -0.5535 -0.2625
   49MOL     C218338   3.521   7.004   2.323  0.4660 -0.3363 -1.1768
   49MOL     O318339   3.438   7.125   2.306 -0.4891  0.1860  0.2285
   49MOL     C418340   3.460   7.227   2.398  0.8599 -0.0457  0.2074
   49MOL     C518341   3.364   7.346   2.373 -1.0048  0.2173  0.5340
   49MOL     C618342   3.366   7.440   2.497 -0.0262  0.3777  0.3694
   49MOL     C718343   3.222   7.293   2.350 -0.1698 -0.2709  0.2059
   49MOL     H818344   3.383   6.880   2.204 -0.0663 -0.2726  0.0170
   49MOL     H918345   3.498   6.971   2.109 -2.3529 -1.7593 -1.4071
   49MOL    H1018346   3.625   7.038   2.332  0.3917 -0.7241  1.7562
   49MOL    H1118347   3.560   7.258   2.367  0.7868 -0.6662 -0.6712
   49MOL    H1218348   3.467   7.203   2.504 -2.1485 -0.8059  0.2679
   49MOL    H1318349   3.404   7.405   2.291  1.8694 -0.5262  1.3577
   49MOL    H1418350   3.467   7.478   2.503  0.5494 -0.3803 -3.1741
   49MOL    H1518351   3.298   7.525   2.490 -0.9404 -0.2183  1.7444
   49MOL    H1618352   3.345   7.385   2.589  1.1288  0.3138  0.6035
   49MOL    H1718353   3.159   7.382   2.350 -1.6658 -1.2991  2.0989
   49MOL    H1818354   3.211   7.233   2.260  0.9169 -0.8575  0.4599
   49MOL    H1918355   3.188   7.227   2.429  1.0789 -0.1411  0.8714
   49MOL    H2018356   3.547   6.818   2.194  0.5665 -0.1929 -0.1010
   49MOL    C2118357   3.490   6.923   2.462 -0.3285  0.4508  0.0790
   49MOL    C2218358   3.607   6.826   2.501  0.3197  0.4901 -0.6788
   49MOL    O2318359   3.723   6.908   2.502 -0.0576  0.8777 -0.1867
   49MOL    C2418360   3.851   6.844   2.493  0.1584 -0.3745  0.4677
   49MOL    C2518361   3.943   6.950   2.430 -0.1603 -0.1140 -0.1673
   49MOL    C2618362   4.003   7.047   2.536 -0.3435 -0.0369  0.7194
   49MOL    C2718363   4.055   6.888   2.354 -0.3215 -0.0169  1.0651
   49MOL    H2818364   3.476   6.987   2.549  0.1827  1.2888 -0.4436
   49MOL    H2918365   3.395   6.871   2.446  0.9529 -2.2804  1.1621
   49MOL    H3018366   3.612   6.750   2.422 -1.9383  0.2337 -0.6153
   49MOL    H3118367   3.845   6.759   2.426  0.8717  2.7020 -3.6795
   49MOL    H3218368   3.892   6.803   2.585 -0.9498 -1.9774  0.2571
   49MOL    H3318369   3.885   7.007   2.358 -0.7241  0.2347  0.5586
   49MOL    H3418370   3.929   7.099   2.597 -0.1136 -0.8431  1.6916
   49MOL    H3518371   4.054   7.129   2.485 -2.5733  0.1565 -1.2885
   49MOL    H3618372   4.084   7.000   2.592  0.3916 -0.4509 -0.6682
   49MOL    H3718373   4.025   6.819   2.276 -0.2876  0.1908  0.8664
   49MOL    H3818374   4.125   6.962   2.314 -0.1878 -0.7764 -0.1232
   49MOL    H3918375   4.117   6.831   2.423  0.8595 -1.2115 -0.9454
   49MOL    C4018376   3.591   6.758   2.635 -0.4535  0.8274  1.0102
   49MOL    C4118377   3.516   6.617   2.630 -0.3164 -0.3795  0.0585
   49MOL    O4218378   3.379   6.644   2.593  0.2743  0.1872 -0.2408
   49MOL    C4318379   3.304   6.533   2.546 -0.5460  0.3744 -0.1998
   49MOL    C4418380   3.183   6.582   2.468 -0.4538 -0.2309  0.4425
   49MOL    C4518381   3.220   6.631   2.330 -0.0010 -0.2082 -0.6112
   49MOL    C4618382   3.069   6.484   2.455  0.1911  0.1992 -0.7474
   49MOL    H4718383   3.563   6.835   2.707  1.7990  1.7662  0.9186
   49MOL    H4818384   3.692   6.734   2.668 -0.2475  0.0287 -0.1404
   49MOL    H4918385   3.560   6.550   2.556  3.9839 -1.4166  3.3776
   49MOL    H5018386   3.261   6.471   2.625  3.0517 -2.8520 -0.6319
   49MOL    H5118387   3.370   6.480   2.478  0.3468  1.2179  0.0174
   49MOL    H5218388   3.140   6.663   2.528  0.0676  1.5014 -1.4542
   49MOL    H5318389   3.239   6.551   2.259 -1.1046 -0.3184 -0.7933
   49MOL    H5418390   3.152   6.693   2.272  1.2808  0.3346 -1.5565
   49MOL    H5518391   3.314   6.685   2.342 -0.0588 -0.3438  0.4897
   49MOL    H5618392   2.983   6.529   2.405 -0.8397 -2.3148 -1.3628
   49MOL    H5718393   3.031   6.453   2.552 -1.0651  2.0699 -0.6105
   49MOL    H5818394   3.109   6.397   2.402 -0.0564 -0.7391  0.5724
   49MOL    C5918395   3.508   6.547   2.763  0.0429  0.2274 -0.1319
   49MOL    C6018396   3.645   6.540   2.841  0.0079  0.0533 -1.1942
   49MOL    O6118397   3.741   6.443   2.775 -0.3358 -0.4330  0.0010
   49MOL    C6218398   3.840   6.502   2.689  0.6022  0.4848  0.1832
   49MOL    C6318399   3.923   6.385   2.634  0.3379  0.1315 -0.5233
   49MOL    C6418400   3.848   6.295   2.533  0.2165  0.1320 -0.5324
   49MOL    C6518401   4.054   6.430   2.580 -0.5981  0.8114 -0.3036
   49MOL    H6618402   3.470   6.446   2.746 -1.3434  0.2856  2.3808
   49MOL    H6718403   3.445   6.601   2.833 -0.0001 -2.5113  2.0090
   49MOL    H6818404   3.680   6.643   2.850 -0.5004  0.2266 -1.2147
   49MOL    H6918405   3.794   6.552   2.603  0.6606 -0.7865 -0.6091
   49MOL    H7018406   3.903   6.569   2.747  0.8326 -1.2246  1.9386
   49MOL    H7118407   3.952   6.317   2.714 -0.7615 -0.9620 -1.0307
   49MOL    H7218408   3.813   6.346   2.443 -0.1334  0.5878 -0.1359
   49MOL    H7318409   3.754   6.264   2.579 -0.5317  1.7170 -0.9520
   49MOL    H7418410   3.899   6.206   2.496  1.7975  0.7248  0.1742
   49MOL    H7518411   4.100   6.344   2.533  1.2852  0.5043  2.0345
   49MOL    H7618412   4.031   6.500   2.499  0.0333 -1.0211 -2.0799
   49MOL    H7718413   4.121   6.476   2.653  1.1469  2.2584 -2.7229
   49MOL    C7818414   3.632   6.492   2.989  0.9794  0.7661  0.1921
   49MOL    C7918415   3.755   6.503   3.084 -0.1355 -0.0922  0.2862
   49MOL    O8018416   3.765   6.643   3.117  0.4359  0.1610  0.1695
   49MOL    C8118417   3.886   6.710   3.076 -0.7890 -0.4641  0.7535
   49MOL    C8218418   3.867   6.862   3.099  0.0370  0.1013  0.3426
   49MOL    C8318419   3.824   6.883   3.242  0.2108  0.1095 -0.0631
   49MOL    C8418420   3.758   6.923   3.002 -0.0947 -0.0554 -0.2454
   49MOL    H8518421   3.619   6.384   2.979  1.9280  0.7224 -0.6340
   49MOL    H8618422   3.542   6.524   3.040 -0.3230  1.1388 -2.2778
   49MOL    H8718423   3.838   6.469   3.022 -1.5766  1.5068 -2.6761
   49MOL    H8818424   3.978   6.670   3.119 -0.5546  0.7712  1.4355
   49MOL    H8918425   3.904   6.681   2.973 -1.8589 -1.5854  0.8705
   49MOL    H9018426   3.963   6.912   3.092  0.8564 -1.5084  0.1021
   49MOL    H9118427   3.890   6.846   3.320 -0.2426  0.8060  0.6644
   49MOL    H9218428   3.727   6.838   3.266  0.9675 -0.5099  2.0255
   49MOL    H9318429   3.804   6.988   3.264 -0.2240 -0.3673  1.9034
   49MOL    H9418430   3.793   6.908   2.900 -0.0643  1.2175 -0.4227
   49MOL    H9518431   3.739   7.025   3.033 -1.9620 -0.6262  0.5600
   49MOL    H9618432   3.667   6.867   3.024 -0.3261  0.8136  1.0602
   49MOL    C9718433   3.736   6.431   3.223 -0.4929  0.4870 -0.7041
   49MOL    C9818434   3.863   6.420   3.297  0.5550 -0.0775 -0.5912
   49MOL    O9918435   3.940   6.337   3.216 -0.3465  0.2695  0.0891
   49MOL   C10018436   4.073   6.381   3.175  0.1020 -0.7023  0.1825
   49MOL   C10118437   4.096   6.337   3.024 -0.6257  0.4081 -0.3098
   49MOL   C10218438   4.233   6.402   2.978  0.1271 -0.7408  0.1746
   49MOL   C10318439   4.089   6.181   3.002 -0.3637 -0.8249  0.0899
   49MOL   H10418440   3.707   6.326   3.217  0.9759  0.0750 -0.6319
   49MOL   H10518441   3.664   6.486   3.284 -2.2784 -1.1098 -1.3220
   49MOL   H10618442   3.915   6.514   3.313 -1.7262  1.2474 -0.6389
   49MOL   H10718443   4.147   6.326   3.234  0.6875 -0.0210  0.0806
   49MOL   H10818444   4.093   6.488   3.175 -0.9102 -0.5040  0.3117
   49MOL   H10918445   4.014   6.385   2.970  0.6719  1.4666 -1.3635
   49MOL   H11018446   4.318   6.370   3.039 -1.2307 -0.0631  2.5118
   49MOL   H11118447   4.275   6.379   2.880 -3.4234  2.0671 -2.1374
   49MOL   H11218448   4.242   6.511   2.978  1.0559 -0.8048 -1.2631
   49MOL   H11318449   4.078   6.162   2.895  1.2762 -0.1736 -0.2209
   49MOL   H11418450   4.173   6.138   3.058  1.0763  1.2032 -0.4504
   49MOL   H11518451   3.998   6.143   3.047 -1.1736  1.5525  0.5264
   49MOL   C11618452   3.850   6.335   3.422  0.0505  0.4153  0.4437
   49MOL   C11718453   3.826   6.407   3.555  0.2477 -0.0508  0.2213
   49MOL   O11818454   3.699   6.478   3.549 -0.5200  0.1506  0.5892
   49MOL   C11918455   3.692   6.614   3.528 -0.2987 -0.4559 -0.2048
   49MOL   C12018456   3.553   6.669   3.544 -0.4303  0.8670  0.4084
   49MOL   C12118457   3.559   6.824   3.538  0.2827  0.0700  0.0364
   49MOL   C12218458   3.449   6.601   3.458  0.0899 -0.6557 -0.4207
   49MOL   H12318459   3.773   6.259   3.410 -0.6813  1.1975  0.1061
   49MOL   H12418460   3.939   6.274   3.433  0.8937  1.4082 -0.7010
   49MOL   H12518461   3.908   6.479   3.562  0.8429 -0.6537 -0.4350
   49MOL   H12618462   3.732   6.631   3.428 -1.5453 -0.9459 -0.7914
   49MOL   H12718463   3.758   6.672   3.592  0.5055  0.8567 -2.1815
   49MOL   H12818464   3.523   6.632   3.642 -2.8104 -1.8785 -1.2821
   49MOL   H12918465   3.627   6.867   3.464  0.0386 -1.3057 -1.0070
   49MOL   H13018466   3.587   6.864   3.636 -0.2939 -0.2622  0.3358
   49MOL   H13118467   3.459   6.863   3.522  0.6900  0.2808 -2.2198
   49MOL   H13218468   3.345   6.621   3.485  0.4282  0.1677  0.2947
   49MOL   H13318469   3.478   6.629   3.357 -1.3413  4.7503  0.5075
   49MOL   H13418470   3.462   6.493   3.458  0.1242 -0.6522 -0.2495
   49MOL   C13518471   3.815   6.309   3.667 -0.6749  0.7121 -0.0185
   49MOL   C13618472   3.818   6.362   3.818  0.5951 -0.8534  0.5762
   49MOL   O13718473   3.714   6.332   3.907  0.2382  0.0810  0.2435
   49MOL   C13818474   3.595   6.392   3.863  0.3683  0.0010 -0.4442
   49MOL   C13918475   3.517   6.459   3.974  1.2003 -0.1834 -0.2619
   49MOL   C14018476   3.586   6.562   4.057 -0.8795 -0.3412  0.4522
   49MOL   C14118477   3.390   6.521   3.909  0.1631  0.1957  0.2998
   49MOL   H14218478   3.720   6.259   3.650 -0.4636 -0.4023  1.9307
   49MOL   H14318479   3.893   6.235   3.649 -0.1004  0.8519  1.8295
   49MOL   H14418480   3.833   6.468   3.803  0.3157 -1.2080 -2.3965
   49MOL   H14518481   3.531   6.320   3.811 -2.4069 -0.7179  3.6703
   49MOL   H14618482   3.607   6.472   3.791  0.3919 -1.3698 -1.9957
   49MOL   H14718483   3.477   6.379   4.036 -0.4087 -0.5948 -1.7604
   49MOL   H14818484   3.671   6.512   4.103 -0.6724 -0.7810 -0.4021
   49MOL   H14918485   3.525   6.608   4.136  0.5936 -0.7341  1.8243
   49MOL   H15018486   3.629   6.639   3.993  0.0253 -2.0663 -1.0450
   49MOL   H15118487   3.335   6.436   3.868  1.8515 -1.4700  1.4246
   49MOL   H15218488   3.331   6.562   3.991 -1.2476 -0.0052 -0.6059
   49MOL   H15318489   3.413   6.596   3.834  0.4186  1.2319  1.3883
   49MOL   C15418490   3.945   6.330   3.899  0.2564  0.7521 -0.3518
   49MOL   C15518491   4.077   6.367   3.833 -0.8325  0.0091 -0.0868
   49MOL   O15618492   4.077   6.507   3.811 -0.1709  0.0822  0.3157
   49MOL   C15718493   4.180   6.554   3.721 -0.1031 -0.3424  0.3614
   49MOL   C15818494   4.181   6.704   3.698  0.0309 -0.5132 -0.8438
   49MOL   C15918495   4.074   6.751   3.602  0.1753 -0.2721 -0.5133
   49MOL   C16018496   4.168   6.785   3.826  0.0462 -0.3961 -0.4936
   49MOL   H16118497   3.945   6.222   3.917 -1.1881  0.2740 -2.9916
   49MOL   H16218498   3.935   6.382   3.994  0.3346 -1.1370  0.7092
   49MOL   H16318499   4.075   6.313   3.738 -0.7010  0.0702 -0.1244
   49MOL   H16418500   4.164   6.497   3.629  2.6683  1.2889 -1.2015
   49MOL   H16518501   4.280   6.543   3.763 -0.1663  2.3675  1.2923
   49MOL   H16618502   4.277   6.723   3.651  0.6661 -0.6718  0.3894
   49MOL   H16718503   4.075   6.680   3.520 -0.6211  0.2906 -1.0209
   49MOL   H16818504   4.105   6.852   3.572 -0.5663  0.1068 -0.0156
   49MOL   H16918505   3.981   6.753   3.658 -0.8126 -2.9241 -1.9897
   49MOL   H17018506   4.063   6.786   3.855 -0.1885  0.3068 -1.3696
   49MOL   H17118507   4.236   6.749   3.904 -1.7300 -1.2794  0.6742
   49MOL   H17218508   4.189   6.892   3.827  2.9409 -0.9178  0.8698
   49MOL   C17318509   4.194   6.314   3.914  0.1599  0.5387  0.0117
   49MOL   C17418510   4.200   6.342   4.068 -0.6215  0.3770 -0.3931
   49MOL   O17518511   4.306   6.272   4.141  0.3548 -0.5056 -0.4572
   49MOL   C17618512   4.301   6.131   4.148  0.0578 -0.0573 -0.8099
   49MOL   C17718513   4.424   6.084   4.235 -0.8799  0.0602 -0.6073
   49MOL   C17818514   4.555   6.087   4.154 -0.6098  0.2662  0.5963
   49MOL   C17918515   4.432   6.164   4.369 -0.2529  0.5330  0.8682
   49MOL   H18018516   4.182   6.207   3.901 -2.7627  0.9294 -0.7311
   49MOL   H18118517   4.282   6.352   3.862 -0.9977  4.2893  0.6455
   49MOL   H18218518   4.106   6.303   4.106 -2.1105  0.9126 -3.3609
   49MOL   H18318519   4.316   6.101   4.044 -0.5939  0.0628 -0.9386
   49MOL   H18418520   4.211   6.082   4.186  0.3534 -0.2400 -0.3434
   49MOL   H18518521   4.419   5.977   4.258 -2.2886  0.1720 -0.3096
   49MOL   H18618522   4.636   6.018   4.174 -1.3135 -1.4767 -2.2679
   49MOL   H18718523   4.541   6.070   4.048  0.7015 -1.8971  0.7547
   49MOL   H18818524   4.600   6.183   4.183 -2.1501  1.3917 -0.6441
   49MOL   H18918525   4.488   6.102   4.439  1.9022  0.3586 -0.9568
   49MOL   H19018526   4.339   6.175   4.424 -0.0369 -2.3145  1.8670
   49MOL   H19118527   4.474   6.264   4.359 -2.2917  1.1979 -1.6931
   49MOL   C19218528   4.207   6.500   4.090 -0.0468  0.4733  0.3298
   49MOL   C19318529   4.192   6.547   4.232 -0.7080  0.3648 -0.8044
   49MOL   O19418530   4.065   6.506   4.258 -0.2454  0.0916 -0.3974
   49MOL   C19518531   4.047   6.439   4.387 -0.3636  0.2273  0.1447
   49MOL   C19618532   3.893   6.417   4.411 -0.2320 -0.0550  0.0280
   49MOL   C19718533   3.871   6.397   4.561  0.1755 -0.3013  0.4058
   49MOL   C19818534   3.839   6.309   4.319 -0.0528 -0.3838 -0.0482
   49MOL   H19918535   4.134   6.542   4.021 -2.5097 -2.6516  0.9123
   49MOL   H20018536   4.307   6.532   4.061  0.6260  0.8717  2.9300
   49MOL   H20118537   4.266   6.498   4.295 -1.5696  1.2131  0.8968
   49MOL   H20218538   4.098   6.493   4.466  0.5504 -1.3193  0.6461
   49MOL   H20318539   4.099   6.343   4.377  1.5262  1.4139 -1.7581
   49MOL   H20418540   3.841   6.511   4.394 -2.0367 -0.5013  2.6729
   49MOL   H20518541   3.909   6.480   4.622  0.7071 -0.5803  0.4615
   49MOL   H20618542   3.763   6.397   4.574 -0.1166  1.3090 -1.6623
   49MOL   H20718543   3.927   6.311   4.597  0.2371 -0.1759  0.6085
   49MOL   H20818544   3.831   6.349   4.218  1.7309  0.5425  0.1605
   49MOL   H20918545   3.888   6.211   4.315  2.1177  0.7552 -3.0138
   49MOL   H21018546   3.733   6.289   4.329 -0.3951  0.0064 -2.6087
   49MOL   C21118547   4.203   6.706   4.234  0.1433  0.1629  0.0546
   49MOL   C21218548   4.229   6.760   4.374 -0.1715  0.0460  0.7276
   49MOL   O21318549   4.354   6.728   4.421 -0.8098 -0.0045 -0.0121
   49MOL   C21418550   4.366   6.723   4.568 -0.6878  0.0802 -0.1211
   49MOL   C21518551   4.487   6.640   4.609 -0.2671  0.6164  0.0403
   49MOL   C21618552   4.499   6.648   4.767  0.1421  0.0291  0.7608
   49MOL   C21718553   4.458   6.497   4.550  0.0649 -0.1484  0.0975
   49MOL   H21818554   4.118   6.758   4.189 -0.8555 -1.0153  0.5720
   49MOL   H21918555   4.290   6.727   4.171 -0.4433 -0.8620 -1.1249
   49MOL   H22018556   4.152   6.712   4.434  0.5968 -1.4236  0.5561
   49MOL   H22118557   4.281   6.679   4.620 -1.0434  0.6847 -0.2006
   49MOL   H22218558   4.371   6.823   4.609 -0.4028  1.0878 -2.5355
   49MOL   H22318559   4.570   6.678   4.550 -2.0550 -0.0362 -3.0672
   49MOL   H22418560   4.515   6.750   4.803 -0.2336  0.2463  0.3172
   49MOL   H22518561   4.400   6.618   4.802 -0.4467  1.7792  0.6360
   49MOL   H22618562   4.579   6.580   4.798  0.9184 -0.1279 -1.5058
   49MOL   H22718563   4.483   6.473   4.447 -2.8781 -1.6798 -0.3036
   49MOL   H22818564   4.355   6.463   4.558  0.2745 -1.1672 -1.3640
   49MOL   H22918565   4.518   6.420   4.598  1.4811 -0.7784 -2.5790
   49MOL   C23018566   4.225   6.912   4.374 -0.3172 -0.7584  0.2569
   49MOL   C23118567   4.088   6.967   4.411 -0.4421  0.0028 -0.5112
   49MOL   O23218568   4.074   6.948   4.558 -0.0067 -0.4471  0.0768
   49MOL   C23318569   3.939   6.903   4.580 -0.9275 -0.1678 -0.5960
   49MOL   C23418570   3.922   6.876   4.726  0.1443  0.3369  1.4100
   49MOL   C23518571   4.042   6.779   4.764 -0.0765  0.0332 -0.0783
   49MOL   C23618572   3.914   7.007   4.815  0.7804  0.5640  0.2831
   49MOL   H23718573   4.260   6.942   4.275  1.1490 -0.5655  0.8190
   49MOL   H23818574   4.297   6.956   4.443 -1.1070  0.9453  0.0290
   49MOL   H23918575   4.008   6.913   4.361  0.0945  1.2263 -2.7317
   49MOL   H24018576   3.860   6.969   4.544 -0.6769  1.4855  1.8222
   49MOL   H24118577   3.934   6.807   4.527  0.4011 -1.7974  2.1284
   49MOL   H24218578   3.830   6.819   4.738  0.5158 -0.6348 -0.2490
   49MOL   H24318579   4.138   6.829   4.751  0.4296 -0.4194  1.7545
   49MOL   H24418580   4.027   6.683   4.714 -2.7581 -1.0090  2.5636
   49MOL   H24518581   4.031   6.758   4.870  1.3523  1.6693  0.4165
   49MOL   H24618582   4.009   7.059   4.799  1.1851 -0.9746 -2.5209
   49MOL   H24718583   3.829   7.068   4.786  0.1963 -0.5657 -0.3805
   49MOL   H24818584   3.901   6.990   4.922  0.4557  0.0294  0.1572
   49MOL   C24918585   4.084   7.118   4.388 -0.6606  0.3393  0.5554
   49MOL   C25018586   4.070   7.154   4.240  0.1880 -0.4954  0.3502
   49MOL   O25118587   3.950   7.091   4.199  0.3977 -0.3798  0.5750
   49MOL   C25218588   3.951   7.037   4.062 -0.8861  0.1081 -0.0437
   49MOL   C25318589   3.818   6.957   4.032  0.9410  0.0008  0.1656
   49MOL   C25418590   3.698   7.051   4.023  0.0031  0.3383  0.0210
   49MOL   C25518591   3.796   6.852   4.142 -0.6890 -0.3864 -0.2112
   49MOL   H25618592   4.171   7.174   4.421  1.1115 -0.7213 -2.0703
   49MOL   H25718593   4.005   7.168   4.443 -2.5889  0.1339 -1.9351
   49MOL   H25818594   4.160   7.117   4.191  0.4706  0.0742  0.4318
   49MOL   H25918595   3.959   7.114   3.986  1.9252 -1.4811 -1.4172
   49MOL   H26018596   4.039   6.975   4.049  0.6505  2.1949  0.1667
   49MOL   H26118597   3.831   6.893   3.944 -2.2059  0.4992 -0.7228
   49MOL   H26218598   3.674   7.091   3.925  0.0273 -1.8052 -0.8782
   49MOL   H26318599   3.711   7.123   4.104 -2.2992 -1.1778  1.7994
   49MOL   H26418600   3.604   7.005   4.055  0.1718 -1.6356 -2.1785
   49MOL   H26518601   3.884   6.787   4.142 -0.3138  0.1078  0.4382
   49MOL   H26618602   3.773   6.899   4.237  1.7473  0.5467 -0.0257
   49MOL   H26718603   3.710   6.789   4.119  0.3621 -2.8185  2.2377
   49MOL   C26818604   4.073   7.314   4.216 -0.1503 -0.1031  0.5963
   49MOL   C26918605   4.080   7.363   4.073 -0.0449 -0.0073 -0.3569
   49MOL   O27018606   4.209   7.345   4.027  0.3284  0.9959 -0.2941
   49MOL   C27118607   4.218   7.279   3.899 -0.3005  0.5362 -0.3383
   49MOL   C27218608   4.361   7.306   3.851 -0.1140  0.1003  0.7718
   49MOL   C27318609   4.464   7.226   3.922 -0.0027  0.2700  0.1776
   49MOL   C27418610   4.375   7.263   3.700  0.5512 -0.0807 -0.8516
   49MOL   H27518611   4.157   7.367   4.260 -0.5280  0.1397  1.0214
   49MOL   H27618612   3.975   7.352   4.246 -0.9984 -0.4260 -1.6823
   49MOL   H27718613   3.998   7.319   4.016 -0.1468  0.1885 -0.3608
   49MOL   H27818614   4.196   7.174   3.915  0.7212  0.3195 -0.3167
   49MOL   H27918615   4.135   7.307   3.835  0.1620  0.6359 -0.9025
   49MOL   H28018616   4.384   7.412   3.842 -2.6310  0.5775 -0.2200
   49MOL   H28118617   4.429   7.122   3.925 -0.1047  0.3507  2.8794
   49MOL   H28218618   4.472   7.254   4.027  2.4072  0.5116 -0.0572
   49MOL   H28318619   4.569   7.229   3.893  0.0492 -1.5074  0.1076
   49MOL   H28418620   4.472   7.296   3.662  0.1523  2.0729 -0.0841
   49MOL   H28518621   4.294   7.299   3.637  0.9019 -0.7918 -1.7123
   49MOL   H28618622   4.383   7.155   3.694 -0.8611 -0.6459  4.9730
   49MOL   C28718623   4.052   7.513   4.062  0.5349 -0.5757 -0.7917
   49MOL   C28818624   4.154   7.614   4.123 -0.2245 -0.3152 -0.4976
   49MOL   O28918625   4.114   7.612   4.261  0.5678  0.6321  0.2711
   49MOL   C29018626   4.216   7.625   4.359  0.8091  0.1336 -0.1448
   49MOL   C29118627   4.156   7.607   4.498 -0.2847  0.3772 -0.6913
   49MOL   C29218628   4.080   7.478   4.528 -0.3497 -0.1862  0.2687
   49MOL   C29318629   4.074   7.731   4.534  0.1045  0.7462 -0.4081
   49MOL   H29418630   3.951   7.534   4.097  0.6588 -0.4956 -0.4830
   49MOL   H29518631   4.034   7.525   3.955 -4.5050  1.7158  0.1440
   49MOL   H29618632   4.256   7.576   4.110 -0.5033 -0.6015 -1.9528
   49MOL   H29718633   4.293   7.548   4.360 -0.1376 -0.8130  0.5359
   49MOL   H29818634   4.272   7.718   4.342 -1.3320  1.5234  0.1921
   49MOL   H29918635   4.234   7.605   4.574 -1.7571 -2.6621  0.8324
   49MOL   H30018636   4.152   7.398   4.512 -1.0503 -0.9272  0.8450
   49MOL   H30118637   3.992   7.449   4.471 -0.2125  1.5965 -0.9071
   49MOL   H30218638   4.057   7.472   4.634  1.3088  2.4327  0.8240
   49MOL   H30318639   3.986   7.739   4.469 -0.5578 -1.3552  0.1690
   49MOL   H30418640   4.041   7.720   4.638  2.6041 -2.1966  0.1467
   49MOL   H30518641   4.138   7.819   4.535  0.5229  0.4698 -1.8977
   49MOL   C30618642   4.134   7.756   4.063 -0.1749 -0.2807  0.2452
   49MOL   C30718643   4.181   7.776   3.918 -0.0993  0.0152 -0.6299
   49MOL   O30818644   4.081   7.739   3.831  0.0898  0.6456 -0.5046
   49MOL   C30918645   4.114   7.688   3.701  0.2390 -0.4326  0.3761
   49MOL   C31018646   3.990   7.617   3.632 -0.2529 -0.0875 -0.2065
   49MOL   C31118647   4.025   7.585   3.495  0.5199  0.2224  0.9774
   49MOL   C31218648   3.866   7.711   3.635 -0.2157  0.0938 -0.6508
   49MOL   H31318649   4.177   0.003   4.133  0.9310 -2.2797  1.6623
   49MOL   H31418650   4.029   7.786   4.060 -0.1228 -0.2285 -1.7303
   49MOL   H31518651   4.265   7.708   3.907 -0.3461 -0.3341 -0.3803
   49MOL   H31618652   4.194   7.614   3.703  0.1386 -0.6535 -1.9638
   49MOL   H31718653   4.130   7.767   3.628 -0.4917 -1.5363 -1.0064
   49MOL   H31818654   3.967   7.522   3.681 -0.4625  0.4461  0.7449
   49MOL   H31918655   4.119   7.531   3.483 -0.1237 -0.4178 -1.5350
   49MOL   H32018656   4.033   7.675   3.433 -1.8747 -1.2034 -1.5350
   49MOL   H32118657   3.953   7.523   3.442  1.9750  1.2099 -2.3433
   49MOL   H32218658   3.835   7.740   3.735  0.2457 -0.9164 -0.2088
   49MOL   H32318659   3.792   7.656   3.576 -0.6583 -0.4560  0.4071
   49MOL   H32418660   3.873   7.809   3.587 -1.7066 -0.7884 -2.7835
   49MOL   C32518661   4.218   0.099   3.886  0.2639 -0.1649  0.0244
   49MOL   C32618662   4.342   0.152   3.958  0.2585 -0.1526  0.0520
   49MOL   O32718663   4.445   0.064   3.921  0.1473  0.4570 -0.1922
   49MOL   C32818664   4.533   0.025   4.031 -0.8774 -0.5500 -0.0328
   49MOL   C32918665   4.624   7.729   3.982  0.3390 -0.1919 -0.3331
   49MOL   C33018666   4.735   7.691   4.088 -0.0848 -0.2161  0.7507
   49MOL   C33118667   4.543   7.605   3.943  0.0868 -0.2255  0.0316
   49MOL   H33218668   4.130   0.155   3.918  1.5634  1.7550  0.3546
   49MOL   H33318669   4.242   0.110   3.780  3.4467 -0.5547  0.6479
   49MOL   H33418670   4.318   0.154   4.064 -1.3170  0.3529 -0.3022
   49MOL   H33518671   4.597   0.107   4.064 -0.9129 -0.6252  0.2222
   49MOL   H33618672   4.470   0.000   4.116 -2.6651 -1.5483 -1.5911
   49MOL   H33718673   4.678   7.766   3.894 -0.0850 -1.2332 -1.0400
   49MOL   H33818674   4.811   7.636   4.033  1.9845  2.4298  0.8316
   49MOL   H33918675   4.782   7.779   4.132  1.6695 -0.7122 -0.0659
   49MOL   H34018676   4.699   7.623   4.165  1.5776 -1.5880  0.3536
   49MOL   H34118677   4.472   7.628   3.864 -0.3276  0.6644  0.6588
   49MOL   H34218678   4.595   7.518   3.903 -0.3317  0.7752 -2.7674
   49MOL   H34318679   4.486   7.576   4.031  1.1994 -0.3612  0.7200
   49MOL   C34418680   4.369   0.296   3.905 -0.1514 -0.1095  0.4438
   49MOL   C34518681   4.508   0.351   3.956 -0.1339  0.2883 -0.1516
   49MOL   O34618682   4.531   0.468   3.877 -0.1501  0.1371 -0.9060
   49MOL   C34718683   4.608   0.446   3.759 -0.1838 -0.0386  0.7143
   49MOL   C34818684   4.626   0.574   3.672  0.3756 -0.1763  0.6231
   49MOL   C34918685   4.656   0.690   3.759  0.2079 -0.0529  0.1443
   49MOL   C35018686   4.505   0.588   3.586 -0.5676 -0.2856 -0.2044
   49MOL   H35118687   4.290   0.362   3.939 -1.1601 -1.0130 -0.1215
   49MOL   H35218688   4.378   0.303   3.796 -1.7722  3.1712  0.4511
   49MOL   H35318689   4.588   0.279   3.940 -0.3516  0.1670 -0.6843
   49MOL   H35418690   4.567   0.366   3.697 -2.2054  1.5296 -0.0323
   49MOL   H35518691   4.703   0.420   3.805 -0.3278 -0.7669  0.6106
   49MOL   H35618692   4.703   0.571   3.595 -0.0854  1.0272  0.0934
   49MOL   H35718693   4.732   0.669   3.835  1.7147 -0.7897 -1.5464
   49MOL   H35818694   4.566   0.728   3.809 -0.0040  1.0132 -1.0137
   49MOL   H35918695   4.685   0.766   3.687 -1.5078 -1.1495 -1.7410
   49MOL   H36018696   4.415   0.598   3.646 -1.3414 -0.2920 -1.3412
   49MOL   H36118697   4.498   0.678   3.525  1.5456  0.6338  0.8658
   49MOL   H36218698   4.496   0.501   3.520  0.0302  0.3905 -1.2056
   49MOL   C36318699   4.504   0.410   4.102  0.4584 -0.4555  0.3523
   49MOL   C36418700   4.643   0.432   4.155 -0.6454 -0.1418 -0.1478
   49MOL   O36518701   4.714   0.312   4.180 -0.2539 -0.0500 -0.3111
   49MOL   C36618702   4.840   0.336   4.235 -0.6539  0.3009  0.3080
   49MOL   C36718703   4.885   0.216   4.309 -0.1823  0.4722 -0.6196
   49MOL   C36818704   4.788   0.189   4.428  0.4054  0.0486  0.9036
   49MOL   C36918705   5.043   0.236   4.338 -0.1996 -0.0486 -0.6606
   49MOL   H37018706   4.448   0.503   4.095 -1.1164 -1.3907  0.3352
   49MOL   H37118707   4.463   0.336   4.171 -1.0043 -0.4759 -0.5109
   49MOL   H37218708   4.633   0.491   4.246 -0.4961 -0.6735  0.2157
   49MOL   H37318709   4.910   0.377   4.162 -1.3179  0.0007 -0.5096
   49MOL   H37418710   4.839   0.421   4.304  2.3830  1.1101 -0.5559
   49MOL   H37518711   4.886   0.130   4.243 -1.0836 -2.1885  2.6512
   49MOL   H37618712   4.792   0.280   4.488  1.6524  1.0256 -0.6039
   49MOL   H37718713   4.825   0.102   4.481 -1.8787 -1.7482 -0.3329
   49MOL   H37818714   4.685   0.178   4.394  0.5630 -1.7092  0.9709
   49MOL   H37918715   5.069   0.139   4.379 -1.6810 -0.6085 -0.9997
   49MOL   H38018716   5.083   0.313   4.404  1.6944 -1.3959 -0.1939
   49MOL   H38118717   5.100   0.235   4.245 -0.0379 -2.8717 -0.5743
   49MOL   H38218718   4.685   0.491   4.074  0.0493 -1.3095 -0.6425
   50MOL     C118719   7.035   4.524   0.050  0.1834  0.2466 -0.3480
   50MOL     C218720   7.179   4.538   0.002  0.3871  0.0719  0.1426
   50MOL     O318721   7.234   4.600   0.118 -0.1153 -0.0069  0.0542
   50MOL     C418722   7.309   4.713   0.084  1.1662 -0.4920 -0.0728
   50MOL     C518723   7.346   4.794   0.213 -0.6149  0.4115 -0.6039
   50MOL     C618724   7.217   4.844   0.279 -0.5357 -0.5604 -0.7639
   50MOL     C718725   7.441   4.912   0.178 -0.2488  0.2336 -0.4471
   50MOL     H818726   6.982   4.469   7.797  0.2328 -1.2879  0.6805
   50MOL     H918727   7.016   4.465   0.139 -1.3415  1.6207  0.2686
   50MOL    H1018728   7.202   4.604   7.743 -0.8523  0.0526 -0.2188
   50MOL    H1118729   7.255   4.786   0.024  1.9821  0.5844  0.4793
   50MOL    H1218730   7.402   4.695   0.030  2.9523  3.3994  1.4768
   50MOL    H1318731   7.384   4.718   0.281  1.1986  0.4552 -1.5393
   50MOL    H1418732   7.246   4.907   0.364  1.5310 -0.2828 -1.6524
   50MOL    H1518733   7.157   4.911   0.217  0.2745  1.8129  0.9344
   50MOL    H1618734   7.157   4.758   0.309 -0.8406 -0.8048 -2.0741
   50MOL    H1718735   7.544   4.891   0.148 -0.1068  0.9331 -0.4548
   50MOL    H1818736   7.396   4.964   0.094 -0.1091  0.8400 -0.1456
   50MOL    H1918737   7.455   4.973   0.268  2.0514 -0.7893 -0.0621
   50MOL    H2018738   6.989   4.622   0.067 -1.0225 -0.6615  1.7721
   50MOL    C2118739   7.256   4.416   7.798  0.2868  0.7049 -0.0881
   50MOL    C2218740   7.198   4.333   7.683 -0.3263 -0.1015 -0.3478
   50MOL    O2318741   7.090   4.258   7.725  0.7047  0.0831 -0.5328
   50MOL    C2418742   7.104   4.112   7.740 -0.3256 -0.5114  0.4888
   50MOL    C2518743   6.972   4.060   7.795  0.0368  0.2416  0.3599
   50MOL    C2618744   6.936   4.126   0.112  0.4362 -0.7385  0.5007
   50MOL    C2718745   6.861   4.090   7.689  0.5775  0.2771 -0.3853
   50MOL    H2818746   7.362   4.431   7.779  0.2363  1.3358  0.1377
   50MOL    H2918747   7.258   4.351   0.062  0.6483  0.5903 -0.1808
   50MOL    H3018748   7.263   4.248   7.665 -0.5555 -0.4082  0.2582
   50MOL    H3118749   7.180   4.103   7.818 -0.4920  0.9529  0.8369
   50MOL    H3218750   7.120   4.065   7.644 -0.6610  0.7075 -0.1770
   50MOL    H3318751   6.973   3.952   7.809  0.0595  0.2902  0.7169
   50MOL    H3418752   6.918   4.232   0.099 -1.3133 -0.9860  0.8331
   50MOL    H3518753   7.011   4.117   0.190  3.0398  1.7835 -1.6329
   50MOL    H3618754   6.844   4.078   0.146  0.9021 -0.9974  1.4260
   50MOL    H3718755   6.833   4.196   7.686 -1.4187 -0.1090  2.2844
   50MOL    H3818756   6.906   4.057   7.596  0.2234 -3.9296  0.8237
   50MOL    H3918757   6.768   4.033   7.700  0.1886  0.9746  0.0259
   50MOL    C4018758   7.165   4.409   7.556  0.3293  0.0101 -0.2904
   50MOL    C4118759   7.144   4.323   7.433  0.8858  0.4206 -0.4735
   50MOL    O4218760   7.255   4.249   7.396  0.2366 -0.2772  0.1679
   50MOL    C4318761   7.223   4.129   7.317 -0.0617  0.2855 -0.2388
   50MOL    C4418762   7.359   4.071   7.262 -0.3425  0.3900  0.1078
   50MOL    C4518763   7.433   3.993   7.373 -0.0575  0.1409 -0.2394
   50MOL    C4618764   7.332   3.977   7.142 -0.0463 -0.3682 -0.2975
   50MOL    H4718765   7.243   4.484   7.545  1.5404 -1.1899 -0.1014
   50MOL    H4818766   7.073   4.462   7.578  1.2864  1.8042 -0.5315
   50MOL    H4918767   7.071   4.250   7.467  1.2354  0.3273  0.0687
   50MOL    H5018768   7.169   4.160   7.227  0.4957 -0.2095 -0.7450
   50MOL    H5118769   7.169   4.053   7.372  0.9756  0.8953  1.6867
   50MOL    H5218770   7.419   4.160   7.241 -1.3287  0.6442 -1.7152
   50MOL    H5318771   7.535   3.971   7.341  0.1105 -0.0291  0.4212
   50MOL    H5418772   7.432   4.044   7.469  1.7501  0.3997 -0.3589
   50MOL    H5518773   7.381   3.899   7.394 -0.9192  0.7557  0.4184
   50MOL    H5618774   7.254   3.908   7.175 -0.2695 -0.5629 -1.2368
   50MOL    H5718775   7.414   3.910   7.114 -0.0387 -1.1191  1.4673
   50MOL    H5818776   7.315   4.031   7.049  1.2733  1.3945  0.4537
   50MOL    C5918777   7.065   4.405   7.314 -0.2758  0.0784  0.2994
   50MOL    C6018778   6.915   4.420   7.320  0.1203  0.5297 -0.6490
   50MOL    O6118779   6.851   4.297   7.300  0.1851 -0.2067 -0.4397
   50MOL    C6218780   6.719   4.285   7.348 -0.1828  0.7463 -0.0052
   50MOL    C6318781   6.654   4.169   7.273 -0.0752  0.7439  0.5758
   50MOL    C6418782   6.711   4.029   7.316  0.4731 -0.2580 -0.0852
   50MOL    C6518783   6.500   4.178   7.281 -0.4676  0.7823  0.1515
   50MOL    H6618784   7.088   4.360   7.217  1.8230  1.5737  0.0756
   50MOL    H6718785   7.120   4.499   7.311  0.5877 -0.4206  0.3279
   50MOL    H6818786   6.885   4.464   7.415 -0.8297  0.1540 -0.7691
   50MOL    H6918787   6.731   4.258   7.453  0.8030 -0.3258 -0.3860
   50MOL    H7018788   6.657   4.373   7.336 -1.4564 -0.1597 -0.1185
   50MOL    H7118789   6.683   4.180   7.169 -0.2884 -0.9531  0.3142
   50MOL    H7218790   6.678   4.006   7.417  2.1234 -0.3752  0.4279
   50MOL    H7318791   6.819   4.026   7.327  0.6268 -1.0405 -1.6103
   50MOL    H7418792   6.697   3.938   7.258 -3.1224  1.7572 -2.6207
   50MOL    H7518793   6.453   4.101   7.221 -0.4099 -0.6464  1.8934
   50MOL    H7618794   6.462   4.162   7.382 -0.0590 -0.7201  0.0817
   50MOL    H7718795   6.462   4.269   7.235 -0.3682  0.0552 -1.4082
   50MOL    C7818796   6.879   4.506   7.197 -0.0777 -0.6907  0.7274
   50MOL    C7918797   6.867   4.663   7.216  0.0276  0.3742  0.0320
   50MOL    O8018798   6.859   4.718   7.091  0.3169  0.3170 -0.3741
   50MOL    C8118799   6.982   4.783   7.048 -0.6447  0.0284 -0.7232
   50MOL    C8218800   6.977   4.810   6.901 -0.0505 -0.4096  0.5222
   50MOL    C8318801   7.004   4.675   6.827  0.1527 -0.0608  0.1093
   50MOL    C8418802   7.070   4.923   6.858  0.7427  0.1111 -0.4936
   50MOL    H8518803   6.788   4.464   7.156  0.2787 -0.6490 -0.1058
   50MOL    H8618804   6.938   4.480   7.109  1.5971  0.0901  1.5866
   50MOL    H8718805   6.948   4.701   7.279  0.2025 -0.1314  0.1137
   50MOL    H8818806   6.994   4.876   7.103  0.6581  0.1679 -1.2210
   50MOL    H8918807   7.067   4.720   7.074 -0.8811  0.2951  0.7511
   50MOL    H9018808   6.879   4.848   6.872 -0.7361 -2.0810  0.5640
   50MOL    H9118809   7.103   4.635   6.849  0.3735  0.9052  0.8677
   50MOL    H9218810   7.003   4.691   6.719 -3.3355  1.1426  0.2467
   50MOL    H9318811   6.925   4.605   6.856  1.3175 -0.2394  2.9813
   50MOL    H9418812   7.023   5.015   6.891  0.8581 -0.5127  1.4695
   50MOL    H9518813   7.075   4.927   6.749 -3.0794 -0.8495 -0.7603
   50MOL    H9618814   7.162   4.907   6.914  1.0834  2.4432 -0.3169
   50MOL    C9718815   6.740   4.709   7.291 -0.0198 -0.2564  0.3451
   50MOL    C9818816   6.753   4.862   7.343 -0.0530 -0.5058  0.1229
   50MOL    O9918817   6.846   4.854   7.452 -0.2860  0.1812  0.2064
   50MOL   C10018818   6.894   4.980   7.499 -0.6566  0.0160  0.6256
   50MOL   C10118819   7.004   4.958   7.602 -0.8540 -0.3843  0.1314
   50MOL   C10218820   6.940   4.927   7.739  0.2105  0.5964  0.0802
   50MOL   C10318821   7.109   4.857   7.552  0.4385 -0.9973 -0.2455
   50MOL   H10418822   6.717   4.654   7.382 -1.2853 -0.7619 -0.2720
   50MOL   H10518823   6.655   4.689   7.226  0.7823 -1.6621 -0.2859
   50MOL   H10618824   6.784   4.930   7.263 -2.3842  0.3679 -0.0558
   50MOL   H10718825   6.814   5.042   7.540  0.2229  2.3453 -1.0948
   50MOL   H10818826   6.926   5.027   7.406  0.0911  0.6334  1.1908
   50MOL   H10918827   7.064   5.049   7.607 -1.0313 -0.2698  0.1835
   50MOL   H11018828   6.877   5.013   7.760  0.1573  0.5854 -0.0326
   50MOL   H11118829   6.880   4.836   7.744 -1.2242  1.4418 -1.3268
   50MOL   H11218830   7.015   4.904   7.814 -0.3785  3.1679  1.5224
   50MOL   H11318831   7.053   4.767   7.527 -1.4679 -0.5862  2.3400
   50MOL   H11418832   7.154   4.885   7.456  1.4399  2.5255  1.1723
   50MOL   H11518833   7.188   4.831   7.622  1.0031  1.9147  0.2806
   50MOL   C11618834   6.627   4.918   7.417  0.7501  0.1202  0.0523
   50MOL   C11718835   6.488   4.914   7.348  0.4668 -0.0162 -0.0170
   50MOL   O11818836   6.520   4.891   7.207  0.1975 -0.1601  0.0777
   50MOL   C11918837   6.417   4.927   7.117  0.3952  0.2409 -0.3035
   50MOL   C12018838   6.478   4.912   6.974 -0.7517 -0.6836  0.7910
   50MOL   C12118839   6.379   4.939   6.861 -0.5967  0.3811 -0.7244
   50MOL   C12218840   6.600   5.002   6.962  0.2410 -0.7516  0.1192
   50MOL   H12318841   6.617   4.885   7.520 -0.6347  0.2270 -0.0317
   50MOL   H12418842   6.645   5.025   7.430  0.2696  0.0611  1.2315
   50MOL   H12518843   6.450   5.014   7.367  1.9043  1.0792 -2.6491
   50MOL   H12618844   6.387   5.030   7.133  0.8812  0.1531  1.2259
   50MOL   H12718845   6.332   4.859   7.111  0.9056 -0.2873 -1.9259
   50MOL   H12818846   6.511   4.809   6.969  0.0948 -0.4686  1.7586
   50MOL   H12918847   6.298   4.867   6.868 -0.2569 -0.0762 -1.5236
   50MOL   H13018848   6.426   4.925   6.764 -0.7508 -0.5544 -0.6625
   50MOL   H13118849   6.356   5.045   6.853  2.5008  1.0464 -1.5994
   50MOL   H13218850   6.651   4.983   6.867  0.0736  1.1936 -0.3692
   50MOL   H13318851   6.576   5.107   6.976  1.1879 -0.6395  0.9313
   50MOL   H13418852   6.681   4.979   7.031  0.6794 -1.3896 -0.6039
   50MOL   C13518853   6.393   4.797   7.393  0.7060  0.5678  0.0583
   50MOL   C13618854   6.337   4.798   7.533  0.5584  0.1515 -0.4464
   50MOL   O13718855   6.279   4.923   7.541  0.2311  0.2055 -0.1614
   50MOL   C13818856   6.314   4.990   7.665  0.1569  0.2984  0.6137
   50MOL   C13918857   6.198   5.095   7.681  0.7234  0.7845 -1.1597
   50MOL   C14018858   6.192   5.202   7.572 -0.3600 -0.3151 -0.3967
   50MOL   C14118859   6.060   5.032   7.716 -0.2217  0.2997  0.2598
   50MOL   H14218860   6.311   4.778   7.323  0.9336  1.4733 -0.4632
   50MOL   H14318861   6.450   4.704   7.388 -1.5243 -0.8629  0.4873
   50MOL   H14418862   6.424   4.778   7.596  1.4129 -0.2409 -1.7151
   50MOL   H14518863   6.412   5.036   7.657 -0.0049  0.7013  0.9305
   50MOL   H14618864   6.308   4.929   7.756 -0.5121 -1.7620 -0.7639
   50MOL   H14718865   6.229   5.159   7.764 -0.7368  1.3619 -1.0432
   50MOL   H14818866   6.117   5.276   7.602 -1.7515 -1.0059 -2.0879
   50MOL   H14918867   6.173   5.158   7.474  1.0407  0.7118 -1.1454
   50MOL   H15018868   6.294   5.238   7.558 -1.1405  2.3248  0.3035
   50MOL   H15118869   6.036   4.950   7.648  0.0083 -0.1645  0.7339
   50MOL   H15218870   6.056   4.983   7.813  2.1244 -2.0343 -0.7269
   50MOL   H15318871   5.986   5.106   7.688  1.7095  1.8496 -0.9057
   50MOL   C15418872   6.227   4.694   7.551 -0.3329 -0.2681 -0.1752
   50MOL   C15518873   6.278   4.548   7.545 -0.2290 -0.5813  0.8998
   50MOL   O15618874   6.379   4.526   7.635 -0.5709  0.7214 -0.1313
   50MOL   C15718875   6.447   4.396   7.622 -0.3776 -0.4713  0.1420
   50MOL   C15818876   6.570   4.405   7.714 -0.8547 -1.1709  0.2036
   50MOL   C15918877   6.668   4.524   7.667 -0.1894  0.3212  0.3986
   50MOL   C16018878   6.522   4.427   0.035 -0.6868 -0.3122 -0.0650
   50MOL   H16118879   6.155   4.709   7.470 -1.6728 -0.8550  0.8785
   50MOL   H16218880   6.173   4.702   7.645  1.3450  0.4504  0.7319
   50MOL   H16318881   6.316   4.533   7.444  1.0844 -1.0744  1.4504
   50MOL   H16418882   6.487   4.377   7.523  0.7271 -0.6408  0.6192
   50MOL   H16518883   6.381   4.311   7.640 -2.3598  1.5358  2.8282
   50MOL   H16618884   6.634   4.316   7.713  1.5595  0.5092  0.6943
   50MOL   H16718885   6.632   4.625   7.686 -0.9945 -0.3065  2.2648
   50MOL   H16818886   6.713   4.510   7.568 -2.5801 -0.5393 -0.6145
   50MOL   H16918887   6.752   4.529   7.736 -0.6227 -0.0227  0.9546
   50MOL   H17018888   6.465   4.518   0.055  0.5522  0.5200 -0.2281
   50MOL   H17118889   6.453   4.351   0.071  2.5468 -2.9226  0.8463
   50MOL   H17218890   6.612   4.425   0.096 -1.2897  0.2952  0.8503
   50MOL   C17318891   6.161   4.451   7.563 -0.3127 -0.2202  1.0053
   50MOL   C17418892   6.047   4.456   7.467  0.3953  0.3936 -0.5627
   50MOL   O17518893   6.114   4.425   7.342  0.0018 -0.4967 -0.1091
   50MOL   C17618894   6.028   4.440   7.223 -0.4440  0.6379  0.2472
   50MOL   C17718895   6.124   4.418   7.109 -0.1845 -0.8915 -0.1353
   50MOL   C17818896   6.245   4.508   7.114 -0.2206  0.2928  0.2313
   50MOL   C17918897   6.164   4.269   7.101 -1.0160  0.8106  0.0933
   50MOL   H18018898   6.198   4.350   7.550  0.5370  0.3344 -1.1414
   50MOL   H18118899   6.120   4.475   7.661 -0.0696 -0.0012  1.0543
   50MOL   H18218900   6.002   4.555   7.455 -2.5519 -1.0079 -1.5262
   50MOL   H18318901   5.989   4.541   7.217 -2.5574 -0.1751  0.1489
   50MOL   H18418902   5.946   4.369   7.228 -1.1918  1.4355 -0.4972
   50MOL   H18518903   6.068   4.438   7.017 -0.7159 -1.0774  0.1455
   50MOL   H18618904   6.219   4.613   7.132  1.4074  0.8225 -0.3844
   50MOL   H18718905   6.323   4.479   7.184  0.0458  1.5529  0.4650
   50MOL   H18818906   6.292   4.493   7.016 -2.4269  1.6430 -1.0965
   50MOL   H18918907   6.076   4.206   7.096  0.3701 -1.0487 -1.7291
   50MOL   H19018908   6.223   4.237   7.187  0.1415  0.0207 -0.9722
   50MOL   H19118909   6.216   4.246   7.008  2.2740 -0.8598  2.2641
   50MOL   C19218910   5.945   4.346   7.505  0.2846  0.3051 -0.1264
   50MOL   C19318911   5.803   4.392   7.478  0.2651 -0.2855 -0.0543
   50MOL   O19418912   5.769   4.480   7.593  0.0461 -0.4694 -0.1454
   50MOL   C19518913   5.712   4.602   7.548 -0.3953 -0.5201 -0.8879
   50MOL   C19618914   5.704   4.699   7.670  0.1450  0.2492 -0.4351
   50MOL   C19718915   5.845   4.743   7.703 -0.0436 -0.0454  0.0163
   50MOL   C19818916   5.624   4.635   7.792 -0.5801 -0.2189  0.1078
   50MOL   H19918917   5.941   4.316   7.610  0.0384 -3.0960 -1.0528
   50MOL   H20018918   5.954   4.248   7.460  1.3327  0.3026  0.0857
   50MOL   H20118919   5.799   4.439   7.380 -2.5353  1.1508  0.7035
   50MOL   H20218920   5.604   4.594   7.536 -0.4901 -0.4261 -0.1396
   50MOL   H20318921   5.760   4.649   7.463  0.3040  1.8676  0.7608
   50MOL   H20418922   5.636   4.783   7.653  0.0005  0.4719  1.1362
   50MOL   H20518923   5.891   4.803   7.625 -0.1809  2.2184  1.6292
   50MOL   H20618924   5.847   4.806   7.792 -2.5321 -1.6238  1.2656
   50MOL   H20718925   5.908   4.655   7.709 -2.1267 -1.7008 -1.4388
   50MOL   H20818926   5.678   4.551   0.011  0.2384  0.7912  1.0718
   50MOL   H20918927   5.612   4.703   0.052 -0.2597 -1.7929  1.4427
   50MOL   H21018928   5.527   4.592   7.766  0.3403 -2.8719  0.8784
   50MOL   C21118929   5.698   4.276   7.470 -0.0749 -0.3049  0.3039
   50MOL   C21218930   5.562   4.325   7.422  1.3774  0.5178  0.6146
   50MOL   O21318931   5.584   4.396   7.297  0.0895 -0.4793  0.2408
   50MOL   C21418932   5.488   4.497   7.252 -0.0909 -0.4523 -0.8014
   50MOL   C21518933   5.552   4.587   7.142  0.4516  0.5265 -0.1875
   50MOL   C21618934   5.682   4.648   7.189 -0.4072  0.3423  0.0179
   50MOL   C21718935   5.576   4.493   7.020  0.4652 -0.0651  0.4537
   50MOL   H21818936   5.692   4.221   7.564  0.8562 -3.2187 -1.2937
   50MOL   H21918937   5.747   4.206   7.402  1.2490  2.7858 -2.0611
   50MOL   H22018938   5.527   4.390   7.502  1.9989 -1.7572  2.8023
   50MOL   H22118939   5.462   4.572   7.326  0.3205 -0.0708 -1.0391
   50MOL   H22218940   5.395   4.456   7.215  0.2897 -0.9658 -1.1892
   50MOL   H22318941   5.490   4.670   7.107 -1.4804 -0.4489  0.8664
   50MOL   H22418942   5.754   4.574   7.223  1.0167  1.9664  0.5886
   50MOL   H22518943   5.720   4.699   7.100 -0.6597  0.1160 -0.2234
   50MOL   H22618944   5.673   4.718   7.272  1.0237 -1.1746  1.4802
   50MOL   H22718945   5.648   4.414   7.041  0.2838 -0.0487  1.1533
   50MOL   H22818946   5.613   4.552   6.937 -1.3200 -0.9675 -1.0041
   50MOL   H22918947   5.480   4.450   6.992  1.1353 -0.1064 -1.8936
   50MOL   C23018948   5.470   4.204   7.401  0.2745  1.3234  0.3957
   50MOL   C23118949   5.430   4.136   7.532  0.4814  0.0031  0.0426
   50MOL   O23218950   5.343   4.228   7.602 -0.0629  0.3652 -0.2840
   50MOL   C23318951   5.322   4.206   7.743  0.8124  0.1829  0.1708
   50MOL   C23418952   5.170   4.188   7.776  1.0689 -0.4150  0.4585
   50MOL   C23518953   5.148   4.148   0.102 -0.0568  0.0287  0.1834
   50MOL   C23618954   5.111   4.324   7.754  1.0196 -0.4840 -0.2773
   50MOL   H23718955   5.518   4.123   7.346  0.8588  2.0778 -0.2191
   50MOL   H23818956   5.381   4.244   7.353 -1.2070  0.3047  2.2305
   50MOL   H23918957   5.519   4.115   7.591 -0.1358 -1.2492  0.5465
   50MOL   H24018958   5.372   4.116   7.781  0.1985 -0.4035 -0.3974
   50MOL   H24118959   5.361   4.292   7.796  2.5158  0.5134 -1.5407
   50MOL   H24218960   5.120   4.115   7.711 -0.5793  1.1814 -0.1147
   50MOL   H24318961   5.157   4.233   0.170 -0.7277  1.2049 -1.1593
   50MOL   H24418962   5.223   4.076   0.136  0.9551  1.4408  0.9863
   50MOL   H24518963   5.050   4.106   0.120 -0.5010  0.8181 -0.3494
   50MOL   H24618964   5.169   4.416   7.764 -1.9028  1.4107  0.1357
   50MOL   H24718965   5.080   4.328   7.650  1.1756  0.2837 -0.3020
   50MOL   H24818966   5.023   4.350   7.813  2.4610 -0.7973  2.0799
   50MOL   C24918967   5.351   4.005   7.499 -0.8135  0.1766  0.6256
   50MOL   C25018968   5.426   3.880   7.438  0.4833  0.0974  0.0014
   50MOL   O25118969   5.431   3.881   7.294 -0.3339 -0.0119 -0.2744
   50MOL   C25218970   5.311   3.824   7.240 -0.2954  0.3075  0.4950
   50MOL   C25318971   5.321   3.848   7.093 -0.0553 -0.7341 -0.0400
   50MOL   C25418972   5.350   3.988   7.046 -0.3496 -0.3409  0.0141
   50MOL   C25518973   5.219   3.763   7.021  0.1474  0.0149 -0.1138
   50MOL   H25618974   5.256   4.029   7.452 -1.3450 -3.1647 -0.1346
   50MOL   H25718975   5.311   3.968   7.594 -2.4032  0.1184 -0.0623
   50MOL   H25818976   5.363   3.796   7.467 -0.3346 -0.1498 -2.3743
   50MOL   H25918977   5.326   3.719   7.265  0.0859 -0.2576 -1.9677
   50MOL   H26018978   5.214   3.850   7.281 -1.9576 -1.9397 -1.8724
   50MOL   H26118979   5.416   3.804   7.063  0.3013 -0.5585  0.8045
   50MOL   H26218980   5.388   3.979   6.945 -0.8341 -0.3530 -0.1699
   50MOL   H26318981   5.431   4.019   7.112  0.4036  0.8686 -1.4609
   50MOL   H26418982   5.260   4.050   7.044 -0.2637 -0.2391 -3.3104
   50MOL   H26518983   5.120   3.788   7.059 -1.2018 -2.8271 -1.6583
   50MOL   H26618984   5.208   3.786   6.915 -0.3157  0.2079 -0.0240
   50MOL   H26718985   5.221   3.655   7.028 -0.7751 -0.0587 -0.8479
   50MOL   C26818986   5.566   3.866   7.497  0.4219  0.2413 -0.6345
   50MOL   C26918987   5.650   3.741   7.447  1.2457  0.1563 -0.1994
   50MOL   O27018988   5.583   3.625   7.484  0.4879  0.2106 -0.3521
   50MOL   C27118989   5.557   3.536   7.375 -0.2607 -0.3145  0.2309
   50MOL   C27218990   5.448   3.444   7.410 -0.7198  0.2026 -0.5842
   50MOL   C27318991   5.392   3.379   7.280  0.3150  0.1412  0.5962
   50MOL   C27418992   5.495   3.342   7.517  0.3947  0.6029 -0.4549
   50MOL   H27518993   5.554   3.862   7.605 -0.2633 -3.0566 -0.7948
   50MOL   H27618994   5.628   3.954   7.479  0.8848  0.0338 -0.0705
   50MOL   H27718995   5.658   3.754   7.339  2.5356  0.6437 -0.0536
   50MOL   H27818996   5.552   3.581   7.276 -0.8786  0.2040  0.4920
   50MOL   H27918997   5.654   3.488   7.362 -0.9692 -0.9879 -3.1478
   50MOL   H28018998   5.362   3.499   7.449 -0.2060  1.5881 -1.3902
   50MOL   H28118999   5.471   3.327   7.226 -0.0961  1.3470 -1.2223
   50MOL   H28219000   5.362   3.456   7.209 -0.4018 -0.8038 -0.1406
   50MOL   H28319001   5.314   3.309   7.309  0.6097 -0.8794 -0.9890
   50MOL   H28419002   5.418   3.269   7.540  0.4691  0.6565 -0.0190
   50MOL   H28519003   5.521   3.397   7.608 -1.5726 -0.6728  0.9171
   50MOL   H28619004   5.583   3.290   7.479 -0.1644 -0.9505  0.3522
   50MOL   C28719005   5.796   3.742   7.503  0.6346 -0.7513 -0.0494
   50MOL   C28819006   5.815   3.713   7.654  0.2781  0.1221  0.3887
   50MOL   O28919007   5.939   3.767   7.692 -0.6222 -0.2303  0.1950
   50MOL   C29019008   5.953   3.838   7.815  0.2809  0.0495 -0.3147
   50MOL   C29119009   6.071   3.940   7.807 -0.1230 -0.5576  0.5752
   50MOL   C29219010   6.141   3.967   0.114 -0.0580 -0.1921  0.0065
   50MOL   C29319011   6.026   4.062   7.726  0.0045 -0.1513  0.1299
   50MOL   H29419012   5.835   3.841   7.483 -2.0497  0.3875  0.0997
   50MOL   H29519013   5.864   3.671   7.456  0.9345 -0.5512  0.0842
   50MOL   H29619014   5.730   3.765   7.699  0.0569 -1.0649  1.3786
   50MOL   H29719015   5.864   3.901   7.815  0.3653  0.1616 -0.9874
   50MOL   H29819016   5.941   3.777   0.081 -1.7806 -0.8369 -1.1543
   50MOL   H29919017   6.148   3.885   7.753 -0.5286 -0.5127 -0.0459
   50MOL   H30019018   6.175   3.873   0.156 -0.1697 -0.1214  0.2525
   50MOL   H30119019   6.066   4.015   0.177  0.3296  1.1338 -0.5223
   50MOL   H30219020   6.229   4.031   0.104  0.3686 -0.5921  1.1250
   50MOL   H30319021   5.967   4.133   7.784 -2.0982 -1.2837 -0.5415
   50MOL   H30419022   6.114   4.120   7.699 -0.2742  0.1583 -0.1359
   50MOL   H30519023   5.970   4.052   7.632 -0.1762 -0.3739  0.2599
   50MOL   C30619024   5.821   3.559   7.697  0.1048 -0.7798  0.7145
   50MOL   C30719025   5.747   3.535   0.009  0.4626  0.4255  0.5316
   50MOL   O30819026   5.605   3.512   7.807 -0.2187  0.0090 -0.3966
   50MOL   C30919027   5.521   3.625   7.816  0.1966  0.3230 -0.0487
   50MOL   C31019028   5.378   3.563   7.816  0.3993 -0.2549 -0.4729
   50MOL   C31119029   5.269   3.674   7.795 -0.0931  0.3317  0.7239
   50MOL   C31219030   5.341   3.490   0.125 -0.7077  0.4603  0.0641
   50MOL   H31319031   5.925   3.529   7.696  0.1699 -0.5556  0.5830
   50MOL   H31419032   5.765   3.500   7.624  4.2669 -3.7336 -0.2786
   50MOL   H31519033   5.741   3.625   0.071  0.3402  0.8507 -0.0877
   50MOL   H31619034   5.534   3.689   7.729  0.9051 -1.7138 -1.4960
   50MOL   H31719035   5.541   3.669   0.089  2.3074 -0.2637 -0.1818
   50MOL   H31819036   5.354   3.496   7.734  0.2523  0.2305 -0.8295
   50MOL   H31919037   5.294   3.757   0.037 -1.4098  1.4547 -0.1580
   50MOL   H32019038   5.165   3.645   7.802 -0.5271  1.5254 -0.6597
   50MOL   H32119039   5.273   3.709   7.692 -1.6298  0.7310  0.8007
   50MOL   H32219040   5.356   3.535   0.223 -0.6550  0.5205  0.0283
   50MOL   H32319041   5.405   3.402   0.125 -0.5894  0.5429  1.0549
   50MOL   H32419042   5.236   3.459   0.128  0.1312 -2.9440 -1.9853
   50MOL   C32519043   5.809   3.416   0.074  0.2019 -0.2041 -0.3039
   50MOL   C32619044   5.942   3.443   0.149  0.4470 -0.8780  0.8566
   50MOL   O32719045   5.912   3.529   0.256 -0.2830 -0.3297  0.1887
   50MOL   C32819046   6.033   3.589   0.321 -0.0405  0.0028  0.7762
   50MOL   C32919047   5.988   3.676   0.439  0.0078 -0.2247  0.1503
   50MOL   C33019048   5.892   3.783   0.390  0.0073  0.0713  0.7090
   50MOL   C33119049   5.937   3.591   0.559 -0.6263  0.2252  0.4401
   50MOL   H33219050   5.803   3.330   0.006  0.9616 -0.7738  0.3419
   50MOL   H33319051   5.726   3.386   0.138 -3.0207  1.7782 -3.3792
   50MOL   H33419052   6.006   3.497   0.080 -1.4018  1.8382  1.1811
   50MOL   H33519053   6.099   3.515   0.366 -1.6641  0.2396  3.6636
   50MOL   H33619054   6.095   3.653   0.258 -0.3483  1.2855  1.7757
   50MOL   H33719055   6.074   3.720   0.490 -2.4709  2.8788  1.8373
   50MOL   H33819056   5.936   3.837   0.306 -0.5990 -1.4756 -0.6321
   50MOL   H33919057   5.800   3.743   0.348  0.3632 -0.0690  0.0534
   50MOL   H34019058   5.860   3.860   0.460 -1.0314  1.4844 -1.2652
   50MOL   H34119059   5.896   3.657   0.636  1.3024  3.1788 -0.9521
   50MOL   H34219060   5.864   3.519   0.524  1.1019 -0.1967 -2.4731
   50MOL   H34319061   6.023   3.533   0.593  0.3760  0.4048 -1.7103
   50MOL   C34419062   5.995   3.309   0.205 -0.3782 -0.1003 -0.2477
   50MOL   C34519063   6.050   3.218   0.098  0.3018  0.1617  0.4964
   50MOL   O34619064   6.134   3.289   0.004  0.6566  0.0434 -0.5700
   50MOL   C34719065   6.265   3.335   0.055  0.2778  0.4712  0.6126
   50MOL   C34819066   6.330   3.423   7.774 -0.2125 -0.0793 -0.0934
   50MOL   C34919067   6.244   3.547   7.733 -0.3699 -0.1258 -0.2433
   50MOL   C35019068   6.363   3.336   7.651 -0.4922  0.1101  0.4264
   50MOL   H35119069   5.908   3.249   0.232 -0.8889  0.7131 -0.0651
   50MOL   H35219070   6.058   3.318   0.293 -1.2380  2.0532  0.1775
   50MOL   H35319071   5.968   3.182   0.035  0.3083 -1.2494  1.2642
   50MOL   H35419072   6.330   3.253   0.087  1.3956  1.0631 -0.1198
   50MOL   H35519073   6.250   3.407   0.136 -3.3838  1.5258 -0.9038
   50MOL   H35619074   6.423   3.454   7.821  0.6790 -1.5122 -0.8554
   50MOL   H35719075   6.154   3.518   7.678 -0.1322  0.9726 -1.2101
   50MOL   H35819076   6.296   3.610   7.661 -0.9744 -0.4348 -0.9598
   50MOL   H35919077   6.216   3.594   0.002 -0.3231  0.1819 -0.3855
   50MOL   H36019078   6.413   3.391   7.571 -0.4998 -1.0052 -0.3526
   50MOL   H36119079   6.432   3.255   7.676  1.1152  1.3017 -0.0445
   50MOL   H36219080   6.272   3.294   7.609  0.1395 -0.9796  0.1196
   50MOL   C36319081   6.113   3.091   0.151  0.7003 -0.4314  0.1092
   50MOL   C36419082   6.150   2.992   0.037  0.1309  0.0155  0.3235
   50MOL   O36519083   6.213   2.884   0.102 -1.0216  0.6256 -0.3695
   50MOL   C36619084   6.261   2.794   0.005 -0.6619  0.6420  0.2062
   50MOL   C36719085   6.274   2.655   0.075 -0.0328 -0.2948  0.2298
   50MOL   C36819086   6.133   2.610   0.111  0.2234  0.3919 -0.1788
   50MOL   C36919087   6.358   2.650   0.205  0.2138  0.0801 -0.0042
   50MOL   H37019088   6.202   3.114   0.211  1.2699 -2.4070  0.0385
   50MOL   H37119089   6.047   3.041   0.222  1.6693 -0.5900  0.9093
   50MOL   H37219090   6.217   3.048   7.796  1.0164 -0.0449  1.1522
   50MOL   H37319091   6.199   2.776   7.741 -3.7925 -2.2533  2.8278
   50MOL   H37419092   6.363   2.827   7.809 -0.8707  1.8493  1.0862
   50MOL   H37519093   6.320   2.588   0.002  0.5949  1.2476 -0.8023
   50MOL   H37619094   6.098   2.544   0.031  0.2827 -0.5068  0.5267
   50MOL   H37719095   6.066   2.692   0.137 -1.3658 -1.5293  1.9710
   50MOL   H37819096   6.140   2.554   0.204 -2.9154 -3.5409 -2.1331
   50MOL   H37919097   6.318   2.719   0.280 -2.1052 -0.6384 -0.5411
   50MOL   H38019098   6.463   2.671   0.188  0.5898 -2.1988 -0.6834
   50MOL   H38119099   6.348   2.546   0.234 -0.5889  0.5584  1.4871
   50MOL   H38219100   6.066   2.956   7.803  2.0095 -1.2799 -1.6594
   51MOL     C119101   4.926   6.840   2.224  0.1613 -0.4852 -0.2566
   51MOL     C219102   4.919   6.987   2.273  0.2431 -0.2247  0.0233
   51MOL     O319103   4.785   7.006   2.311 -0.0752 -0.2986  0.6377
   51MOL     C419104   4.733   7.136   2.293 -0.0901  0.3058 -0.3205
   51MOL     C519105   4.629   7.129   2.187 -0.3484 -0.1121  0.1345
   51MOL     C619106   4.573   7.268   2.159 -0.5894  0.4890  0.2452
   51MOL     C719107   4.512   7.031   2.229  0.2123 -0.4405  0.2088
   51MOL     H819108   4.907   6.772   2.306  0.0273 -1.1198 -0.8117
   51MOL     H919109   4.844   6.824   2.154 -0.8037 -1.7660  1.1485
   51MOL    H1019110   4.940   7.050   2.186 -0.1402  0.2036  0.2425
   51MOL    H1119111   4.815   7.205   2.271  0.3494  0.2936  1.2437
   51MOL    H1219112   4.691   7.162   2.390 -0.6384 -2.7095  0.3133
   51MOL    H1319113   4.681   7.087   2.100 -0.0226 -1.7650  1.1117
   51MOL    H1419114   4.550   7.302   2.260 -0.4411  2.0153 -0.2225
   51MOL    H1519115   4.658   7.330   2.131 -1.9379  1.9222 -0.7333
   51MOL    H1619116   4.484   7.262   2.097 -1.1471  0.7415  1.0234
   51MOL    H1719117   4.431   7.083   2.280  0.7669 -0.2417  0.8993
   51MOL    H1819118   4.474   6.958   2.158  2.3933 -0.9816 -0.4199
   51MOL    H1919119   4.546   6.962   2.305  1.6279  1.8571  1.7376
   51MOL    H2019120   5.026   6.823   2.183  0.6304 -0.4042  0.8391
   51MOL    C2119121   5.012   7.037   2.390 -0.2281 -0.5438 -0.1429
   51MOL    C2219122   5.167   7.016   2.379  0.0819 -0.1617  0.3759
   51MOL    O2319123   5.219   7.083   2.259  0.4079  0.1012 -0.3264
   51MOL    C2419124   5.329   7.014   2.197  0.1433  0.3230 -0.3536
   51MOL    C2519125   5.399   7.104   2.106 -0.2379  0.7504 -0.2910
   51MOL    C2619126   5.495   7.192   2.190 -0.2990 -0.1069 -0.0476
   51MOL    C2719127   5.483   7.027   2.000 -0.4559 -1.0170 -0.4669
   51MOL    H2819128   4.998   7.145   2.405  1.0796 -0.6776  2.3556
   51MOL    H2919129   4.981   6.987   2.481  1.4323 -0.6432  0.3915
   51MOL    H3019130   5.204   6.914   2.372  0.0572 -0.1205 -0.3529
   51MOL    H3119131   5.294   6.924   2.147 -0.1417  0.5472 -0.5575
   51MOL    H3219132   5.397   6.975   2.273  0.1676  0.2939 -0.3900
   51MOL    H3319133   5.325   7.164   2.052  1.6665  1.0614 -2.6548
   51MOL    H3419134   5.546   7.267   2.129 -0.6045  0.3565  0.2719
   51MOL    H3519135   5.574   7.128   2.232  0.6955  0.4543 -1.0163
   51MOL    H3619136   5.447   7.243   2.273 -1.0894  1.2405 -1.3118
   51MOL    H3719137   5.560   6.970   2.052  1.5725  1.8622 -0.2201
   51MOL    H3819138   5.429   6.949   1.946  0.5225 -2.8736  1.1712
   51MOL    H3919139   5.525   7.094   1.924  1.6697  0.2785  1.7605
   51MOL    C4019140   5.236   7.092   2.502  0.2788 -0.4415 -0.2251
   51MOL    C4119141   5.279   7.010   2.619 -0.3080 -0.0054  0.0218
   51MOL    O4219142   5.154   6.977   2.685  0.6349  0.1625 -0.4064
   51MOL    C4319143   5.170   6.861   2.762 -0.0466 -0.7514  0.4676
   51MOL    C4419144   5.044   6.776   2.742  0.2674 -0.0976 -0.1246
   51MOL    C4519145   5.055   6.634   2.793 -0.2668 -0.1891  0.5785
   51MOL    C4619146   4.920   6.840   2.800  0.1113 -0.8958 -0.0944
   51MOL    H4719147   5.170   7.170   2.539  0.4441 -0.4797  0.1498
   51MOL    H4819148   5.323   7.149   2.469  0.3856  0.2785  1.2497
   51MOL    H4919149   5.325   6.922   2.576 -0.0133 -1.3637  2.9885
   51MOL    H5019150   5.166   6.900   2.863 -2.4959 -2.7980  1.2151
   51MOL    H5119151   5.260   6.804   2.738 -0.0824 -1.3121  1.6551
   51MOL    H5219152   5.038   6.775   2.633  2.2329  0.1088 -0.2584
   51MOL    H5319153   4.967   6.592   2.744  0.6321 -1.8194  0.3317
   51MOL    H5419154   5.144   6.591   2.747 -0.8687  0.0679 -0.8727
   51MOL    H5519155   5.043   6.626   2.901  0.1878  0.0618  0.6469
   51MOL    H5619156   4.925   6.948   2.784  1.0086 -0.9884 -0.4293
   51MOL    H5719157   4.914   6.834   2.909  2.2377  4.5676  0.4709
   51MOL    H5819158   4.834   6.804   2.744 -0.0806  0.9267 -0.9797
   51MOL    C5919159   5.370   7.078   2.724 -0.5517 -0.5498  0.9880
   51MOL    C6019160   5.507   7.120   2.656  0.3914  0.4009 -1.0949
   51MOL    O6119161   5.576   7.003   2.625 -0.2856 -0.0174  0.2087
   51MOL    C6219162   5.616   7.008   2.487  0.3106 -0.0659 -0.5403
   51MOL    C6319163   5.724   6.902   2.452 -0.3042  0.1068  0.3267
   51MOL    C6419164   5.710   6.760   2.511 -0.6323  0.2987 -0.4826
   51MOL    C6519165   5.757   6.906   2.300  0.1051  0.2727 -0.2770
   51MOL    H6619166   5.384   7.009   2.807 -0.0998  0.6369  1.9086
   51MOL    H6719167   5.325   7.167   2.768 -0.6911 -0.0526 -0.1299
   51MOL    H6819168   5.495   7.200   2.584 -0.8460  2.4716  1.3494
   51MOL    H6919169   5.526   6.991   2.427 -0.0671 -0.9774  0.2601
   51MOL    H7019170   5.663   7.104   2.464 -0.4274  0.2522 -0.7626
   51MOL    H7119171   5.809   6.948   2.503 -0.0773 -1.9084  1.8299
   51MOL    H7219172   5.672   6.758   2.614 -2.1180  1.0455 -1.0011
   51MOL    H7319173   5.803   6.708   2.492 -1.5584 -2.1267  1.3577
   51MOL    H7419174   5.628   6.708   2.462  0.3567  0.0077 -1.8249
   51MOL    H7519175   5.852   6.856   2.277 -0.5326 -1.5665  0.9778
   51MOL    H7619176   5.686   6.848   2.240  0.8681  1.0921 -2.0049
   51MOL    H7719177   5.760   7.009   2.264  1.9978  0.2111 -0.3631
   51MOL    C7819178   5.596   7.195   2.750  0.0824  0.4922 -0.2008
   51MOL    C7919179   5.734   7.234   2.698 -1.4519  0.2799 -0.3948
   51MOL    O8019180   5.712   7.349   2.609 -0.4596 -0.3610  0.1996
   51MOL    C8119181   5.818   7.397   2.540 -0.1743  0.6723  0.0265
   51MOL    C8219182   5.776   7.515   2.447 -0.0515 -0.3541  0.0418
   51MOL    C8319183   5.725   7.642   2.511 -0.0582  0.8341 -0.2411
   51MOL    C8419184   5.680   7.466   2.340 -0.6428  0.0214 -0.4009
   51MOL    H8519185   5.601   7.128   2.835 -2.3781  0.0769 -0.3487
   51MOL    H8619186   5.543   7.287   2.775  1.2157  1.6888 -2.0516
   51MOL    H8719187   5.784   7.154   2.644 -1.1198 -0.1260  0.5041
   51MOL    H8819188   5.886   7.437   2.616 -0.2141  1.3460 -0.2860
   51MOL    H8919189   5.858   7.308   2.492  2.3392  0.7906  1.7986
   51MOL    H9019190   5.866   7.538   2.389  1.5841 -1.0728  2.2426
   51MOL    H9119191   5.640   7.619   2.576 -0.0926  0.6790 -0.3426
   51MOL    H9219192   5.692   7.711   2.434 -0.0669  0.0566 -0.9362
   51MOL    H9319193   5.804   7.681   2.576  0.9146  0.7067 -1.3358
   51MOL    H9419194   5.580   7.448   2.380 -0.1429 -0.2230  0.7772
   51MOL    H9519195   5.723   7.377   2.293  1.2938  2.8411 -4.2958
   51MOL    H9619196   5.681   7.536   2.257  0.4569 -0.0347 -0.4425
   51MOL    C9719197   5.836   7.264   2.810  0.2097  0.9594  0.1130
   51MOL    C9819198   5.862   7.161   2.920 -0.4601  0.2297 -0.4500
   51MOL    O9919199   5.961   7.204   3.013 -0.3834 -0.1374  0.2601
   51MOL   C10019200   5.919   7.271   3.131 -1.1400  0.2583 -0.3026
   51MOL   C10119201   6.034   7.300   3.226 -0.6228 -0.1584 -0.0056
   51MOL   C10219202   5.991   7.393   3.344  0.0249 -0.0772  0.6359
   51MOL   C10319203   6.099   7.174   3.290 -0.1743 -0.0264  0.3619
   51MOL   H10419204   5.803   7.357   2.856  1.4712  1.9360 -0.9477
   51MOL   H10519205   5.936   7.284   2.771  0.8312 -0.6870  0.7854
   51MOL   H10619206   5.776   7.138   2.982  0.9669 -1.6583  0.8881
   51MOL   H10719207   5.842   7.215   3.185 -0.5700 -1.7993 -1.5958
   51MOL   H10819208   5.868   7.363   3.104  1.0698  0.6768 -3.2618
   51MOL   H10919209   6.114   7.347   3.170  0.4114 -0.4538  1.1875
   51MOL   H11019210   5.954   7.490   3.309  1.3778  0.0754 -0.4246
   51MOL   H11119211   5.913   7.340   3.398  1.7319 -1.0626  2.1921
   51MOL   H11219212   6.063   7.416   3.423 -0.9347  0.6143  1.3195
   51MOL   H11319213   6.029   7.122   3.356 -0.1305 -0.7721 -0.1751
   51MOL   H11419214   6.146   7.116   3.210  1.6884  1.9193  0.0034
   51MOL   H11519215   6.181   7.201   3.357 -0.5497 -3.1335  2.1649
   51MOL   C11619216   5.908   7.026   2.855 -0.1260 -0.5074  0.0746
   51MOL   C11719217   5.925   6.915   2.957  0.1365 -0.2350 -0.1875
   51MOL   O11819218   5.799   6.895   3.018  0.1136 -1.0367 -0.3220
   51MOL   C11919219   5.798   6.879   3.162 -0.3150  0.5581  0.3360
   51MOL   C12019220   5.652   6.848   3.198 -0.3989 -0.2470 -0.3141
   51MOL   C12119221   5.563   6.957   3.143  0.0406  0.3994 -0.6280
   51MOL   C12219222   5.607   6.706   3.153  0.0616  0.5111  0.8085
   51MOL   H12319223   5.823   6.994   2.795 -0.9577 -0.4687  1.2032
   51MOL   H12419224   5.990   7.032   2.784 -0.6812 -1.7519 -0.6820
   51MOL   H12519225   5.991   6.956   3.034  0.6249  0.7477 -1.1257
   51MOL   H12619226   5.830   6.965   3.221  0.4851  0.5173 -0.0356
   51MOL   H12719227   5.859   6.793   3.189 -2.2266  0.0102  3.1033
   51MOL   H12819228   5.639   6.851   3.306  0.9282 -1.0146 -0.1196
   51MOL   H12919229   5.577   6.987   3.039  2.7762  2.2184  0.2199
   51MOL   H13019230   5.570   7.039   3.214 -0.4058 -0.8948  0.9278
   51MOL   H13119231   5.466   6.909   3.156 -0.8248  2.9527  2.7677
   51MOL   H13219232   5.664   6.630   3.206 -0.0634 -0.3055 -0.2044
   51MOL   H13319233   5.504   6.682   3.181  0.6835 -2.1847  0.8809
   51MOL   H13419234   5.623   6.691   3.046  3.3609  2.0680  1.0318
   51MOL   C13519235   5.969   6.777   2.897 -0.1235 -1.0183  0.2764
   51MOL   C13619236   6.120   6.780   2.863 -0.1099  1.2669 -0.4271
   51MOL   O13719237   6.191   6.810   2.984 -0.1788  0.4190 -0.1102
   51MOL   C13819238   6.300   6.903   2.969 -0.4319  0.9723  0.3800
   51MOL   C13919239   6.380   6.895   3.102 -0.4768 -0.1179 -0.3390
   51MOL   C14019240   6.437   6.755   3.136 -0.1236 -0.1688  0.3848
   51MOL   C14119241   6.493   7.004   3.100 -0.1578  0.0429  0.0336
   51MOL   H14219242   5.964   6.695   2.968  0.0224 -0.1209  1.3411
   51MOL   H14319243   5.907   6.751   2.811 -2.5496 -0.5882  1.8345
   51MOL   H14419244   6.130   6.863   2.793 -1.1371 -0.3383 -2.5304
   51MOL   H14519245   6.245   6.997   2.966  0.3162  1.4098  0.1247
   51MOL   H14619246   6.359   6.896   2.878  0.4181 -0.2356  1.0026
   51MOL   H14719247   6.309   6.922   3.180  0.2946  1.7840 -0.2579
   51MOL   H14819248   6.481   6.743   3.235  0.2263  0.1536  0.2697
   51MOL   H14919249   6.509   6.712   3.066 -0.3646 -0.6144  0.4090
   51MOL   H15019250   6.353   6.686   3.131  0.0420 -0.3194 -0.4123
   51MOL   H15119251   6.531   7.020   3.201  1.5047 -0.4763 -0.5093
   51MOL   H15219252   6.580   6.964   3.048  0.0679  0.8264 -0.1919
   51MOL   H15319253   6.464   7.099   3.055 -0.7863 -0.2193 -0.1217
   51MOL   C15419254   6.175   6.653   2.794 -0.1545  0.5160  0.3177
   51MOL   C15519255   6.135   6.651   2.643  0.1415  0.6778  0.6626
   51MOL   O15619256   6.204   6.762   2.581 -0.0331  0.4997  0.1988
   51MOL   C15719257   6.143   6.801   2.459  0.0053 -0.3996  0.6238
   51MOL   C15819258   6.231   6.908   2.372  0.4567 -0.0944  0.4642
   51MOL   C15919259   6.156   6.960   2.240  0.0189  0.0047 -0.0567
   51MOL   C16019260   6.273   7.026   2.457 -0.1880  0.0032 -1.1928
   51MOL   H16119261   6.144   6.564   2.848  2.7454 -0.2499  0.8001
   51MOL   H16219262   6.283   6.655   2.811 -0.1821 -0.7049  0.6643
   51MOL   H16319263   6.027   6.646   2.629  0.1135  0.2962  1.0382
   51MOL   H16419264   6.042   6.836   2.484  0.2375  0.4019  0.4735
   51MOL   H16519265   6.118   6.725   2.386  0.1726  1.5397 -1.5092
   51MOL   H16619266   6.322   6.856   2.341  0.7808  1.1878 -0.7950
   51MOL   H16719267   6.156   6.877   2.170  1.3355  0.6119 -0.7884
   51MOL   H16819268   6.204   7.044   2.190 -2.0206 -0.6159 -3.1624
   51MOL   H16919269   6.052   6.985   2.262 -0.5654 -2.7406  0.4041
   51MOL   H17019270   6.301   6.988   2.555  0.6942 -1.8679 -2.1292
   51MOL   H17119271   6.358   7.076   2.410 -0.2619  0.7250 -0.5662
   51MOL   H17219272   6.200   7.106   2.464  0.5351  0.5180  0.7075
   51MOL   C17319273   6.193   6.522   2.576 -0.3565 -0.5355  0.1504
   51MOL   C17419274   6.127   6.381   2.593  0.0190  0.4083 -0.4345
   51MOL   O17519275   5.988   6.410   2.559 -0.2168  0.5676 -0.3029
   51MOL   C17619276   5.905   6.300   2.601  0.2891  0.5529  0.1643
   51MOL   C17719277   5.761   6.361   2.611 -0.2576 -0.6348  0.2173
   51MOL   C17819278   5.652   6.263   2.648  0.0595 -0.2936  0.0626
   51MOL   C17919279   5.759   6.475   2.714  0.2492  0.0910  0.1642
   51MOL   H18019280   6.202   6.538   2.469  0.6843 -0.6845  0.2059
   51MOL   H18119281   6.297   6.502   2.603 -0.2403  1.1549  1.0030
   51MOL   H18219282   6.131   6.360   2.700  0.3581 -0.9446 -0.6983
   51MOL   H18319283   5.930   6.259   2.699  0.5610 -0.6337 -0.3859
   51MOL   H18419284   5.914   6.222   2.525  2.0336  1.5188 -0.6693
   51MOL   H18519285   5.725   6.390   2.512  1.2407 -1.3577 -0.5499
   51MOL   H18619286   5.561   6.318   2.672  1.3124  0.4760  3.3399
   51MOL   H18719287   5.622   6.190   2.573 -0.5986 -0.2452  0.2763
   51MOL   H18819288   5.671   6.205   2.739 -4.1219 -3.3111 -0.8531
   51MOL   H18919289   5.783   6.429   2.809 -1.8247 -0.6038  0.3685
   51MOL   H19019290   5.662   6.524   2.720 -0.3175 -1.3175  3.0314
   51MOL   H19119291   5.819   6.562   2.687  1.2498 -0.0459  1.9019
   51MOL   C19219292   6.194   6.265   2.517  0.3437  0.1923 -0.0050
   51MOL   C19319293   6.341   6.239   2.569 -0.4137  0.6708  0.5927
   51MOL   O19419294   6.387   6.130   2.492  0.5514 -0.4454 -0.2851
   51MOL   C19519295   6.439   6.167   2.363  0.6449 -0.7090  0.3176
   51MOL   C19619296   6.465   6.040   2.282  0.0917  0.5657  0.4597
   51MOL   C19719297   6.362   5.923   2.310  0.6688  0.3614 -1.0091
   51MOL   C19819298   6.608   5.986   2.301  0.0764 -0.3106  0.0754
   51MOL   H19919299   6.198   6.295   2.412 -1.7135  0.1802 -0.1033
   51MOL   H20019300   6.141   6.170   2.520  0.0017  0.3107 -1.9518
   51MOL   H20119301   6.412   6.318   2.546  0.9022 -0.3118  1.2123
   51MOL   H20219302   6.541   6.205   2.374 -0.0081  1.1893  0.0070
   51MOL   H20319303   6.379   6.245   2.317  2.9815  1.3026  0.6015
   51MOL   H20419304   6.459   6.067   2.176 -0.6567  0.4585  0.4674
   51MOL   H20519305   6.397   5.827   2.272  0.6089 -0.1902  0.3028
   51MOL   H20619306   6.341   5.901   2.415 -3.1090  0.7891 -1.6044
   51MOL   H20719307   6.266   5.947   2.265  0.1347  0.1284 -0.0281
   51MOL   H20819308   6.636   5.893   2.251 -2.2232 -1.1776  0.3597
   51MOL   H20919309   6.677   6.063   2.266 -1.4253  0.3312 -1.5675
   51MOL   H21019310   6.621   5.971   2.408  1.2129  0.7713  0.0985
   51MOL   C21119311   6.350   6.202   2.725 -0.1758  0.2143 -0.5342
   51MOL   C21219312   6.503   6.197   2.759  0.6262 -0.1162  0.7252
   51MOL   O21319313   6.578   6.313   2.708  0.4674  0.5929 -0.0347
   51MOL   C21419314   6.544   6.440   2.763  0.6215 -0.0043  0.6160
   51MOL   C21519315   6.646   6.548   2.711 -0.6775  0.3727 -0.5638
   51MOL   C21619316   6.611   6.688   2.766 -0.1856 -0.0074  0.0011
   51MOL   C21719317   6.790   6.515   2.756  0.2516 -0.4868  0.5584
   51MOL   H21819318   6.296   6.110   2.749 -2.2747  1.4323 -0.4245
   51MOL   H21919319   6.307   6.283   2.784 -1.1527 -1.6260  1.3023
   51MOL   H22019320   6.549   6.113   2.706  2.2506  0.5552  1.0333
   51MOL   H22119321   6.540   6.444   2.872 -0.8907  0.1287  0.5634
   51MOL   H22219322   6.450   6.477   2.722  1.8970  0.2585 -2.2229
   51MOL   H22319323   6.640   6.560   2.603  2.4230  0.9231 -0.7203
   51MOL   H22419324   6.635   6.713   2.869 -0.9749 -0.0605  0.2055
   51MOL   H22519325   6.676   6.764   2.723  0.0439 -1.3909 -2.1475
   51MOL   H22619326   6.505   6.713   2.755  0.0648  1.0857  0.0326
   51MOL   H22719327   6.856   6.595   2.721  0.7232 -1.3821 -0.6353
   51MOL   H22819328   6.818   6.417   2.717 -0.8152 -0.2202 -0.9299
   51MOL   H22919329   6.810   6.514   2.863  1.1729 -2.4320  0.3801
   51MOL   C23019330   6.525   6.170   2.909 -0.1426  0.4290 -0.4866
   51MOL   C23119331   6.674   6.182   2.956  0.3235  0.5150 -0.6480
   51MOL   O23219332   6.683   6.212   3.089  0.0646 -0.0438 -0.0724
   51MOL   C23319333   6.799   6.279   3.125 -1.1481  0.2824 -0.8651
   51MOL   C23419334   6.764   6.349   3.252 -0.5924  0.3576  0.3738
   51MOL   C23519335   6.893   6.390   3.334  0.7731  0.2098  0.1723
   51MOL   C23619336   6.659   6.459   3.231  0.3625  0.3964  1.1106
   51MOL   H23719337   6.478   6.079   2.947  1.2754  0.2434  0.8610
   51MOL   H23819338   6.472   6.244   2.969 -0.2866 -1.2974  1.5716
   51MOL   H23919339   6.720   6.266   2.904  1.5884  1.6998  2.3136
   51MOL   H24019340   6.881   6.207   3.133 -1.6516 -0.1015  0.8955
   51MOL   H24119341   6.840   6.351   3.054  0.4720  1.5547  1.3014
   51MOL   H24219342   6.707   6.281   3.315 -0.0904 -1.8238 -1.4462
   51MOL   H24319343   6.860   6.447   3.420 -3.4231  0.8555 -1.7261
   51MOL   H24419344   6.972   6.442   3.280  2.2861 -2.1843  0.0140
   51MOL   H24519345   6.933   6.297   3.374 -0.2847 -1.2390 -2.0549
   51MOL   H24619346   6.582   6.420   3.165  1.7615  0.4020 -0.5604
   51MOL   H24719347   6.614   6.480   3.328  0.0893  0.0253  1.0664
   51MOL   H24819348   6.699   6.545   3.178 -0.6215  0.4533  0.4447
   51MOL   C24919349   6.754   6.059   2.923 -0.1809  0.6451  0.3811
   51MOL   C25019350   6.723   5.926   2.999 -0.7373 -1.0535  0.1716
   51MOL   O25119351   6.618   5.845   2.935  0.0335 -0.0139  0.1447
   51MOL   C25219352   6.515   5.802   3.016 -0.1522  0.2876  0.0092
   51MOL   C25319353   6.413   5.715   2.940 -0.7128  0.5502 -0.0689
   51MOL   C25419354   6.462   5.582   2.882 -0.7771  0.1036 -0.2702
   51MOL   C25519355   6.343   5.799   2.827 -0.1473  0.6927  0.0278
   51MOL   H25619356   6.856   6.087   2.947  0.7438 -3.1920  1.1518
   51MOL   H25719357   6.748   6.044   2.816  1.1102 -1.4016  0.5814
   51MOL   H25819358   6.695   5.948   3.102 -0.1291  2.2512 -0.3122
   51MOL   H25919359   6.560   5.734   3.088  1.3325  0.8437 -0.3842
   51MOL   H26019360   6.455   5.883   3.059  1.2109  1.7854 -0.8805
   51MOL   H26119361   6.339   5.685   3.015  0.1693 -0.1432  0.5322
   51MOL   H26219362   6.469   5.497   2.951 -0.0901 -0.1849 -0.6908
   51MOL   H26319363   6.560   5.593   2.836 -0.5946  0.8852  0.2863
   51MOL   H26419364   6.400   5.550   2.798 -0.7278  0.1371 -0.3187
   51MOL   H26519365   6.264   5.739   2.783  0.4520  0.2115 -0.3995
   51MOL   H26619366   6.296   5.892   2.860 -1.6034 -0.3247  0.8864
   51MOL   H26719367   6.413   5.833   2.750 -1.4198  0.9014 -1.0582
   51MOL   C26819368   6.851   5.828   2.999  1.2619 -0.5982 -0.1502
   51MOL   C26919369   6.973   5.879   3.074 -0.0680  0.1828 -0.2697
   51MOL   O27019370   7.059   5.757   3.073 -0.1463 -0.3046  0.2727
   51MOL   C27119371   7.113   5.724   2.948  0.2110 -0.1015  0.0319
   51MOL   C27219372   7.218   5.606   2.963 -0.5338  0.3695  0.2273
   51MOL   C27319373   7.255   5.535   2.829  0.5164 -0.9110 -0.1255
   51MOL   C27419374   7.344   5.659   3.031 -0.4707  0.3483 -0.0109
   51MOL   H27519375   6.858   5.785   2.900 -0.2986 -1.4079  0.0754
   51MOL   H27619376   6.816   5.746   3.062 -0.6214  1.3486  1.4492
   51MOL   H27719377   7.026   5.959   3.022 -1.3434  0.4673 -1.1271
   51MOL   H27819378   7.034   5.686   2.882  0.0089 -1.5538  1.0808
   51MOL   H27919379   7.158   5.813   2.905 -1.4666  1.3331  1.1562
   51MOL   H28019380   7.165   5.531   3.021 -1.6712 -0.4202 -1.7802
   51MOL   H28119381   7.339   5.468   2.847 -0.7187 -1.7341  2.9185
   51MOL   H28219382   7.269   5.599   2.741  0.3381  0.9567  1.1830
   51MOL   H28319383   7.170   5.475   2.796  0.4788 -0.3757 -1.0470
   51MOL   H28419384   7.400   5.731   2.971  0.9977 -1.5527 -0.9666
   51MOL   H28519385   7.412   5.580   3.063 -1.5274  0.3826  2.3596
   51MOL   H28619386   7.307   5.706   3.122 -0.8044  1.1701 -0.5668
   51MOL   C28719387   6.927   5.928   3.216 -0.6749  0.0135  0.0535
   51MOL   C28819388   7.038   5.952   3.319  0.4362  0.6323  0.2518
   51MOL   O28919389   6.974   5.994   3.437 -0.4439 -0.5035  0.1818
   51MOL   C29019390   6.930   5.890   3.524  0.0112 -0.3656  1.1655
   51MOL   C29119391   6.833   5.948   3.629  0.1467  0.1974 -0.0824
   51MOL   C29219392   6.735   6.045   3.563  0.5011 -0.6271  0.6162
   51MOL   C29319393   6.895   6.012   3.755  0.1925  0.4177  0.3074
   51MOL   H29419394   6.848   5.858   3.245  1.0938 -1.1520  2.2558
   51MOL   H29519395   6.871   6.021   3.213  0.4262  0.6241 -2.3576
   51MOL   H29619396   7.091   5.859   3.342 -2.1342 -0.9998 -0.2738
   51MOL   H29719397   6.876   5.816   3.464  0.1199  0.3985  0.0968
   51MOL   H29819398   7.012   5.833   3.568  1.0617 -1.6954 -2.3318
   51MOL   H29919399   6.769   5.866   3.662 -0.4526  1.2318  1.3970
   51MOL   H30019400   6.784   6.140   3.544 -0.5707 -0.3312 -0.7409
   51MOL   H30119401   6.648   6.072   3.622  1.6743  6.0056 -0.3161
   51MOL   H30219402   6.708   6.013   3.462 -0.3906  0.8307  0.3824
   51MOL   H30319403   6.808   6.032   3.817  0.4087  0.5741  0.5590
   51MOL   H30419404   6.965   5.943   3.802 -1.8079 -1.1266  1.0591
   51MOL   H30519405   6.950   6.104   3.737 -0.6327  0.7565 -0.4927
   51MOL   C30619406   7.149   6.055   3.293 -0.0571  0.9588  0.3013
   51MOL   C30719407   7.269   6.050   3.386 -0.2743  0.8115 -0.7241
   51MOL   O30819408   7.394   6.100   3.333 -0.2519  0.0780  0.1808
   51MOL   C30919409   7.484   6.006   3.272  0.4519 -0.0604  0.3444
   51MOL   C31019410   7.628   6.064   3.254 -0.3139  0.2242 -0.1556
   51MOL   C31119411   7.707   5.979   3.157  0.3118  0.2749  0.4738
   51MOL   C31219412   7.704   6.072   3.387  0.6089 -0.1544 -0.1714
   51MOL   H31319413   7.110   6.157   3.305 -1.5203  0.3003  1.3505
   51MOL   H31419414   7.184   6.041   3.191 -1.8883  2.5921 -0.6007
   51MOL   H31519415   7.296   5.946   3.409 -1.6775  0.6559  0.2957
   51MOL   H31619416   7.437   5.975   3.179  1.2076 -0.4030  0.0679
   51MOL   H31719417   7.491   5.916   3.333  0.4491  0.3091  0.8921
   51MOL   H31819418   7.630   6.163   3.207 -1.3228  0.5835  0.5412
   51MOL   H31919419   7.800   6.030   3.132 -0.4768  1.1483 -0.7871
   51MOL   H32019420   7.664   5.966   3.057 -1.7744  1.7581  1.1378
   51MOL   H32119421   7.731   5.880   3.196  0.4295  0.0877 -0.0628
   51MOL   H32219422   7.683   6.172   3.425  0.4173 -1.2710  2.8071
   51MOL   H32319423   7.811   6.065   3.371  0.3626 -0.0479 -1.9153
   51MOL   H32419424   7.676   5.995   3.460 -1.4479  0.1331 -0.6033
   51MOL   C32519425   7.241   6.130   3.517  0.5328 -0.4269  1.3499
   51MOL   C32619426   7.348   6.120   3.631 -0.6007 -0.2747 -0.6924
   51MOL   O32719427   7.341   6.249   3.689 -0.0813 -0.1891 -0.4337
   51MOL   C32819428   7.455   6.328   3.676  0.3289  0.1744 -0.2187
   51MOL   C32919429   7.440   6.442   3.777 -0.2208  0.3992  0.7176
   51MOL   C33019430   7.573   6.522   3.796 -0.1869 -0.3671 -0.0610
   51MOL   C33119431   7.323   6.536   3.743 -0.2547  0.2646  0.0461
   51MOL   H33219432   7.146   6.103   3.563  0.7458 -1.5801  1.1048
   51MOL   H33319433   7.229   6.236   3.493  0.5766 -0.5386  0.8221
   51MOL   H33419434   7.445   6.092   3.590  1.2857  3.2516  1.1165
   51MOL   H33519435   7.543   6.269   3.701 -1.8986 -3.0466  0.3108
   51MOL   H33619436   7.460   6.353   3.570 -1.6737 -2.6003 -1.0200
   51MOL   H33719437   7.409   6.390   3.868 -1.5872 -0.3682 -0.1541
   51MOL   H33819438   7.611   6.568   3.706 -1.6469 -1.1292 -1.0929
   51MOL   H33919439   7.568   6.595   3.877  0.6399 -1.7692  1.3009
   51MOL   H34019440   7.656   6.455   3.820  0.5302 -0.5251 -2.8037
   51MOL   H34119441   7.229   6.486   3.721 -0.3268  0.5776 -0.3654
   51MOL   H34219442   7.301   6.603   3.827  2.5441  0.9304  0.3251
   51MOL   H34319443   7.364   6.590   3.658  1.7733 -1.1333  0.1082
   51MOL   C34419444   7.310   6.030   3.751 -0.2580  0.9918 -0.4946
   51MOL   C34519445   7.431   6.004   3.849 -0.1045  0.7731 -0.0805
   51MOL   O34619446   7.392   5.928   3.964  0.3721 -0.2254  0.2628
   51MOL   C34719447   7.281   5.845   3.957 -0.5644 -0.1968 -0.1973
   51MOL   C34819448   7.276   5.768   4.095 -0.0831  0.0199 -0.6588
   51MOL   C34919449   7.225   5.856   4.202  0.3014 -0.6093  0.0972
   51MOL   C35019450   7.401   5.688   4.134 -0.8278 -0.3677 -0.0829
   51MOL   H35119451   7.281   5.930   3.720 -0.1819 -0.2448  3.2198
   51MOL   H35219452   7.219   6.073   3.793 -1.1445 -1.6678  0.4198
   51MOL   H35319453   7.476   6.090   3.898  1.2909 -0.6337  1.2102
   51MOL   H35419454   7.280   5.772   3.876 -0.0138 -0.8534  0.3874
   51MOL   H35519455   7.187   5.901   3.949 -0.7150 -0.1779  1.5197
   51MOL   H35619456   7.196   5.695   4.080 -1.4667  1.1989  0.8429
   51MOL   H35719457   7.297   5.919   4.254 -1.1212  2.1512 -1.1402
   51MOL   H35819458   7.189   5.800   4.287  0.8252  0.1961  0.8633
   51MOL   H35919459   7.152   5.930   4.168 -0.7907 -2.2064 -1.1058
   51MOL   H36019460   7.416   5.603   4.068 -2.3386  0.1145 -1.1051
   51MOL   H36119461   7.490   5.748   4.152 -1.4037  0.3267  0.4848
   51MOL   H36219462   7.377   5.633   4.225 -0.0063  1.8512  1.5227
   51MOL   C36319463   7.548   5.929   3.771  0.1173  0.4651 -0.0830
   51MOL   C36419464   7.663   5.872   3.866  0.0066 -0.8317  0.7305
   51MOL   O36519465   7.765   5.978   3.877 -0.0558 -0.0611  0.1044
   51MOL   C36619466   0.045   5.932   3.953 -0.0943 -0.2255  1.0417
   51MOL   C36719467   0.156   6.034   3.965 -0.3569  0.4520 -0.7424
   51MOL   C36819468   0.115   6.169   4.035  0.0535 -0.6193  0.0359
   51MOL   C36919469   0.211   6.066   3.824  0.0007 -0.1005 -0.2416
   51MOL   H37019470   7.499   5.841   3.728 -0.5454  0.7933 -0.0135
   51MOL   H37119471   7.592   5.984   3.688  1.5523 -1.1777 -0.4308
   51MOL   H37219472   7.702   5.778   3.827 -0.5921 -0.1845 -1.5108
   51MOL   H37319473   0.022   5.905   4.056 -1.0808 -1.3292  0.5414
   51MOL   H37419474   0.084   5.842   3.906  0.1767 -0.2906  1.3906
   51MOL   H37519475   0.245   5.996   4.015  0.2118  1.6775 -0.7929
   51MOL   H37619476   0.210   6.220   4.048  0.9877 -2.2466 -0.2045
   51MOL   H37719477   0.069   6.149   4.132 -0.4963 -1.4983 -0.3981
   51MOL   H37819478   0.055   6.236   3.973  3.3825  2.3319 -0.1485
   51MOL   H37919479   0.260   6.163   3.819 -2.3702  1.0662 -1.8508
   51MOL   H38019480   0.136   6.066   3.745 -1.6257  0.9714  1.2722
   51MOL   H38119481   0.280   5.986   3.795 -1.2435 -1.8239  1.4158
   51MOL   H38219482   7.614   5.860   3.963  0.5366 -0.4717  1.0433
   52MOL     C119483   5.540   6.692   4.270 -0.1281 -0.0418 -0.3052
   52MOL     C219484   5.608   6.673   4.409 -0.0495  0.1898 -0.2122
   52MOL     O319485   5.567   6.550   4.463 -0.3306 -0.1696  0.8841
   52MOL     C419486   5.562   6.548   4.604 -0.3076 -0.1240 -0.1043
   52MOL     C519487   5.564   6.400   4.653 -0.2495 -0.6840  0.2111
   52MOL     C619488   5.440   6.327   4.596  0.3151 -0.3414 -0.2056
   52MOL     C719489   5.572   6.391   4.805 -0.4762  0.6359 -0.0294
   52MOL     H819490   5.433   6.678   4.280 -0.2039  1.6674  1.4369
   52MOL     H919491   5.556   6.794   4.236  1.1068  0.7322  2.4776
   52MOL    H1019492   5.564   6.749   4.473 -0.1960 -0.1656  0.1180
   52MOL    H1119493   5.469   6.595   4.637 -1.7355 -2.7023 -0.2824
   52MOL    H1219494   5.642   6.599   4.657 -1.2099  1.7544 -0.4929
   52MOL    H1319495   5.657   6.354   4.620 -0.3422  1.0958 -2.7182
   52MOL    H1419496   5.436   6.329   4.488 -0.1746 -0.4322 -0.1923
   52MOL    H1519497   5.427   6.226   4.636 -2.4256  0.0626  0.0044
   52MOL    H1619498   5.353   6.387   4.621  0.8806  1.0485 -1.5592
   52MOL    H1719499   5.665   6.436   4.840 -0.6408  0.5988  0.4554
   52MOL    H1819500   5.499   6.452   4.858 -0.5150  0.9338 -0.4218
   52MOL    H1919501   5.559   6.287   4.833 -1.7594  1.0021  0.7868
   52MOL    H2019502   5.581   6.620   4.199 -0.2969  0.6700 -1.1336
   52MOL    C2119503   5.757   6.702   4.403  0.0703 -0.7638  0.2922
   52MOL    C2219504   5.800   6.849   4.433 -0.8225 -0.4501  0.3883
   52MOL    O2319505   5.771   6.878   4.571  0.8040  0.1975  0.2490
   52MOL    C2419506   5.674   6.992   4.583 -0.3208  0.3039 -0.3338
   52MOL    C2519507   5.645   7.012   4.734 -0.0447 -0.4912 -0.3795
   52MOL    C2619508   5.579   6.882   4.789 -0.5627 -0.1700 -0.4190
   52MOL    C2719509   5.770   7.066   4.809 -0.3079  0.3420  0.2350
   52MOL    H2819510   5.790   6.645   4.490 -0.5012 -1.3454  0.1327
   52MOL    H2919511   5.797   6.670   4.307  0.4542 -1.2191  0.6050
   52MOL    H3019512   5.745   6.919   4.371 -1.5490 -2.8557 -1.7924
   52MOL    H3119513   5.584   6.971   4.525 -1.4331 -1.4631  1.9080
   52MOL    H3219514   5.729   7.075   4.539  1.6622 -1.3822 -1.1433
   52MOL    H3319515   5.569   7.090   4.730  0.3234  0.0619  2.1673
   52MOL    H3419516   5.494   6.870   4.721  0.4112 -0.0955 -1.6669
   52MOL    H3519517   5.547   6.889   4.893 -2.5798  0.0808 -1.0317
   52MOL    H3619518   5.640   6.793   4.770  1.2017  1.1845 -1.3021
   52MOL    H3719519   5.751   7.076   4.916 -0.3084 -1.8231  0.4734
   52MOL    H3819520   5.852   6.994   4.800 -0.6690 -0.1534  0.8331
   52MOL    H3919521   5.800   7.162   4.769 -0.5350 -0.4976 -2.0259
   52MOL    C4019522   5.951   6.879   4.413 -0.3803  0.1862 -0.3580
   52MOL    C4119523   5.981   6.928   4.270  0.1872 -0.0051  0.4221
   52MOL    O4219524   5.951   6.822   4.173 -0.2632  0.0070 -0.3468
   52MOL    C4319525   5.850   6.852   4.077  0.1729 -0.0972  0.5089
   52MOL    C4419526   5.829   6.727   3.983 -0.6203  0.1002 -0.2147
   52MOL    C4519527   5.738   6.759   3.860  0.6739  0.3095 -0.1781
   52MOL    C4619528   5.964   6.667   3.935  0.1488 -0.2088 -0.1642
   52MOL    H4719529   6.014   6.794   4.439  0.6316  1.0547  0.0628
   52MOL    H4819530   5.989   6.953   4.485  0.4575 -1.3134  0.7635
   52MOL    H4919531   5.911   7.010   4.254  0.2869  0.5336  2.5626
   52MOL    H5019532   5.884   6.941   4.024 -0.0403 -0.5656 -0.4323
   52MOL    H5119533   5.756   6.881   4.123 -0.8511 -2.7702  0.1590
   52MOL    H5219534   5.777   6.650   4.039 -1.3132  0.7814  0.0937
   52MOL    H5319535   5.777   6.839   3.796  0.8041 -0.2115 -0.7529
   52MOL    H5419536   5.721   6.668   3.802  1.7722 -1.3035  1.9795
   52MOL    H5519537   5.646   6.797   3.905  0.2692 -0.9082  0.0164
   52MOL    H5619538   6.033   6.646   4.016  0.8569 -0.0467 -0.7258
   52MOL    H5719539   6.023   6.730   3.868  1.1735 -2.4768 -1.4738
   52MOL    H5819540   5.956   6.569   3.886  0.5030  0.3715 -1.4106
   52MOL    C5919541   6.131   6.969   4.246 -1.0991  0.3959  0.0535
   52MOL    C6019542   6.160   7.046   4.117  0.5326 -0.2568 -0.5420
   52MOL    O6119543   6.305   7.050   4.111  0.4483 -0.5304 -0.3793
   52MOL    C6219544   6.347   6.960   4.002  0.4178  0.2771  0.4193
   52MOL    C6319545   6.501   6.981   3.982  0.1659  0.5612 -0.3485
   52MOL    C6419546   6.557   6.862   3.895  0.3129  0.3978 -0.0701
   52MOL    C6519547   6.531   7.122   3.927 -0.5124 -0.0262  0.0813
   52MOL    H6619548   6.194   6.880   4.248  1.6151  2.2934  0.4966
   52MOL    H6719549   6.161   7.021   4.336  0.0403  0.5858 -0.4334
   52MOL    H6819550   6.123   6.996   4.028  1.2351 -0.6042 -0.6439
   52MOL    H6919551   6.330   6.855   4.029 -2.0128  0.3154 -0.7853
   52MOL    H7019552   6.299   6.979   3.906  0.5048 -0.6376  0.1905
   52MOL    H7119553   6.559   6.986   4.074  2.1880  1.1889 -1.6502
   52MOL    H7219554   6.499   6.850   3.804 -0.9940 -0.0270  0.7957
   52MOL    H7319555   6.550   6.763   3.941 -2.6461  0.2197 -0.7451
   52MOL    H7419556   6.660   6.885   3.871  0.2920  1.1415  0.5206
   52MOL    H7519557   6.537   7.202   4.001 -2.2428 -0.6203  0.8906
   52MOL    H7619558   6.626   7.121   3.873 -1.5140 -2.8350 -1.7042
   52MOL    H7719559   6.460   7.148   3.849 -0.5039 -2.9903 -0.9476
   52MOL    C7819560   6.113   7.193   4.132 -0.0846 -0.3535 -0.0634
   52MOL    C7919561   6.158   7.289   4.017  0.1081  0.4527  0.4111
   52MOL    O8019562   6.074   7.249   3.907  0.0499  0.2156  0.0161
   52MOL    C8119563   6.138   7.249   3.780  0.3182 -0.2875  0.7045
   52MOL    C8219564   6.035   7.216   3.669  0.6672 -0.1851 -0.0059
   52MOL    C8319565   5.901   7.292   3.687  0.3005 -0.6366  0.2318
   52MOL    C8419566   6.019   7.062   3.650 -0.2014  0.3870  0.4138
   52MOL    H8519567   6.134   7.243   4.227 -0.9633  0.6770 -0.3992
   52MOL    H8619568   6.005   7.187   4.126 -0.0477 -1.5887  0.2338
   52MOL    H8719569   6.261   7.272   3.985 -0.2968 -0.5207 -0.3810
   52MOL    H8819570   6.182   7.345   3.752  0.4610 -1.0230 -1.7023
   52MOL    H8919571   6.219   7.176   3.771  3.3845  2.5141  3.8371
   52MOL    H9019572   6.074   7.241   3.571  0.6349 -0.4681 -0.0911
   52MOL    H9119573   5.850   7.265   3.780 -3.6478 -1.9051 -2.1568
   52MOL    H9219574   5.827   7.294   3.607  1.0080  1.3918 -0.4051
   52MOL    H9319575   5.928   7.397   3.682  0.9715 -0.9053 -1.9471
   52MOL    H9419576   6.114   7.019   3.616  0.6686  3.3056 -1.0354
   52MOL    H9519577   5.932   7.034   3.590  0.2329  1.0814 -0.5556
   52MOL    H9619578   5.994   7.021   3.747  2.0614  1.1009  1.3265
   52MOL    C9719579   6.123   7.443   4.043  0.1732  0.3436  0.3993
   52MOL    C9819580   6.213   7.515   4.143 -0.2994 -0.3497  0.4492
   52MOL    O9919581   6.174   7.653   4.146  0.0540 -0.7127  0.0352
   52MOL   C10019582   6.065   7.688   4.235 -0.3740 -0.1787  0.1998
   52MOL   C10119583   6.029   0.012   4.195 -0.6468  0.6260 -0.4690
   52MOL   C10219584   5.903   0.065   4.262 -0.2093 -0.3879  0.1632
   52MOL   C10319585   6.136   0.113   4.220 -0.0418 -0.1663 -1.0331
   52MOL   H10419586   6.021   7.454   4.081  1.0548 -1.4089  3.5131
   52MOL   H10519587   6.124   7.500   3.951 -1.5122 -0.6945 -0.2930
   52MOL   H10619588   6.193   7.465   4.237  1.1329  0.6020  1.2817
   52MOL   H10719589   6.083   7.679   4.342 -0.4464 -1.9454  0.0883
   52MOL   H10819590   5.979   7.624   4.214 -0.3900  0.6368 -2.4378
   52MOL   H10919591   6.023   0.017   4.086  0.4811 -0.4689 -0.5990
   52MOL   H11019592   5.869   0.161   4.224  0.1618 -0.0127  0.7669
   52MOL   H11119593   5.813   0.006   4.250  0.5771 -1.9418  1.6531
   52MOL   H11219594   5.915   0.070   4.370  1.6844  0.8192 -0.0781
   52MOL   H11319595   6.107   0.199   4.159 -1.2645  0.6902  0.7231
   52MOL   H11419596   6.140   0.140   4.326 -1.0303 -1.1453 -0.7380
   52MOL   H11519597   6.233   0.076   4.188  0.9085  0.5631  0.9311
   52MOL   C11619598   6.360   7.513   4.113 -0.6074  0.0217  0.1339
   52MOL   C11719599   6.448   7.572   4.223 -0.0405 -0.0456 -0.0928
   52MOL   O11819600   6.435   7.485   4.332 -0.4831 -0.3477  0.1800
   52MOL   C11919601   6.382   7.539   4.452 -0.0848  0.1179 -0.3851
   52MOL   C12019602   6.380   7.433   4.561 -0.1930 -0.0139 -0.4484
   52MOL   C12119603   6.273   7.326   4.530  0.3135  0.8841  0.7436
   52MOL   C12219604   6.521   7.381   4.587  0.9649  0.1823  0.0929
   52MOL   H12319605   6.391   7.412   4.086  1.9880  1.1108 -1.1302
   52MOL   H12419606   6.376   7.562   4.017 -1.4183 -0.4443 -0.2438
   52MOL   H12519607   6.416   7.674   4.247  1.0332  0.4614 -0.7627
   52MOL   H12619608   6.277   7.566   4.447 -0.4741 -1.0468  1.2769
   52MOL   H12719609   6.443   7.624   4.482 -0.4775  0.0095  0.7410
   52MOL   H12819610   6.362   7.475   4.660 -0.2788  0.2067 -0.5581
   52MOL   H12919611   6.296   7.287   4.431  1.2438  1.9051  0.5559
   52MOL   H13019612   6.169   7.360   4.523  0.5020  1.2544 -0.4231
   52MOL   H13119613   6.269   7.238   4.594  3.4405  0.8371  0.9291
   52MOL   H13219614   6.552   7.326   4.498  1.1970  0.4773 -0.0086
   52MOL   H13319615   6.586   7.465   4.608  0.4091  1.0418 -1.5251
   52MOL   H13419616   6.517   7.310   4.670  0.4939 -0.6082 -0.5923
   52MOL   C13519617   6.598   7.568   4.179  0.3050 -0.0299  0.3698
   52MOL   C13619618   6.704   7.626   4.273  0.6620  0.1087  0.2956
   52MOL   O13719619   6.831   7.613   4.208  0.2148 -0.4149  0.4383
   52MOL   C13819620   6.928   7.538   4.291  0.1647  1.1185  0.0990
   52MOL   C13919621   7.063   7.518   4.218 -0.8021  0.0945 -0.9133
   52MOL   C14019622   7.039   7.470   4.074  0.4318 -0.7742 -0.2372
   52MOL   C14119623   7.144   7.642   4.222 -0.5303 -0.6831 -0.1924
   52MOL   H14219624   6.623   7.466   4.149 -2.5122 -0.5180 -0.4886
   52MOL   H14319625   6.607   7.623   4.086  3.2960 -1.4000 -0.1834
   52MOL   H14419626   6.689   7.580   4.371 -0.2647  0.4762  0.3280
   52MOL   H14519627   6.883   7.445   4.324 -0.0255  1.9070  2.1839
   52MOL   H14619628   6.947   7.602   4.378  0.6853  1.2945 -0.1395
   52MOL   H14719629   7.121   7.433   4.253  0.1323  0.9256 -0.4103
   52MOL   H14819630   6.975   7.532   4.011  0.2326  0.5534  1.2338
   52MOL   H14919631   7.003   7.367   4.078  1.0195 -1.0035 -0.7678
   52MOL   H15019632   7.138   7.470   4.029  0.3162  1.5260 -0.5792
   52MOL   H15119633   7.244   7.623   4.182  0.0762  0.3805  0.7819
   52MOL   H15219634   7.095   7.712   4.153  1.1569 -1.6307 -2.4081
   52MOL   H15319635   7.157   7.689   4.320  2.4328 -0.6314 -0.5567
   52MOL   C15419636   6.688   7.770   4.323 -0.7816  0.2531 -0.0844
   52MOL   C15519637   6.697   0.059   4.222 -0.2336 -0.0403 -0.5796
   52MOL   O15619638   6.634   0.173   4.283  0.1952 -0.6705  0.8325
   52MOL   C15719639   6.500   0.193   4.241 -0.0580 -0.3487  0.3305
   52MOL   C15819640   6.419   0.303   4.312 -0.4885 -0.0729  0.2735
   52MOL   C15919641   6.424   0.293   4.469  0.1887  0.3630 -0.3669
   52MOL   C16019642   6.468   0.441   4.275  0.2721 -0.6785  0.9007
   52MOL   H16119643   6.765   7.794   4.396 -1.5446 -0.0502  0.8195
   52MOL   H16219644   6.595   7.781   4.379 -0.7388 -0.4506  0.1271
   52MOL   H16319645   6.644   0.030   4.132 -0.4742  1.3489 -0.8964
   52MOL   H16419646   6.447   0.100   4.262  1.7166 -2.1120 -2.6793
   52MOL   H16519647   6.491   0.215   4.135 -0.1327  2.3407  0.8631
   52MOL   H16619648   6.317   0.308   4.274  0.4828 -0.3862 -2.5479
   52MOL   H16719649   6.354   0.354   4.526  0.9906  0.0447  0.9624
   52MOL   H16819650   6.525   0.318   4.499 -0.5811  0.7384  1.9866
   52MOL   H16919651   6.417   0.188   4.496 -1.4566  0.6286  0.2886
   52MOL   H17019652   6.461   0.457   4.167 -2.0110  0.1386  1.1424
   52MOL   H17119653   6.398   0.517   4.308 -0.0407 -0.8014  0.5206
   52MOL   H17219654   6.572   0.467   4.295  0.7774 -2.0122  0.0420
   52MOL   C17319655   6.843   0.096   4.168  0.2952  0.7427  0.4893
   52MOL   C17419656   6.839   0.141   4.023  0.0543 -0.3442  0.1489
   52MOL   O17519657   6.935   0.248   4.008  0.0256  0.8831 -0.1111
   52MOL   C17619658   6.944   0.308   3.878  0.1214 -0.1914 -0.9001
   52MOL   C17719659   7.046   0.428   3.889  0.1827  0.7454 -0.2380
   52MOL   C17819660   7.074   0.496   3.753  0.2250  0.6778 -0.0486
   52MOL   C17919661   6.988   0.543   3.983 -0.2775  0.2379  0.0361
   52MOL   H18019662   6.879   0.180   4.227 -2.8982  2.3184  0.2787
   52MOL   H18119663   6.914   0.014   4.178 -0.3369  0.1377  0.0702
   52MOL   H18219664   6.736   0.177   4.016 -0.0496 -1.0050 -2.3832
   52MOL   H18319665   6.849   0.356   3.855 -0.5320  0.1068  2.2046
   52MOL   H18419666   6.982   0.248   3.794 -0.1386  0.5956 -1.5854
   52MOL   H18519667   7.133   0.379   3.931 -0.7479  0.8904  1.9196
   52MOL   H18619668   6.986   0.531   3.700 -0.4700 -0.2685  0.4511
   52MOL   H18719669   7.148   0.575   3.757  1.6613 -0.6833  1.0622
   52MOL   H18819670   7.126   0.426   3.688 -1.5452 -1.4268  0.7407
   52MOL   H18919671   7.069   0.609   4.016  0.6853 -2.5380  3.5226
   52MOL   H19019672   6.937   0.500   4.069 -0.4400 -0.6466 -0.4947
   52MOL   H19119673   6.917   0.598   3.921  1.3326 -1.4096 -3.4129
   52MOL   C19219674   6.858   0.017   3.924 -0.4453 -0.1918  0.7066
   52MOL   C19319675   6.790   0.025   3.781 -0.1986 -0.5029 -0.5141
   52MOL   O19419676   6.653   7.802   3.802  0.7258  0.0354  0.0681
   52MOL   C19519677   6.548   0.063   3.757 -0.4620 -0.1694 -0.1423
   52MOL   C19619678   6.415   7.809   3.781 -0.2144 -0.0345  1.0230
   52MOL   C19719679   6.371   0.012   3.927  0.2150 -0.0263  0.2960
   52MOL   C19819680   6.429   7.663   3.736 -0.0825  0.0261 -0.0238
   52MOL   H19919681   6.823   7.754   3.979  1.6642 -0.7156  1.2701
   52MOL   H20019682   6.965   0.014   3.901 -0.0427 -1.0483  2.6184
   52MOL   H20119683   6.787   0.133   3.767  0.5253 -0.3301  0.5855
   52MOL   H20219684   6.568   0.079   3.651  0.1503  0.1274  0.0112
   52MOL   H20319685   6.556   0.162   3.802 -0.2707  0.5951 -1.8169
   52MOL   H20419686   6.334   0.031   3.725 -1.3599 -4.1464 -0.9312
   52MOL   H20519687   6.435   7.799   4.007  1.8196 -0.9808 -1.4175
   52MOL   H20619688   6.350   0.115   3.959  1.3250  0.7883 -1.5267
   52MOL   H20719689   6.276   7.783   3.931 -0.0015  0.1775 -1.6363
   52MOL   H20819690   6.472   7.608   3.820  1.5539  0.2146 -0.7096
   52MOL   H20919691   6.342   7.599   3.723  1.4103 -1.6395 -2.3374
   52MOL   H21019692   6.487   7.645   3.645  2.1958  1.7717  1.0368
   52MOL   C21119693   6.844   7.760   3.672  0.4386  0.2909  0.1676
   52MOL   C21219694   6.791   7.791   3.534 -0.0461  0.4524  0.1362
   52MOL   O21319695   6.809   0.107   3.512  0.0446 -0.6850 -0.1623
   52MOL   C21419696   6.712   0.166   3.421  0.0442  0.4696 -0.2395
   52MOL   C21519697   6.680   0.303   3.477  0.1221  0.1715 -0.1934
   52MOL   C21619698   6.804   0.392   3.480 -1.1115 -0.4881  0.1728
   52MOL   C21719699   6.560   0.373   3.414  0.3013  0.3528 -0.4484
   52MOL   H21819700   6.834   7.652   3.686 -0.1885 -0.1488 -3.1480
   52MOL   H21919701   6.948   7.794   3.663  0.5238 -0.1660 -0.6648
   52MOL   H22019702   6.686   7.764   3.546  0.7109 -3.0083 -0.3355
   52MOL   H22119703   6.622   0.105   3.415  1.2618 -1.2188 -2.1467
   52MOL   H22219704   6.752   0.182   3.320 -0.8797 -0.7342 -0.8105
   52MOL   H22319705   6.665   0.277   3.582  0.2318  0.3951 -0.1222
   52MOL   H22419706   6.876   0.342   3.545 -0.3162  1.6599  0.9755
   52MOL   H22519707   6.842   0.403   3.378 -0.4294 -1.8942  0.2582
   52MOL   H22619708   6.793   0.487   3.532  0.1590  0.2054 -0.7902
   52MOL   H22719709   6.470   0.312   3.407  0.1651  0.5353 -0.2838
   52MOL   H22819710   6.593   0.402   3.314  1.4161 -1.3564 -0.5991
   52MOL   H22919711   6.539   0.457   3.480 -0.0048 -0.6954  0.8215
   52MOL   C23019712   6.843   7.707   3.418 -0.1063 -0.4040  0.5143
   52MOL   C23119713   6.833   7.556   3.431 -0.6180 -0.4590 -0.1731
   52MOL   O23219714   6.696   7.525   3.430 -0.8585  0.2440  0.1481
   52MOL   C23319715   6.649   7.427   3.517  0.4016  0.0307 -0.3416
   52MOL   C23419716   6.510   7.381   3.480  0.2871  0.2995 -0.2107
   52MOL   C23519717   6.506   7.339   3.335  0.5981 -0.5002 -0.0032
   52MOL   C23619718   6.455   7.268   3.567  0.0854 -0.5384  0.4910
   52MOL   H23719719   6.948   7.737   3.412 -0.1392 -0.7926 -3.0777
   52MOL   H23819720   6.805   7.733   3.319 -2.1800  2.1802  1.9194
   52MOL   H23919721   6.872   7.524   3.527 -1.4605 -4.5968 -1.1308
   52MOL   H24019722   6.719   7.344   3.521  1.5276  1.0460  1.5628
   52MOL   H24119723   6.639   7.469   3.617 -0.3045  0.1363 -0.4521
   52MOL   H24219724   6.457   7.476   3.488 -0.5154 -0.2654  1.2162
   52MOL   H24319725   6.591   7.283   3.295  1.3205 -2.5530  4.1704
   52MOL   H24419726   6.491   7.429   3.275  2.2739 -1.0029 -1.2038
   52MOL   H24519727   6.413   7.300   3.294  1.4997 -0.7366 -1.9093
   52MOL   H24619728   6.475   7.309   3.666  0.3311  0.4749  0.0292
   52MOL   H24719729   6.347   7.258   3.555  0.2080 -1.3128 -0.0590
   52MOL   H24819730   6.499   7.170   3.549 -0.2836 -1.0598  2.3007
   52MOL   C24919731   6.914   7.487   3.312  0.2838 -0.4221  0.3039
   52MOL   C25019732   7.019   7.374   3.354 -0.0985  0.4199  0.7144
   52MOL   O25119733   7.035   7.288   3.243 -0.5836  0.1155 -0.2594
   52MOL   C25219734   6.949   7.170   3.239 -0.2716 -0.4215 -0.2861
   52MOL   C25319735   6.997   7.079   3.125  0.4427 -0.5275 -0.5545
   52MOL   C25419736   6.895   6.966   3.099  0.6525  0.1649 -0.1457
   52MOL   C25519737   7.143   7.020   3.136 -0.2150 -0.3155 -0.5161
   52MOL   H25619738   6.972   7.556   3.251  0.7480 -1.1555 -0.0979
   52MOL   H25719739   6.842   7.442   3.244 -0.1738  0.9959 -0.1460
   52MOL   H25819740   6.966   7.315   3.428 -1.2771  1.1065  0.4330
   52MOL   H25919741   6.958   7.120   3.335  3.7546  2.7927  1.1663
   52MOL   H26019742   6.842   7.192   3.235 -0.1199  0.8517  2.0048
   52MOL   H26119743   6.989   7.136   3.032  0.9022 -0.1070 -0.3408
   52MOL   H26219744   6.792   7.000   3.113  0.4322  0.0619 -1.4781
   52MOL   H26319745   6.916   6.880   3.162  1.2374 -0.1373 -0.7475
   52MOL   H26419746   6.926   6.932   3.000 -1.9651 -1.4794 -0.4724
   52MOL   H26519747   7.213   7.102   3.121 -0.6278  0.1327  0.0140
   52MOL   H26619748   7.169   6.965   3.227  0.1088 -3.0360 -2.1914
   52MOL   H26719749   7.163   6.941   3.064 -0.1265 -0.7984  0.0313
   52MOL   C26819750   7.160   7.432   3.393 -0.0264 -0.9476 -0.6871
   52MOL   C26919751   7.238   7.345   3.496  0.0218  0.4302 -0.1064
   52MOL   O27019752   7.162   7.354   3.621  0.1643 -0.3384  0.1194
   52MOL   C27119753   7.120   7.231   3.670  0.0622  0.3907  0.6434
   52MOL   C27219754   7.045   7.243   3.802  0.2542 -0.2250  0.2310
   52MOL   C27319755   6.934   7.349   3.782  0.1435  0.3262 -0.0982
   52MOL   C27419756   6.974   7.116   3.852 -0.4900 -0.5403  0.4718
   52MOL   H27519757   7.147   7.526   3.447  0.6490  0.2825 -2.6006
   52MOL   H27619758   7.225   7.453   3.308  0.4126  3.6038  0.6383
   52MOL   H27719759   7.237   7.246   3.452  0.0515  0.2937  0.2003
   52MOL   H27819760   7.059   7.160   3.613  0.7588 -0.7849  1.3419
   52MOL   H27919761   7.219   7.189   3.686 -0.4668 -0.6707  1.2252
   52MOL   H28019762   7.102   7.284   3.885  2.8065  1.1007 -2.0838
   52MOL   H28119763   6.868   7.317   3.702  2.1205 -1.1347 -1.2170
   52MOL   H28219764   6.975   7.443   3.746 -0.2823  0.5421 -0.0136
   52MOL   H28319765   6.869   7.370   3.867  0.3179  1.3265 -0.2080
   52MOL   H28419766   7.032   7.025   3.857 -1.0448 -0.9922 -1.0924
   52MOL   H28519767   6.890   7.090   3.788  0.4141  4.4036 -3.0340
   52MOL   H28619768   6.940   7.130   3.954 -1.4550  0.6632 -0.0023
   52MOL   C28719769   7.371   7.394   3.537  0.0045  0.0408  0.5057
   52MOL   C28819770   7.493   7.368   3.445  0.0668 -0.5596 -0.8179
   52MOL   O28919771   7.522   7.231   3.479  0.0022 -0.3364  0.2780
   52MOL   C29019772   7.537   7.137   3.381 -0.1432  0.3706 -0.3703
   52MOL   C29119773   7.543   6.994   3.451 -0.6614 -0.1498 -0.3530
   52MOL   C29219774   7.403   6.962   3.519  0.7337 -0.7342  0.2622
   52MOL   C29319775   7.662   6.975   3.547 -0.4522  0.0830  0.4664
   52MOL   H29419776   7.386   7.345   3.633 -2.1771  1.4462  1.5837
   52MOL   H29519777   7.359   7.501   3.554  0.1416 -0.1890  2.0724
   52MOL   H29619778   7.460   7.382   3.342  0.5637  0.2871 -0.8702
   52MOL   H29719779   7.454   7.133   3.311 -0.4108 -3.5010  0.0544
   52MOL   H29819780   7.635   7.149   3.334 -0.0032 -0.4764 -0.3212
   52MOL   H29919781   7.566   6.921   3.373  0.7686  1.6161 -1.6246
   52MOL   H30019782   7.404   6.863   3.563 -0.9879 -1.1769 -0.6417
   52MOL   H30119783   7.333   6.959   3.436  1.2337  0.9068 -0.2449
   52MOL   H30219784   7.366   7.038   3.587  0.7795 -0.0844 -0.4292
   52MOL   H30319785   7.758   7.016   3.519 -0.3549 -0.4485  0.0223
   52MOL   H30419786   7.639   7.040   3.632  0.4229  1.1533 -0.0993
   52MOL   H30519787   7.677   6.870   3.573 -2.5780  0.2175  2.4244
   52MOL   C30619788   7.614   7.461   3.483  0.5544 -0.1158 -0.3603
   52MOL   C30719789   7.617   7.604   3.426 -0.4240  0.1574 -0.0853
   52MOL   O30819790   7.743   7.664   3.466 -0.0817 -0.0131  0.3473
   52MOL   C30919791   7.740   7.744   3.582  0.1038 -0.0375  0.1611
   52MOL   C31019792   0.052   7.761   3.656 -0.2263 -0.5713  0.3947
   52MOL   C31119793   0.162   7.815   3.571  0.4235  0.2172 -0.3011
   52MOL   C31219794   0.086   7.627   3.718 -0.2027 -0.4733  0.3151
   52MOL   H31319795   7.704   7.419   3.439  1.8428  2.7841 -0.6086
   52MOL   H31419796   7.632   7.464   3.590 -1.1308 -1.7906 -0.0113
   52MOL   H31519797   7.528   7.645   3.472 -0.9279  0.6590 -1.4790
   52MOL   H31619798   7.669   7.704   3.654  1.2566 -0.7180  0.9514
   52MOL   H31719799   7.713   0.022   3.558  1.0305 -0.0494 -1.0157
   52MOL   H31819800   0.024   0.002   3.738 -1.4031 -0.0485 -0.4098
   52MOL   H31919801   0.264   7.814   3.610  0.0931 -2.4190  0.6031
   52MOL   H32019802   0.133   0.085   3.527 -0.6904  1.0520  2.1591
   52MOL   H32119803   0.165   7.757   3.478 -0.2072  2.5171 -1.7953
   52MOL   H32219804   0.187   7.615   3.757 -0.2692 -1.8120  0.0949
   52MOL   H32319805   0.073   7.555   3.638  1.6895  0.2843 -0.7046
   52MOL   H32419806   0.011   7.613   3.796 -1.5925  0.8399 -0.7300
   52MOL   C32519807   7.610   7.606   3.274  0.5703  0.9186  0.2655
   52MOL   C32619808   7.584   7.749   3.205  0.3705 -0.0448 -0.0248
   52MOL   O32719809   7.601   7.746   3.062 -0.4629  0.4668 -0.1961
   52MOL   C32819810   7.721   7.800   3.012 -0.3859 -0.2899  0.1226
   52MOL   C32919811   7.770   7.768   2.867  0.1141  0.7473  0.3960
   52MOL   C33019812   0.067   0.029   2.831 -0.4873 -0.0812  0.0075
   52MOL   C33119813   7.793   7.613   2.846  0.0765  0.0434  0.1616
   52MOL   H33219814   7.541   7.537   3.226  2.6099  0.2017 -1.7153
   52MOL   H33319815   7.701   7.561   3.235 -0.2741  0.5563 -1.3612
   52MOL   H33419816   7.653   7.815   3.257  2.1380 -1.5725 -0.3857
   52MOL   H33519817   7.709   0.084   3.020 -0.0954 -0.1235 -1.6173
   52MOL   H33619818   7.805   7.786   3.080 -0.7975  1.0845  0.9427
   52MOL   H33719819   7.696   7.811   2.799  0.6036  2.6739  1.0436
   52MOL   H33819820   0.050   0.133   2.861  1.2780  0.8334 -1.9673
   52MOL   H33919821   0.166   7.819   2.857 -0.6045 -0.7842 -0.4549
   52MOL   H34019822   0.079   0.029   2.722  2.2638  1.0351  0.2770
   52MOL   H34119823   7.704   7.552   2.865 -0.1277  0.4448  0.4920
   52MOL   H34219824   0.006   7.585   2.748 -1.3120 -1.1551 -0.0396
   52MOL   H34319825   0.049   7.583   2.914  0.6671  0.8450 -0.1809
   52MOL   C34419826   7.449   7.809   3.235 -0.0843  0.3879 -0.4793
   52MOL   C34519827   7.437   0.136   3.220 -0.8689 -0.4404  0.1612
   52MOL   O34619828   7.301   0.168   3.217  0.1039 -0.6087  0.3504
   52MOL   C34719829   7.240   0.198   3.088  0.3635  0.2880 -0.0058
   52MOL   C34819830   7.097   0.140   3.087  0.0410  0.2441  0.6138
   52MOL   C34919831   7.049   0.129   2.933  0.0227 -0.5833  0.4939
   52MOL   C35019832   7.009   0.229   3.182 -0.3379 -0.1705  0.5945
   52MOL   H35119833   7.428   7.778   3.338  1.3188  0.1922 -0.2428
   52MOL   H35219834   7.373   7.758   3.175  0.6068 -0.7359 -0.4035
   52MOL   H35319835   7.480   0.175   3.128  0.3944  0.4637  1.1196
   52MOL   H35419836   7.294   0.129   3.023  0.6017  0.3733  0.1015
   52MOL   H35519837   7.255   0.302   3.060  0.7682  0.7595  1.8874
   52MOL   H35619838   7.106   0.037   3.123  1.4087  0.6057  1.3173
   52MOL   H35719839   7.138   0.133   2.870  0.7859  2.4558  1.6562
   52MOL   H35819840   7.001   0.225   2.912 -0.1410 -0.7698  0.0239
   52MOL   H35919841   6.974   0.053   2.913 -1.2961  0.6520  0.6690
   52MOL   H36019842   6.904   0.216   3.155  0.7026 -1.3680 -3.2643
   52MOL   H36119843   7.046   0.200   3.280 -2.2657 -0.4311  1.2701
   52MOL   H36219844   7.032   0.335   3.171  0.5138 -0.5534 -1.6291
   52MOL   C36319845   7.502   0.208   3.337 -0.0350  0.0789  0.2243
   52MOL   C36419846   7.487   0.358   3.319 -0.6487  0.4023  0.7130
   52MOL   O36519847   7.565   0.405   3.209 -0.0324  0.5241 -0.3228
   52MOL   C36619848   7.505   0.526   3.168  0.0640 -0.1316 -0.4146
   52MOL   C36719849   7.555   0.566   3.025  1.2205 -0.4972 -0.0535
   52MOL   C36819850   7.503   0.474   2.914 -0.0185 -0.6159  0.1628
   52MOL   C36919851   7.715   0.566   3.041 -0.0281  0.8083 -0.4636
   52MOL   H37019852   7.459   0.174   3.431 -0.2001  1.3554  0.6172
   52MOL   H37119853   7.610   0.199   3.349 -0.0687 -3.0558 -1.1751
   52MOL   H37219854   7.522   0.403   3.412  1.2297  3.1390 -1.2260
   52MOL   H37319855   7.397   0.520   3.168  0.1811 -2.4413 -0.1238
   52MOL   H37419856   7.541   0.603   3.237  1.4372  2.9036 -4.2933
   52MOL   H37519857   7.528   0.669   3.004  0.7249 -0.6536 -0.1906
   52MOL   H37619858   7.396   0.470   2.934  0.2152 -1.2920  1.2978
   52MOL   H37719859   7.536   0.371   2.914 -0.2489 -0.6957 -0.9070
   52MOL   H37819860   7.520   0.504   2.810 -0.7216 -1.1410 -0.1119
   52MOL   H37919861   7.728   0.642   3.118  0.2717  1.7112 -1.4059
   52MOL   H38019862   7.748   0.604   2.944 -1.2013  1.7438 -0.5033
   52MOL   H38119863   7.767   0.473   3.064 -1.1667  0.6003  1.3505
   52MOL   H38219864   7.380   0.374   3.320 -0.7127 -0.0418  2.1693
   53MOL     C119865   6.957   6.995   2.576 -0.0594 -0.0980 -0.0970
   53MOL     C219866   6.903   6.900   2.464 -0.3375  0.3383 -0.7875
   53MOL     O319867   6.846   6.973   2.351  0.6391  0.2521  0.2822
   53MOL     C419868   6.698   6.962   2.359 -0.8421  0.0127 -0.5536
   53MOL     C519869   6.628   7.054   2.253  0.1337 -0.6102 -0.5286
   53MOL     C619870   6.687   7.013   2.109  0.2225 -0.1100  0.3607
   53MOL     C719871   6.644   7.199   2.292  0.7322 -0.4727  0.3470
   53MOL     H819872   6.904   7.089   2.587  1.7993  0.9935 -0.3797
   53MOL     H919873   6.944   6.944   2.671 -0.5201  1.6096  0.7551
   53MOL    H1019874   6.834   6.831   2.512 -0.8575  0.5539 -1.2116
   53MOL    H1119875   6.665   6.993   2.459 -0.7245  3.2250 -1.4537
   53MOL    H1219876   6.669   6.858   2.342  1.0290 -0.4526 -0.9969
   53MOL    H1319877   6.521   7.035   2.257  0.3248 -1.7899 -0.8549
   53MOL    H1419878   6.649   7.082   2.034  2.4014  2.0664  1.2037
   53MOL    H1519879   6.794   7.009   2.092 -0.1047 -2.0829 -1.4630
   53MOL    H1619880   6.649   6.913   2.087 -1.0367  0.0325  1.7611
   53MOL    H1719881   6.583   7.221   2.379  2.1505  0.7915  1.0545
   53MOL    H1819882   6.739   7.244   2.321  0.3720 -0.0325  0.8698
   53MOL    H1919883   6.597   7.263   2.217 -1.6999 -1.5004  0.9414
   53MOL    H2019884   7.063   7.018   2.570  0.2949 -2.1446 -3.5085
   53MOL    C2119885   7.012   6.814   2.409 -0.6890 -0.4104 -0.8846
   53MOL    C2219886   6.956   6.700   2.325 -0.4098  0.1077 -0.2655
   53MOL    O2319887   7.055   6.666   2.226  1.0288  0.0049  0.1632
   53MOL    C2419888   7.033   6.714   2.091  0.3322  0.5432 -0.1504
   53MOL    C2519889   7.168   6.691   2.029 -0.0937  0.6621 -0.8471
   53MOL    C2619890   7.266   6.800   2.077  0.5581 -0.4192  0.9021
   53MOL    C2719891   7.227   6.552   2.048  0.0758 -0.0813 -0.1565
   53MOL    H2819892   7.081   6.875   2.351 -0.0648  0.3424  0.6000
   53MOL    H2919893   7.066   6.764   2.489 -0.4103 -0.8214 -1.3300
   53MOL    H3019894   6.870   6.744   2.273  0.3755 -0.3713 -1.9767
   53MOL    H3119895   7.010   6.818   2.066 -1.0330  0.1077 -0.7245
   53MOL    H3219896   6.969   6.654   2.027  1.9041 -1.4378  0.0932
   53MOL    H3319897   7.156   6.686   1.921  1.0641  1.3121 -1.0198
   53MOL    H3419898   7.324   6.754   2.157  2.4558  2.0268  0.9882
   53MOL    H3519899   7.208   6.891   2.094 -1.1664 -1.0931 -1.1134
   53MOL    H3619900   7.336   6.824   1.996 -0.9741  2.1340  0.2689
   53MOL    H3719901   7.317   6.539   1.987 -0.0397 -0.8843 -0.1698
   53MOL    H3819902   7.260   6.535   2.150  1.3147  1.0174 -0.3517
   53MOL    H3919903   7.151   6.480   2.016  0.7418 -0.9319  0.1590
   53MOL    C4019904   6.917   6.579   2.409 -0.2417  0.2939 -0.6761
   53MOL    C4119905   6.839   6.475   2.326  0.4123 -0.3984  0.3011
   53MOL    O4219906   6.716   6.539   2.290  0.0181 -0.4860 -0.3632
   53MOL    C4319907   6.631   6.466   2.201 -0.0055 -0.5892 -1.0809
   53MOL    C4419908   6.502   6.553   2.184 -0.5446  0.3091  0.2168
   53MOL    C4519909   6.408   6.504   2.073 -0.1884 -0.1424 -0.7316
   53MOL    C4619910   6.412   6.563   2.315 -0.3174  0.4687  0.9653
   53MOL    H4719911   6.865   6.604   2.501 -0.3068  1.5896 -1.0519
   53MOL    H4819912   7.014   6.539   2.438 -1.4305 -0.1581  2.8398
   53MOL    H4919913   6.893   6.440   2.238  0.9775  2.2020 -0.4157
   53MOL    H5019914   6.598   6.368   2.236 -1.2028 -0.0501 -0.7067
   53MOL    H5119915   6.691   6.456   2.110  0.0075 -3.8844 -0.7749
   53MOL    H5219916   6.542   6.651   2.157  1.4316 -0.1312  1.4400
   53MOL    H5319917   6.469   6.483   1.985  2.2847  2.7909  0.1932
   53MOL    H5419918   6.377   6.403   2.102 -0.3121 -0.3920 -1.7244
   53MOL    H5519919   6.327   6.574   2.052 -1.4305 -1.5835 -0.8680
   53MOL    H5619920   6.363   6.468   2.335 -0.5313  0.0909 -1.2414
   53MOL    H5719921   6.333   6.638   2.310  0.7194  1.4128 -2.3397
   53MOL    H5819922   6.474   6.577   2.404  0.4408 -1.0202  0.6865
   53MOL    C5919923   6.812   6.343   2.399 -0.5836  0.4058 -0.3098
   53MOL    C6019924   6.927   6.268   2.457  0.9210  0.3115  1.0227
   53MOL    O6119925   7.000   6.207   2.351  0.3269 -0.5507 -0.2450
   53MOL    C6219926   7.133   6.252   2.336  0.2369 -0.4001 -0.3327
   53MOL    C6319927   7.184   6.175   2.218  0.2303 -0.4006 -0.0072
   53MOL    C6419928   7.092   6.190   2.097 -0.5031 -0.2954 -0.4393
   53MOL    C6519929   7.326   6.216   2.178 -0.1410 -0.0194 -0.7892
   53MOL    H6619930   6.758   6.279   2.329 -3.2904  1.2582  0.9085
   53MOL    H6719931   6.743   6.357   2.483  0.0381  2.1138 -0.0712
   53MOL    H6819932   6.988   6.323   2.530  3.2555 -0.8689  0.0228
   53MOL    H6919933   7.138   6.360   2.321 -0.6805 -0.2631  0.3257
   53MOL    H7019934   7.183   6.224   2.428 -1.1738 -3.7398 -0.5229
   53MOL    H7119935   7.182   6.067   2.236 -1.7088 -0.6747 -1.5332
   53MOL    H7219936   7.135   6.132   2.015 -0.3002 -0.2868 -0.3377
   53MOL    H7319937   7.084   6.296   2.069  3.2492  0.1205 -0.0743
   53MOL    H7419938   6.996   6.145   2.121  0.2728 -0.4665  2.5097
   53MOL    H7519939   7.397   6.202   2.259 -0.4182  2.9243  0.0533
   53MOL    H7619940   7.366   6.165   2.090 -0.3128  0.9660 -1.4556
   53MOL    H7719941   7.330   6.324   2.163 -1.7250  0.3148  1.0675
   53MOL    C7819942   6.860   6.147   2.545  0.1878  0.1955  0.6487
   53MOL    C7919943   6.977   6.064   2.605  0.3710  0.3724 -0.3237
   53MOL    O8019944   7.014   6.134   2.722  0.0140 -0.5865  0.2921
   53MOL    C8119945   7.146   6.137   2.768 -0.5477 -1.0651  0.1363
   53MOL    C8219946   7.174   6.236   2.886  0.6925  0.1094 -0.2630
   53MOL    C8319947   7.126   6.383   2.865 -0.4915 -0.2006 -0.7232
   53MOL    C8419948   7.312   6.232   2.945 -0.0330  0.2459  0.2302
   53MOL    H8519949   6.804   6.082   2.478  0.3967 -0.4628  1.1202
   53MOL    H8619950   6.779   6.183   2.609  0.0820  1.6962 -0.2874
   53MOL    H8719951   7.061   6.070   2.536 -1.0313  1.9304 -1.9425
   53MOL    H8819952   7.165   6.035   2.800  2.4924 -0.3486  0.7335
   53MOL    H8919953   7.202   6.162   2.677 -1.7991  3.4490  0.4795
   53MOL    H9019954   7.109   6.199   2.965 -1.7907  0.5153 -2.0502
   53MOL    H9119955   7.156   6.450   2.945 -0.0148  0.1936 -1.2240
   53MOL    H9219956   7.017   6.386   2.873 -0.4542 -1.0546  0.2646
   53MOL    H9319957   7.158   6.434   2.774 -1.7315 -1.5108 -1.9342
   53MOL    H9419958   7.348   6.129   2.955  0.3837  0.4097  0.4241
   53MOL    H9519959   7.315   6.279   3.043  1.3918 -2.7025  1.6781
   53MOL    H9619960   7.391   6.274   2.882  0.4264  1.3806  1.5539
   53MOL    C9719961   6.942   5.921   2.626  0.1610  0.0457  0.6000
   53MOL    C9819962   6.916   5.827   2.508  0.3166 -0.4360 -0.8277
   53MOL    O9919963   6.909   5.696   2.572 -0.4320 -0.3171  0.4508
   53MOL   C10019964   6.821   5.600   2.527 -0.2134  0.5663 -0.6253
   53MOL   C10119965   6.849   5.459   2.580  0.1345 -0.0425 -0.7975
   53MOL   C10219966   6.994   5.427   2.541 -0.2227 -0.5103 -0.2388
   53MOL   C10319967   6.809   5.457   2.727 -0.4403  0.3555 -0.7515
   53MOL   H10419968   6.866   5.914   2.704  1.6118 -0.0309  2.0258
   53MOL   H10519969   7.028   5.882   2.680  0.3411  1.5581  1.4192
   53MOL   H10619970   6.825   5.857   2.455 -0.1463 -1.4268 -0.6046
   53MOL   H10719971   6.820   5.591   2.418 -0.6477 -0.0626 -0.5710
   53MOL   H10819972   6.720   5.630   2.557 -0.0443 -1.8984  2.7451
   53MOL   H10919973   6.788   5.388   2.524  0.6289  0.3335 -1.8333
   53MOL   H11019974   7.012   5.403   2.436  1.5637 -1.2316  0.2127
   53MOL   H11119975   7.068   5.504   2.561 -1.7578  0.8988  0.1036
   53MOL   H11219976   7.018   5.331   2.586 -1.8089 -2.1541 -2.7766
   53MOL   H11319977   6.700   5.466   2.724 -0.4201  0.9445  0.1253
   53MOL   H11419978   6.828   5.360   2.772 -2.0866  0.1850 -0.3914
   53MOL   H11519979   6.842   5.546   2.780  0.3516  0.0301 -0.6951
   53MOL   C11619980   7.024   5.841   2.394 -0.8984  0.3348 -0.1589
   53MOL   C11719981   7.034   5.723   2.294  0.1272 -0.1793 -0.3243
   53MOL   O11819982   6.908   5.724   2.219  0.4770 -0.5389 -0.2369
   53MOL   C11919983   6.865   5.610   2.148 -0.4161  0.8557 -0.0349
   53MOL   C12019984   6.727   5.634   2.073  0.0083 -0.6065 -0.5322
   53MOL   C12119985   6.721   5.770   1.996 -0.2502  0.2852 -0.0289
   53MOL   C12219986   6.681   5.519   1.982  0.0197  0.2218 -0.0222
   53MOL   H12319987   7.003   5.932   2.338  2.0266  0.4439 -1.2055
   53MOL   H12419988   7.121   5.851   2.444 -1.7677  3.0919  1.0663
   53MOL   H12519989   7.045   5.630   2.350  0.0119 -0.2361 -0.3942
   53MOL   H12619990   6.856   5.528   2.219 -0.3485 -0.6450 -1.7480
   53MOL   H12719991   6.939   5.581   2.074 -1.4740 -0.4225 -0.6198
   53MOL   H12819992   6.651   5.635   2.152  0.1726  0.4600 -0.3747
   53MOL   H12919993   6.782   5.764   1.906  2.6612  0.3367  1.8539
   53MOL   H13019994   6.735   5.860   2.056  1.0450  0.4224 -0.5153
   53MOL   H13119995   6.619   5.789   1.963 -0.3462  0.5953  0.4473
   53MOL   H13219996   6.577   5.527   1.949 -0.9618 -2.8380  2.1209
   53MOL   H13319997   6.740   5.503   1.892 -0.9976 -1.1523 -0.4543
   53MOL   H13419998   6.688   5.434   2.049 -1.5289  0.6796  0.7570
   53MOL   C13519999   7.155   5.748   2.201  0.0726  0.6117  0.3682
   53MOL   C13620000   7.282   5.692   2.259 -0.0689  0.4010 -0.1306
   53MOL   O13720001   7.319   5.575   2.191  0.3534  0.8048 -0.5968
   53MOL   C13820002   7.244   5.462   2.229  0.6834 -0.2939 -0.6332
   53MOL   C13920003   7.319   5.331   2.190 -0.1557 -0.7133 -1.0279
   53MOL   C14020004   7.238   5.208   2.221  0.5222 -0.2285 -0.5552
   53MOL   C14120005   7.355   5.322   2.042 -0.7974  0.3784 -0.1231
   53MOL   H14220006   7.140   5.705   2.102 -1.5541  2.6138 -0.2815
   53MOL   H14320007   7.161   5.853   2.172  0.3912  0.4102 -0.2945
   53MOL   H14420008   7.268   5.675   2.366  0.9517  0.1693 -0.0320
   53MOL   H14520009   7.143   5.466   2.189 -0.2893  0.5648  1.8597
   53MOL   H14620010   7.230   5.457   2.337  2.8109 -0.7720 -0.3632
   53MOL   H14720011   7.414   5.332   2.243 -0.9121  0.4033  0.3415
   53MOL   H14820012   7.152   5.210   2.154 -1.6990 -1.6567  2.1527
   53MOL   H14920013   7.211   5.202   2.326 -1.8064  2.9815 -0.8759
   53MOL   H15020014   7.294   5.117   2.197 -1.0486 -0.9897 -1.4280
   53MOL   H15120015   7.446   5.380   2.022 -0.2472 -0.3260  0.3294
   53MOL   H15220016   7.372   5.220   2.007 -0.2340  0.5758 -0.4411
   53MOL   H15320017   7.270   5.359   1.985 -0.8376 -0.0159 -0.3160
   53MOL   C15420018   7.396   5.797   2.234 -0.0488  0.0392 -0.1789
   53MOL   C15520019   7.534   5.776   2.303 -0.2115 -0.5051  0.1022
   53MOL   O15620020   7.504   5.762   2.441 -0.2311 -0.2055 -0.2572
   53MOL   C15720021   7.613   5.825   2.514  0.0615  0.2104 -0.0002
   53MOL   C15820022   7.579   5.832   2.665  0.4765 -0.2991 -0.5918
   53MOL   C15920023   7.446   5.902   2.696 -0.2795 -1.1804  0.1022
   53MOL   C16020024   7.588   5.692   2.731  0.1836  0.0067 -0.5359
   53MOL   H16120025   7.364   5.895   2.269 -2.6666 -0.5540 -0.7423
   53MOL   H16220026   7.422   5.810   2.129 -0.1416 -3.3215 -0.6813
   53MOL   H16320027   7.589   5.868   2.283 -1.5256  0.3244  0.2194
   53MOL   H16420028   7.638   5.922   2.470  0.9059 -1.2231 -2.8255
   53MOL   H16520029   7.704   5.767   2.499 -1.0344 -1.0692 -1.9708
   53MOL   H16620030   7.656   5.894   2.712 -0.6102 -0.7067  1.7788
   53MOL   H16720031   7.462   6.007   2.673  3.3943 -2.0842 -1.8580
   53MOL   H16820032   7.417   5.894   2.801 -0.7507 -1.0134 -0.0165
   53MOL   H16920033   7.360   5.865   2.640 -0.3812 -0.6728 -0.0724
   53MOL   H17020034   7.590   5.710   2.838 -1.7819  1.3486 -0.6956
   53MOL   H17120035   7.505   5.626   2.706  0.3193 -0.4192  0.1084
   53MOL   H17220036   7.679   5.638   2.702 -0.1273 -0.1812 -1.1732
   53MOL   C17320037   7.616   5.659   2.245 -0.2310  0.3161  0.1944
   53MOL   C17420038   7.642   5.665   2.097  0.3252  0.4372 -0.0114
   53MOL   O17520039   7.714   5.783   2.068  0.6545  0.1859 -0.3693
   53MOL   C17620040   7.693   5.829   1.932  0.1019  0.0698  0.4946
   53MOL   C17720041   7.738   5.979   1.934 -0.3928  0.3431  0.8003
   53MOL   C17820042   7.644   6.055   2.028  0.4948  0.1344  1.0785
   53MOL   C17920043   0.052   6.019   1.988 -0.0894  0.0834  0.1136
   53MOL   H18020044   7.712   5.658   2.296 -0.1267  1.2762  0.0252
   53MOL   H18120045   7.559   5.569   2.272  1.4452 -0.9908 -0.5202
   53MOL   H18220046   7.547   5.667   2.043  0.6491  0.4115 -0.5794
   53MOL   H18320047   7.593   5.813   1.892  0.4322 -0.5150 -0.0917
   53MOL   H18420048   7.755   5.781   1.857 -1.3456  1.5374 -1.7079
   53MOL   H18520049   7.726   5.998   1.828 -2.3002  2.1738  1.3148
   53MOL   H18620050   7.543   6.016   2.017  1.7421 -2.7579 -0.8736
   53MOL   H18720051   7.663   6.042   2.135 -1.1369 -2.0711  1.1312
   53MOL   H18820052   7.646   6.161   2.003 -0.2438 -0.4514 -1.5694
   53MOL   H18920053   0.061   5.996   2.094  0.2007  0.0638  0.0836
   53MOL   H19020054   0.076   6.122   1.963  1.3868 -0.1979  0.3469
   53MOL   H19120055   0.130   5.968   1.931  0.8522  2.2198 -0.5293
   53MOL   C19220056   7.725   5.547   2.040 -0.4973  0.0594 -0.5668
   53MOL   C19320057   0.039   5.523   2.112 -0.1754  0.1482  0.5196
   53MOL   O19420058   0.136   5.518   2.007 -0.0354  0.0108  0.3023
   53MOL   C19520059   0.213   5.631   1.986  0.5672 -0.1716 -0.4965
   53MOL   C19620060   0.259   5.634   1.839 -0.2031 -0.2271  0.6514
   53MOL   C19720061   0.152   5.640   1.729  0.8614 -0.2139  0.1614
   53MOL   C19820062   0.360   5.526   1.812 -0.3992  1.1117  0.3626
   53MOL   H19920063   7.732   5.555   1.932 -2.3563  1.2878 -0.6277
   53MOL   H20020064   7.671   5.453   2.055  1.2839 -1.0488 -0.9188
   53MOL   H20120065   0.069   5.608   2.173  0.0371  0.6305 -0.2502
   53MOL   H20220066   0.306   5.633   2.044  1.1582 -1.4286 -1.3716
   53MOL   H20320067   0.166   5.727   2.005 -1.9914 -0.7822 -3.3786
   53MOL   H20420068   0.325   5.720   1.829  0.4426 -0.9053 -1.2410
   53MOL   H20520069   0.117   5.743   1.720  1.9080  0.1499  0.1274
   53MOL   H20620070   0.194   5.616   1.631 -0.2359 -0.1094 -0.3351
   53MOL   H20720071   0.067   5.573   1.742 -0.0770  0.9062 -0.2042
   53MOL   H20820072   0.449   5.535   1.874  1.2272 -1.0693 -1.5774
   53MOL   H20920073   0.324   5.425   1.834 -0.3577  0.8160 -0.8976
   53MOL   H21020074   0.389   5.524   1.707 -1.6654 -2.1896  0.0233
   53MOL   C21120075   0.040   5.406   2.219  0.0565 -0.4985  0.3706
   53MOL   C21220076   0.176   5.392   2.288  0.1280  0.4582 -0.5897
   53MOL   O21320077   0.156   5.332   2.417 -0.1629 -0.0499 -0.0900
   53MOL   C21420078   0.255   5.353   2.518  0.2014  0.0512 -0.3413
   53MOL   C21520079   0.184   5.343   2.648  0.9896 -0.1141 -0.5747
   53MOL   C21620080   0.289   5.354   2.753  0.0367 -0.6705 -0.1479
   53MOL   C21720081   0.076   5.457   2.671  0.2233  0.6702  1.0775
   53MOL   H21820082   0.015   5.312   2.170 -2.6979  0.7039 -0.6174
   53MOL   H21920083   7.792   5.430   2.296  0.4417  0.8218  0.3471
   53MOL   H22020084   0.214   5.491   2.313 -2.2211  0.6664  2.3994
   53MOL   H22120085   0.301   5.451   2.519 -1.8544  1.0298  1.6959
   53MOL   H22220086   0.332   5.276   2.516  0.4421  0.2357  1.4049
   53MOL   H22320087   0.134   5.246   2.658  0.3558  0.2736  0.0271
   53MOL   H22420088   0.361   5.273   2.747  1.5813  0.6821 -0.0258
   53MOL   H22520089   0.347   5.445   2.767 -1.9751  0.3716  1.8362
   53MOL   H22620090   0.242   5.353   2.852  0.4663  0.0002  0.0664
   53MOL   H22720091   7.811   5.430   2.615  0.6915 -0.0277  0.6685
   53MOL   H22820092   0.103   5.555   2.632 -0.5330  1.0033  1.3871
   53MOL   H22920093   0.039   5.473   2.773  2.2438  3.6947  1.4143
   53MOL   C23020094   0.281   5.302   2.210  0.5602 -0.2734 -0.6479
   53MOL   C23120095   0.428   5.354   2.190  0.6915 -0.4809 -0.2910
   53MOL   O23220096   0.522   5.356   2.296 -0.2381 -0.1685  0.5764
   53MOL   C23320097   0.550   5.485   2.354 -0.9066 -0.1686  0.1788
   53MOL   C23420098   0.613   5.477   2.496  0.0171  0.4233 -0.4475
   53MOL   C23520099   0.744   5.397   2.508  0.1563  0.1838  0.3877
   53MOL   C23620100   0.609   5.617   2.567 -0.6246  0.2959 -0.3222
   53MOL   H23720101   0.241   5.287   2.110  0.3225  1.4120 -0.8174
   53MOL   H23820102   0.275   5.204   2.259  2.0406  0.6146  1.3788
   53MOL   H23920103   0.420   5.458   2.157 -0.0189 -0.6264 -0.5947
   53MOL   H24020104   0.610   5.545   2.285  0.3794 -0.4740  1.0105
   53MOL   H24120105   0.463   5.549   2.365  1.0254  2.3883  1.0569
   53MOL   H24220106   0.533   5.423   2.547  0.2239 -0.0968 -0.6759
   53MOL   H24320107   0.729   5.294   2.477 -0.1041  0.4733 -0.4732
   53MOL   H24420108   0.780   5.398   2.611 -1.0636  0.9455  0.8281
   53MOL   H24520109   0.822   5.448   2.452 -1.9774  0.9739 -1.9719
   53MOL   H24620110   0.639   5.620   2.671  0.2569 -1.3954 -0.5234
   53MOL   H24720111   0.677   5.685   2.515  1.1434  0.1904  1.7787
   53MOL   H24820112   0.510   5.663   2.562 -1.4785 -1.5400 -0.5278
   53MOL   C24920113   0.498   5.279   2.078 -0.0632 -0.0192  0.8874
   53MOL   C25020114   0.482   5.125   2.064  0.4313 -0.4590  0.1385
   53MOL   O25120115   0.550   5.094   1.942 -0.7668  0.2898 -0.2757
   53MOL   C25220116   0.485   5.000   1.859  0.2277  0.2428  0.3860
   53MOL   C25320117   0.381   5.074   1.773  0.6454  0.3597 -0.0128
   53MOL   C25420118   0.294   4.975   1.690  0.0834 -0.0757  0.1571
   53MOL   C25520119   0.458   5.171   1.678 -0.0353 -0.2033  0.3643
   53MOL   H25620120   0.604   5.305   2.080  0.1800 -0.9785  0.8687
   53MOL   H25720121   0.464   5.303   1.977  1.7375  1.9822  0.7156
   53MOL   H25820122   0.374   5.112   2.058  0.5864 -1.3011 -0.9102
   53MOL   H25920123   0.554   4.944   1.797  0.7849  0.6282  0.6499
   53MOL   H26020124   0.442   4.925   1.925 -0.7332 -2.5386 -3.2350
   53MOL   H26120125   0.313   5.128   1.839  0.3810  0.2898 -0.2260
   53MOL   H26220126   0.369   4.920   1.634  1.5912  1.0621  1.0049
   53MOL   H26320127   0.220   5.026   1.628  0.6956  0.3492 -0.2396
   53MOL   H26420128   0.242   4.896   1.743  0.5313 -0.1987  0.4130
   53MOL   H26520129   0.520   5.233   1.743 -0.0720 -0.0350  0.2381
   53MOL   H26620130   0.527   5.128   1.605 -1.0768  0.4584 -1.0091
   53MOL   H26720131   0.396   5.242   1.625  1.6176  2.8013  2.3208
   53MOL   C26820132   0.536   5.054   2.189 -0.4851 -0.1844 -0.3348
   53MOL   C26920133   0.500   4.903   2.214  0.2472 -0.2194 -1.1841
   53MOL   O27020134   0.367   4.894   2.255 -0.6597 -0.5226 -0.0836
   53MOL   C27120135   0.288   4.808   2.177 -0.8145  0.2881 -0.8552
   53MOL   C27220136   0.151   4.791   2.235 -0.7312 -0.0479  0.1561
   53MOL   C27320137   0.061   4.715   2.138  0.4707  0.4092 -0.7127
   53MOL   C27420138   0.158   4.714   2.362  0.1371 -0.6366 -0.4617
   53MOL   H27520139   0.499   5.109   2.276  1.7910 -0.8799  1.1133
   53MOL   H27620140   0.643   5.070   2.202 -0.9219  2.3357  0.2871
   53MOL   H27720141   0.517   4.841   2.126  1.0688  0.8428 -1.7796
   53MOL   H27820142   0.295   4.843   2.073  0.8984 -0.1261 -0.8936
   53MOL   H27920143   0.352   4.721   2.186 -0.2947  0.9527  2.1574
   53MOL   H28020144   0.113   4.890   2.259 -1.0853 -0.0643 -0.3205
   53MOL   H28120145   0.091   4.617   2.100 -0.6616 -0.7648  1.3270
   53MOL   H28220146   0.051   4.764   2.041  3.2657  0.9919 -0.7616
   53MOL   H28320147   7.788   4.702   2.184  1.6907  0.9580  2.0997
   53MOL   H28420148   0.225   4.759   2.436 -0.1618  2.2725 -1.8775
   53MOL   H28520149   0.187   4.610   2.346  0.2133 -0.7434  0.3522
   53MOL   H28620150   0.062   4.710   2.414 -0.0176 -2.1068 -0.8316
   53MOL   C28720151   0.576   4.848   2.341 -0.6214  0.6926 -0.0043
   53MOL   C28820152   0.729   4.838   2.339  0.5106 -0.4034  0.1807
   53MOL   O28920153   0.755   4.763   2.223 -0.3726  0.1098 -0.1736
   53MOL   C29020154   0.868   4.810   2.160 -0.1440 -0.4283  0.4107
   53MOL   C29120155   0.881   4.729   2.015 -0.2388 -0.5312  0.6282
   53MOL   C29220156   1.023   4.723   1.963  0.0178  0.1276 -0.3665
   53MOL   C29320157   0.774   4.785   1.919 -0.1199 -0.3555  0.2491
   53MOL   H29420158   0.532   4.750   2.357 -0.1372  0.5463  0.4154
   53MOL   H29520159   0.534   4.910   2.421  1.1689 -0.0176  1.5200
   53MOL   H29620160   0.754   4.944   2.331  1.4518 -0.5318  1.2941
   53MOL   H29720161   0.861   4.916   2.135  0.3380 -0.0598  1.8094
   53MOL   H29820162   0.956   4.791   2.221  0.0905  1.0030  0.5343
   53MOL   H29920163   0.867   4.623   2.035  1.3524 -0.7726  0.5033
   53MOL   H30020164   1.086   4.655   2.019 -1.2907 -1.6436 -1.0023
   53MOL   H30120165   1.070   4.821   1.951 -0.0429  0.3763  1.3444
   53MOL   H30220166   1.018   4.688   1.859 -0.2798  1.7188 -0.9025
   53MOL   H30320167   0.787   4.893   1.906 -1.4631 -0.3174 -0.8304
   53MOL   H30420168   0.763   4.730   1.826 -0.4633 -1.4371  0.9213
   53MOL   H30520169   0.680   4.784   1.973 -0.1721 -0.7122  0.1497
   53MOL   C30620170   0.796   4.776   2.469 -0.0948 -0.6454 -0.2569
   53MOL   C30720171   0.797   4.871   2.594  0.2225  0.3813  0.1135
   53MOL   O30820172   0.658   4.890   2.633 -0.0085 -0.4139  0.1840
   53MOL   C30920173   0.620   5.022   2.681  0.4914 -0.2873 -0.2923
   53MOL   C31020174   0.477   5.002   2.742  0.1150  0.2883  0.4113
   53MOL   C31120175   0.466   4.882   2.849  0.2817  0.0902  0.2757
   53MOL   C31220176   0.362   4.998   2.640  0.6587  0.2265 -0.2266
   53MOL   H31320177   0.894   4.731   2.455  0.8624  1.1382  0.6434
   53MOL   H31420178   0.740   4.693   2.512 -0.3641  1.1171  2.8907
   53MOL   H31520179   0.840   4.970   2.576  1.6801 -0.5318 -1.5584
   53MOL   H31620180   0.637   5.103   2.609  1.5896  0.3689  0.6758
   53MOL   H31720181   0.690   5.058   2.757 -0.3865  0.5109  0.1540
   53MOL   H31820182   0.452   5.091   2.799 -3.4889 -1.5003  1.7425
   53MOL   H31920183   0.544   4.906   2.921  1.8068 -0.6033 -1.1031
   53MOL   H32020184   0.501   4.788   2.806 -1.5124  0.3857 -1.9092
   53MOL   H32120185   0.367   4.879   2.894  1.3937  1.1412  2.8936
   53MOL   H32220186   0.386   5.067   2.558 -0.0107  0.0037 -0.6117
   53MOL   H32320187   0.270   5.033   2.686  1.3790 -0.2043  1.5691
   53MOL   H32420188   0.363   4.892   2.612 -2.1946  0.1673 -0.1771
   53MOL   C32520189   0.868   4.808   2.714 -0.2992  0.6728 -0.0192
   53MOL   C32620190   1.017   4.782   2.695 -0.1672  0.4749 -0.1257
   53MOL   O32720191   1.061   4.912   2.646 -0.1754 -0.1041 -0.2107
   53MOL   C32820192   1.187   4.918   2.576 -0.3821  0.7391 -0.1618
   53MOL   C32920193   1.224   5.061   2.532  0.0193 -0.5033  0.6810
   53MOL   C33020194   1.096   5.138   2.487  0.3823  0.2857 -0.0025
   53MOL   C33120195   1.287   5.138   2.650  0.5053  0.2588 -0.6396
   53MOL   H33220196   0.808   4.720   2.738 -2.4174  2.3606  1.0291
   53MOL   H33320197   0.857   4.880   2.795 -0.8565  1.9936 -1.2439
   53MOL   H33420198   1.024   4.718   2.607 -0.5400  1.3681 -0.8198
   53MOL   H33520199   1.259   4.875   2.645 -0.4847  0.1472 -0.4180
   53MOL   H33620200   1.191   4.844   2.496 -1.0019  0.2700  0.2344
   53MOL   H33720201   1.298   5.059   2.451  0.8883 -0.1859  1.4544
   53MOL   H33820202   1.043   5.148   2.581 -1.8269  3.6753 -1.5441
   53MOL   H33920203   1.133   5.231   2.444 -0.1102  0.4271 -0.1237
   53MOL   H34020204   1.044   5.079   2.411  1.7277  0.1073 -0.8087
   53MOL   H34120205   1.236   5.114   2.744  2.7847  0.5408  0.7156
   53MOL   H34220206   1.388   5.101   2.666  1.4542  3.2336  0.7505
   53MOL   H34320207   1.292   5.246   2.635 -1.8202  0.3590 -0.9064
   53MOL   C34420208   1.078   4.735   2.831 -0.1193 -0.1626  0.2409
   53MOL   C34520209   1.034   4.599   2.886  0.0444  0.2763 -0.0782
   53MOL   O34620210   1.133   4.505   2.862  0.2526 -0.1286 -0.8263
   53MOL   C34720211   1.171   4.480   2.724 -0.1575  0.4861 -0.1387
   53MOL   C34820212   1.291   4.387   2.737  0.3979 -0.4285 -0.6773
   53MOL   C34920213   1.272   4.266   2.825 -0.2820  0.1010 -0.1492
   53MOL   C35020214   1.415   4.469   2.787  0.0413  0.3392  0.9533
   53MOL   H35120215   1.047   4.803   2.910  1.1098  1.2072 -0.4268
   53MOL   H35220216   1.186   4.749   2.839 -0.0063 -1.6182  1.5415
   53MOL   H35320217   0.945   4.567   2.833  0.8019 -0.0166 -1.1863
   53MOL   H35420218   1.192   4.577   2.679  0.5450  0.6185  0.4662
   53MOL   H35520219   1.089   4.425   2.677 -0.1502  2.3059 -2.3669
   53MOL   H35620220   1.324   4.356   2.638  0.2414 -2.8801  0.0103
   53MOL   H35720221   1.356   4.203   2.797 -1.0731 -0.1764 -1.9291
   53MOL   H35820222   1.184   4.204   2.808  1.4860 -1.9865 -2.0558
   53MOL   H35920223   1.263   4.293   2.930 -3.0994 -2.6204  0.3628
   53MOL   H36020224   1.443   4.557   2.730  3.0449 -1.1657 -0.0024
   53MOL   H36120225   1.386   4.505   2.886 -0.1211 -1.4572  1.5742
   53MOL   H36220226   1.506   4.410   2.796  1.3469  1.7492 -2.2134
   53MOL   C36320227   1.011   4.601   3.042  0.2296 -0.0527 -0.0943
   53MOL   C36420228   0.861   4.639   3.076 -0.1420  0.3478 -0.0316
   53MOL   O36520229   0.815   4.590   3.202 -0.0159  0.0769  0.4465
   53MOL   C36620230   0.884   4.640   3.309  0.4557 -0.2971  0.1114
   53MOL   C36720231   0.843   4.554   3.434 -0.4246 -0.0189  0.4415
   53MOL   C36820232   0.893   4.640   3.552  0.3874  0.4388 -1.0306
   53MOL   C36920233   0.897   4.417   3.438  0.1057 -0.0272  0.2286
   53MOL   H37020234   1.032   4.501   3.079 -0.2119 -0.0312  0.2125
   53MOL   H37120235   1.078   4.671   3.092  0.1687 -0.5487  0.6852
   53MOL   H37220236   0.802   4.580   3.006 -1.8844  1.5304  0.3826
   53MOL   H37320237   0.992   4.635   3.295  0.6740  0.5742  1.3506
   53MOL   H37420238   0.854   4.744   3.318 -5.2059 -1.5653 -2.0861
   53MOL   H37520239   0.734   4.551   3.441 -0.4015 -0.3899  0.6211
   53MOL   H37620240   0.998   4.669   3.548  0.4918  0.3905  0.8098
   53MOL   H37720241   0.868   4.588   3.645  1.5864 -0.5583 -1.2477
   53MOL   H37820242   0.851   4.739   3.565  2.7949  1.4102 -0.4371
   53MOL   H37920243   0.869   4.371   3.533  2.8612 -0.1924  0.9939
   53MOL   H38020244   1.005   4.411   3.441  0.1264 -0.1605 -0.8048
   53MOL   H38120245   0.858   4.357   3.355  2.8884 -0.9948 -0.4125
   53MOL   H38220246   0.838   4.745   3.065  2.5381  0.9654 -0.0143
   54MOL     C120247   4.249   7.316   0.372  0.2628  0.1287  0.1600
   54MOL     C220248   4.317   7.331   0.237 -0.6148  0.2906 -0.0585
   54MOL     O320249   4.423   7.426   0.266  0.9205  0.3504  0.2310
   54MOL     C420250   4.394   7.562   0.252  0.1243 -0.3146 -0.9394
   54MOL     C520251   4.515   7.641   0.302  0.3755 -0.0800 -0.4361
   54MOL     C620252   4.536   7.621   0.452  0.1893 -0.0006  0.2899
   54MOL     C720253   4.500   7.785   0.258  0.3505  0.5054 -0.3047
   54MOL     H820254   4.213   7.416   0.395 -0.7839 -0.1562 -0.1961
   54MOL     H920255   4.170   7.241   0.379 -0.1527  0.7660  2.9515
   54MOL    H1020256   4.252   7.365   0.156 -1.8142 -0.2663  0.6465
   54MOL    H1120257   4.312   7.589   0.318  1.8621 -2.0946  2.0290
   54MOL    H1220258   4.360   7.586   0.151 -0.9665  0.1419 -0.4639
   54MOL    H1320259   4.607   7.620   0.248  0.2030  0.0614 -0.7898
   54MOL    H1420260   4.626   7.672   0.485  0.3997  0.7235 -1.3470
   54MOL    H1520261   4.460   7.662   0.519  0.4254 -0.9792  1.1614
   54MOL    H1620262   4.541   7.516   0.478  4.8326 -0.6450 -2.7899
   54MOL    H1720263   4.456   7.791   0.159 -1.7135 -0.0196  0.5584
   54MOL    H1820264   4.432   0.003   0.331  2.8486  0.9976  1.8331
   54MOL    H1920265   4.591   0.019   0.250 -1.6602  3.6090 -1.1139
   54MOL    H2020266   4.311   7.287   0.456 -0.2555  0.4340  0.6502
   54MOL    C2120267   4.380   7.200   0.195 -0.7827 -0.4311 -0.3213
   54MOL    C2220268   4.290   7.074   0.164 -0.2586  0.2959 -0.6363
   54MOL    O2320269   4.197   7.105   0.071 -0.3164  0.0082  0.2027
   54MOL    C2420270   4.067   7.135   0.123 -0.0565 -0.0273  0.6714
   54MOL    C2520271   3.980   7.138   7.821  0.4520 -0.1741  0.4900
   54MOL    C2620272   3.963   6.996   7.763 -0.1800 -0.0504 -0.2123
   54MOL    C2720273   3.835   7.194   0.022  0.7817 -0.5225 -0.1820
   54MOL    H2820274   4.442   7.218   0.107 -1.3470 -1.0836 -0.8458
   54MOL    H2920275   4.439   7.162   0.279  0.2727  0.6663 -0.5455
   54MOL    H3020276   4.256   7.029   0.258 -0.0372  1.9751  0.2622
   54MOL    H3120277   4.063   7.226   0.183  1.4096  0.1695  0.4864
   54MOL    H3220278   4.042   7.061   0.200 -1.7101  2.1232  2.2578
   54MOL    H3320279   4.039   7.195   7.750 -0.3126 -1.2886 -1.0610
   54MOL    H3420280   3.909   7.001   7.669 -0.0061 -1.1563 -0.3785
   54MOL    H3520281   3.927   6.913   7.823 -2.9022  0.8489 -0.5152
   54MOL    H3620282   4.054   6.959   7.715  0.0321  0.3514 -0.1248
   54MOL    H3720283   3.831   7.298   0.055  0.2867 -0.7879  0.6010
   54MOL    H3820284   3.773   7.188   7.758  2.4341 -2.4551 -1.2617
   54MOL    H3920285   3.797   7.143   0.111  1.6622  1.5434  1.4164
   54MOL    C4020286   4.385   6.967   0.098  0.3051  0.4919 -0.6692
   54MOL    C4120287   4.319   6.838   0.052  0.5741  0.0297  0.0619
   54MOL    O4220288   4.259   6.764   0.161 -0.1662  0.3360  0.2631
   54MOL    C4320289   4.135   6.709   0.141  0.0531 -0.4465 -0.0393
   54MOL    C4420290   4.105   6.606   0.247  0.5939  0.0730 -0.7280
   54MOL    C4520291   3.956   6.598   0.268  0.3339 -0.0777  0.2506
   54MOL    C4620292   4.174   6.475   0.215  0.8745  0.4429 -0.2402
   54MOL    H4720293   4.473   6.941   0.156  0.1268 -1.5715 -1.3158
   54MOL    H4820294   4.428   7.011   0.008  1.6699  0.3979 -0.0724
   54MOL    H4920295   4.239   6.875   7.812  1.6251  2.4584  0.1122
   54MOL    H5020296   4.124   6.671   0.039  1.0957 -2.4987  0.5712
   54MOL    H5120297   4.069   6.795   0.145 -0.0357 -0.4847 -0.6439
   54MOL    H5220298   4.142   6.651   0.339  1.6873  2.0438 -2.0768
   54MOL    H5320299   3.941   6.540   0.359  4.1123 -1.0806  0.3016
   54MOL    H5420300   3.903   6.689   0.296 -2.2981 -1.4939  0.0589
   54MOL    H5520301   3.893   6.546   0.195  0.4471  0.7469 -0.4385
   54MOL    H5620302   4.282   6.484   0.231  0.8761  1.3997 -0.7442
   54MOL    H5720303   4.158   6.425   0.120  1.4330 -2.5088  1.1630
   54MOL    H5820304   4.139   6.397   0.283 -1.5061  0.3840 -1.4677
   54MOL    C5920305   4.412   6.744   7.800 -0.4350 -0.2291 -0.0488
   54MOL    C6020306   4.445   6.795   7.655 -0.1372  0.2183 -0.6506
   54MOL    O6120307   4.330   6.809   7.570 -0.2514 -0.1552 -0.4351
   54MOL    C6220308   4.312   6.944   7.515  0.0866  0.3243  0.1585
   54MOL    C6320309   4.207   6.953   7.399 -0.7014  0.3375 -0.2488
   54MOL    C6420310   4.188   7.095   7.358  0.6898 -0.8642 -0.5246
   54MOL    C6520311   4.257   6.873   7.281  0.2614 -0.0279  0.6811
   54MOL    H6620312   4.369   6.643   7.797  1.1085 -0.8814 -0.7661
   54MOL    H6720313   4.504   6.735   0.032  0.2287 -0.4192 -1.1468
   54MOL    H6820314   4.485   6.896   7.659 -1.8766  0.8763  0.6140
   54MOL    H6920315   4.282   7.009   7.597  0.0411 -0.3892  0.7183
   54MOL    H7020316   4.404   6.988   7.476 -0.9963  3.2184  0.7252
   54MOL    H7120317   4.121   6.904   7.445 -1.1155  3.2810  2.2748
   54MOL    H7220318   4.281   7.138   7.323  0.3535 -0.3682 -0.8258
   54MOL    H7320319   4.145   7.155   7.438  0.3631 -0.9402 -0.6418
   54MOL    H7420320   4.134   7.116   7.266  1.1068 -0.2627 -0.6337
   54MOL    H7520321   4.263   6.766   7.298 -2.5228 -0.7106 -2.1699
   54MOL    H7620322   4.195   6.892   7.193  4.0753  0.0379 -2.1607
   54MOL    H7720323   4.361   6.889   7.250  0.2743 -1.3687  0.0177
   54MOL    C7820324   4.542   6.703   7.581  0.9550  0.2475 -0.8223
   54MOL    C7920325   4.623   6.785   7.476  0.5014  0.7754 -0.4034
   54MOL    O8020326   4.705   6.884   7.543 -0.0328  0.1593 -0.7168
   54MOL    C8120327   4.722   7.009   7.478 -0.9710  0.4556 -0.3981
   54MOL    C8220328   4.752   7.111   7.580 -0.5970 -0.4170 -0.3970
   54MOL    C8320329   4.877   7.089   7.662 -0.0806  0.4350 -0.6262
   54MOL    C8420330   4.626   7.144   7.671  0.5301 -0.0421  0.1906
   54MOL    H8520331   4.475   6.626   7.542  0.0220  0.8754 -0.4694
   54MOL    H8620332   4.603   6.664   7.663  0.5149  2.1031  0.4063
   54MOL    H8720333   4.552   6.836   7.411 -2.3644 -0.9322  1.2928
   54MOL    H8820334   4.796   7.000   7.399 -1.0404  0.9128 -0.5158
   54MOL    H8920335   4.639   7.047   7.419 -0.2720  0.5162 -1.3578
   54MOL    H9020336   4.781   7.202   7.529  3.0113 -1.8643 -1.1020
   54MOL    H9120337   4.902   7.154   7.746  2.9947 -0.2959 -0.9191
   54MOL    H9220338   4.962   7.092   7.594  0.3655  0.6132 -0.0752
   54MOL    H9320339   4.861   6.995   7.716  3.1743 -1.0902 -2.1416
   54MOL    H9420340   4.634   7.245   7.711  1.3020  0.1547 -0.4649
   54MOL    H9520341   4.610   7.072   7.752 -2.2562  3.6686  3.0984
   54MOL    H9620342   4.535   7.148   7.612 -1.7430  0.8748  3.6146
   54MOL    C9720343   4.723   6.697   7.399  0.1598  0.2996 -0.2314
   54MOL    C9820344   4.759   6.721   7.243 -0.2620 -0.2976 -0.8298
   54MOL    O9920345   4.675   6.640   7.164  0.5637  0.3196 -0.2140
   54MOL   C10020346   4.548   6.701   7.109 -0.3302 -0.3881  0.0633
   54MOL   C10120347   4.486   6.614   7.005  0.4191 -0.2502  0.4589
   54MOL   C10220348   4.574   6.603   6.881  0.0569  0.5430 -0.0249
   54MOL   C10320349   4.474   6.474   7.074  0.3916 -0.0760  0.5433
   54MOL   H10420350   4.690   6.593   7.412  0.4895  0.2427  0.1480
   54MOL   H10520351   4.806   6.701   7.469 -1.2898  0.9063  1.5057
   54MOL   H10620352   4.744   6.824   7.210 -2.2941 -0.4335 -0.3776
   54MOL   H10720353   4.571   6.801   7.073 -1.3487 -0.0841  0.2306
   54MOL   H10820354   4.471   6.718   7.184  0.8685 -0.0723  1.2490
   54MOL   H10920355   4.395   6.671   6.990 -0.4938 -1.8018  0.0200
   54MOL   H11020356   4.514   6.565   6.798 -2.2603 -0.7123  2.1334
   54MOL   H11120357   4.626   6.697   6.863  1.2480 -0.2363 -0.7338
   54MOL   H11220358   4.651   6.529   6.904  0.9110  1.4158 -0.0698
   54MOL   H11320359   4.569   6.421   7.085 -1.6566 -4.1163 -0.0710
   54MOL   H11420360   4.429   6.497   7.171 -1.9778 -0.6360 -0.4006
   54MOL   H11520361   4.417   6.390   7.034  1.6699 -0.2493 -0.9769
   54MOL   C11620362   4.904   6.688   7.223 -0.6088 -0.3183 -0.4637
   54MOL   C11720363   4.999   6.793   7.284 -0.2838 -0.7969  0.3750
   54MOL   O11820364   5.125   6.749   7.335  0.4250 -0.8882  0.2397
   54MOL   C11920365   5.141   6.745   7.480  0.1554  0.7686  0.2207
   54MOL   C12020366   5.096   6.619   7.554  0.0724 -0.4753  0.4303
   54MOL   C12120367   5.120   6.486   7.479  0.6761  0.5396  0.5987
   54MOL   C12220368   5.144   6.609   7.696  0.1571 -0.1932  0.1286
   54MOL   H12320369   4.927   6.597   7.280 -0.6344 -0.5468 -0.8192
   54MOL   H12420370   4.932   6.667   7.120 -1.7387 -2.6273 -0.3361
   54MOL   H12520371   4.946   6.818   7.376 -0.8607 -1.7948  0.3190
   54MOL   H12620372   5.115   6.842   7.523 -1.0327  0.8872 -0.7386
   54MOL   H12720373   5.249   6.733   7.474  0.0005 -0.3653 -0.4453
   54MOL   H12820374   4.987   6.624   7.554  0.0401 -1.1465  1.0428
   54MOL   H12920375   5.226   6.473   7.456  0.7331  1.1961  0.4901
   54MOL   H13020376   5.059   6.476   7.390 -2.0269  0.5361  2.3849
   54MOL   H13120377   5.094   6.396   7.536  1.2750 -1.7950 -2.6421
   54MOL   H13220378   5.252   6.621   7.706  0.0709  0.5818  0.1698
   54MOL   H13320379   5.103   6.687   7.760  3.3785  0.9004  0.9402
   54MOL   H13420380   5.117   6.512   7.738 -2.8184  0.1884 -0.7888
   54MOL   C13520381   5.021   6.920   7.207  0.2981  0.1287 -0.4291
   54MOL   C13620382   5.113   6.904   7.077 -0.2458 -0.1147  0.4072
   54MOL   O13720383   5.036   6.825   6.988  0.1201 -0.0413 -0.1227
   54MOL   C13820384   5.105   6.743   6.891  0.1977  0.0926 -0.0532
   54MOL   C13920385   5.015   6.718   6.770 -0.5118  0.1051  0.2874
   54MOL   C14020386   4.999   6.842   6.681  0.1060 -0.3790  0.0324
   54MOL   C14120387   5.070   6.603   6.688  0.3275  0.2756 -0.3672
   54MOL   H14220388   4.923   6.955   7.176  0.4590  0.6119 -0.4086
   54MOL   H14320389   5.065   6.986   7.282 -0.5772  0.4797 -0.2252
   54MOL   H14420390   5.210   6.858   7.094  0.7284  1.2651 -1.1639
   54MOL   H14520391   5.113   6.646   6.942 -0.8908 -0.6021 -1.1503
   54MOL   H14620392   5.209   6.767   6.872  0.0017 -0.2784 -1.7210
   54MOL   H14720393   4.916   6.693   6.806 -0.2435 -2.4335 -0.6441
   54MOL   H14820394   5.102   6.874   6.668  0.2740 -0.8225  0.2917
   54MOL   H14920395   4.943   6.927   6.722  0.0624 -0.0382 -0.7177
   54MOL   H15020396   4.949   6.828   6.585 -0.3885 -2.0756  0.5216
   54MOL   H15120397   5.054   6.507   6.737  1.4242 -0.2859 -1.0766
   54MOL   H15220398   5.023   6.607   6.590 -0.0650  2.5548 -0.1235
   54MOL   H15320399   5.178   6.610   6.673  0.1625  0.7460 -1.3878
   54MOL   C15420400   5.128   7.045   7.019 -0.1705 -0.4243 -0.0057
   54MOL   C15520401   5.233   7.070   6.909 -0.4119 -0.5935 -0.0704
   54MOL   O15620402   5.220   7.196   6.848 -0.9072  0.4408  0.1147
   54MOL   C15720403   5.107   7.220   6.768 -0.2176  0.0340 -0.4708
   54MOL   C15820404   5.164   7.210   6.627  0.2143 -0.0492 -1.3299
   54MOL   C15920405   5.048   7.229   6.531 -0.1624  0.0123  0.3412
   54MOL   C16020406   5.269   7.326   6.600  0.1293  0.7406  0.2006
   54MOL   H16120407   5.155   7.117   7.096  1.0879 -1.4681  0.5605
   54MOL   H16220408   5.029   7.080   6.991  0.2534  0.6968 -0.1434
   54MOL   H16320409   5.226   7.000   6.826  1.4295 -0.2790 -0.5173
   54MOL   H16420410   5.061   7.318   6.780  0.1194 -0.0924  2.2656
   54MOL   H16520411   5.030   7.144   6.783  1.7120 -1.9497 -0.3008
   54MOL   H16620412   5.219   7.116   6.616  0.2258 -0.2265  0.1181
   54MOL   H16720413   4.971   7.154   6.549 -0.3462  0.2526  0.5595
   54MOL   H16820414   5.083   7.228   6.428  0.7469  0.6244  0.6440
   54MOL   H16920415   5.015   7.331   6.548 -1.3288 -0.4658  1.0241
   54MOL   H17020416   5.227   7.424   6.622 -1.2867  0.3263 -0.5725
   54MOL   H17120417   5.353   7.302   6.664  0.1811 -0.1719 -0.1917
   54MOL   H17220418   5.305   7.336   6.498  2.3674  0.8345  0.9793
   54MOL   C17320419   5.374   7.085   6.964 -0.0809  0.6290 -0.2871
   54MOL   C17420420   5.490   7.058   6.861 -0.0754  0.0899 -0.8753
   54MOL   O17520421   5.623   7.104   6.896 -0.4897 -0.9250 -0.3371
   54MOL   C17620422   5.646   7.245   6.908  0.1313  0.0172  0.3099
   54MOL   C17720423   5.790   7.267   6.927 -0.6797  0.0347  0.4673
   54MOL   C17820424   5.870   7.244   6.792  1.3103  0.0470 -0.4217
   54MOL   C17920425   5.812   7.407   6.988  0.0220 -0.0238 -0.0136
   54MOL   H18020426   5.369   7.185   7.007 -1.7402 -0.3402  1.8828
   54MOL   H18120427   5.377   7.024   7.054 -2.2689 -1.7484 -1.7554
   54MOL   H18220428   5.462   7.102   6.765 -0.3912 -0.5020 -1.0565
   54MOL   H18320429   5.591   7.270   6.999  0.2280 -0.2892  0.4515
   54MOL   H18420430   5.599   7.300   6.827 -1.9179 -4.0077 -1.3587
   54MOL   H18520431   5.835   7.198   6.997  2.2855  0.4962 -0.9175
   54MOL   H18620432   5.846   7.150   6.742  0.1362 -0.6729  1.4366
   54MOL   H18720433   5.848   7.332   6.732  1.3931 -1.4396 -2.6864
   54MOL   H18820434   5.976   7.252   6.816  0.8230 -0.8236  2.2417
   54MOL   H18920435   5.776   7.424   7.089 -3.0615 -0.6687 -0.9497
   54MOL   H19020436   5.760   7.483   6.931 -1.3696 -1.4221 -0.6493
   54MOL   H19120437   5.920   7.423   6.989  0.3442 -2.0388  1.9688
   54MOL   C19220438   5.508   6.906   6.842  0.1567  0.0059 -0.2202
   54MOL   C19320439   5.604   6.869   6.723 -0.3790  0.0586  0.0799
   54MOL   O19420440   5.533   6.904   6.599 -0.0877  0.6674 -0.8080
   54MOL   C19520441   5.609   6.947   6.491 -0.5996  0.2980 -0.0608
   54MOL   C19620442   5.523   6.957   6.364  0.0266 -0.7726  0.6043
   54MOL   C19720443   5.615   6.957   6.236  0.0143  0.2772  0.4048
   54MOL   C19820444   5.416   7.062   6.370  0.1184  0.4746  0.1453
   54MOL   H19920445   5.413   6.855   6.829  0.4298 -1.3944  2.9000
   54MOL   H20020446   5.558   6.872   6.932 -1.3965 -0.7827  0.3564
   54MOL   H20120447   5.689   6.937   6.726 -0.7663  0.5122  0.9826
   54MOL   H20220448   5.687   6.871   6.480  0.2809  1.0517  0.8949
   54MOL   H20320449   5.661   7.041   6.506 -1.2776  1.0984 -2.5030
   54MOL   H20420450   5.464   6.866   6.354 -1.5109  0.0733  1.7403
   54MOL   H20520451   5.688   7.038   6.244  1.3754 -0.7907 -1.0839
   54MOL   H20620452   5.687   6.881   6.208  1.2589  1.8322 -0.7487
   54MOL   H20720453   5.544   6.973   6.155 -0.5034 -1.7397  0.4509
   54MOL   H20820454   5.374   7.085   6.272 -0.3358 -0.5473  0.0974
   54MOL   H20920455   5.337   7.042   6.442  1.8633 -1.7419  1.5211
   54MOL   H21020456   5.473   7.151   6.398 -0.4375  0.0198  2.8004
   54MOL   C21120457   5.667   6.730   6.720 -0.2555 -0.2446  0.2126
   54MOL   C21220458   5.785   6.714   6.822  0.3189 -0.8737 -0.6323
   54MOL   O21320459   5.744   6.746   6.956  0.1777 -0.0566  0.7791
   54MOL   C21420460   5.842   6.808   7.039  0.3025 -0.1224 -0.3135
   54MOL   C21520461   5.800   6.785   7.184  0.1695  0.2946 -0.1093
   54MOL   C21620462   5.671   6.858   7.207 -0.4658 -0.1234 -0.9823
   54MOL   C21720463   5.801   6.644   7.227 -0.2074  0.0528  0.2255
   54MOL   H21820464   5.713   6.703   6.625  0.4465  1.9080 -0.0876
   54MOL   H21920465   5.595   6.651   6.744  0.1046 -0.3066  1.1197
   54MOL   H22020466   5.862   6.788   6.799 -0.0438 -0.0892  0.6028
   54MOL   H22120467   5.845   6.913   7.009  1.1073 -0.5531 -1.8403
   54MOL   H22220468   5.937   6.761   7.014  1.1054  1.7307 -0.8536
   54MOL   H22320469   5.877   6.824   7.250  2.5511 -1.5217 -1.7413
   54MOL   H22420470   5.651   6.848   7.314 -0.0749  1.2941 -0.7643
   54MOL   H22520471   5.684   6.966   7.199 -2.1746  0.2925  1.3154
   54MOL   H22620472   5.584   6.809   7.163 -0.0617 -0.1258 -1.7941
   54MOL   H22720473   5.726   6.589   7.171 -0.2979  0.6155 -0.2103
   54MOL   H22820474   5.788   6.631   7.334 -1.1350  2.5154  0.4542
   54MOL   H22920475   5.899   6.601   7.208 -0.1085  0.1983  0.3973
   54MOL   C23020476   5.854   6.578   6.827 -0.0786 -0.3320 -0.2698
   54MOL   C23120477   5.950   6.540   6.709  1.3028 -0.0526  0.4579
   54MOL   O23220478   5.882   6.542   6.581  0.0223 -0.1324 -0.0752
   54MOL   C23320479   5.801   6.430   6.560 -0.1986 -0.0071 -0.2673
   54MOL   C23420480   5.785   6.426   6.408 -0.0996  0.5269 -0.2789
   54MOL   C23520481   5.699   6.538   6.358  0.3785  0.0552  0.0404
   54MOL   C23620482   5.915   6.423   6.321 -0.1132  1.0275  0.5002
   54MOL   H23720483   5.783   6.501   6.857 -2.7465  2.3119  0.4062
   54MOL   H23820484   5.928   6.577   6.907  1.7948  0.7502 -1.9566
   54MOL   H23920485   6.000   6.443   6.717 -1.4281 -1.4676  1.1216
   54MOL   H24020486   5.847   6.336   6.593  3.2655  1.9024  0.5999
   54MOL   H24120487   5.706   6.442   6.612  1.0654  0.2675  2.0637
   54MOL   H24220488   5.732   6.334   6.385  1.4357  0.2044 -2.6819
   54MOL   H24320489   5.680   6.531   6.251 -0.2729  2.5449 -0.0479
   54MOL   H24420490   5.749   6.635   6.369  0.8215 -0.1155 -0.4677
   54MOL   H24520491   5.600   6.546   6.402 -0.0843 -0.9077 -0.8220
   54MOL   H24620492   5.960   6.522   6.329 -0.7111  1.4334 -1.0178
   54MOL   H24720493   5.994   6.353   6.349 -0.9211 -0.1813 -0.2115
   54MOL   H24820494   5.894   6.414   6.215  1.0418 -0.3798  0.3893
   54MOL   C24920495   6.076   6.642   6.694 -0.0760 -0.2307 -0.0633
   54MOL   C25020496   6.172   6.621   6.564 -0.6892 -0.0803 -0.0754
   54MOL   O25120497   6.208   6.749   6.514 -0.2900 -0.0611  0.8366
   54MOL   C25220498   6.220   6.749   6.375 -0.4444 -0.4280  0.4670
   54MOL   C25320499   6.180   6.890   6.334 -0.7041  0.3187  0.5400
   54MOL   C25420500   6.249   7.001   6.418  0.0204 -0.0047 -0.3461
   54MOL   C25520501   6.036   6.911   6.334 -0.3806  0.0056  0.0659
   54MOL   H25620502   6.151   6.634   6.773 -0.1640 -2.9540 -0.2118
   54MOL   H25720503   6.052   6.748   6.694  2.9834  0.5114  0.6249
   54MOL   H25820504   6.112   6.560   6.496  0.0747 -0.7919 -0.1346
   54MOL   H25920505   6.323   6.735   6.344 -0.9087  1.8921 -2.3489
   54MOL   H26020506   6.167   6.671   6.320  1.6284 -0.1519 -1.9858
   54MOL   H26120507   6.228   6.896   6.236  1.5551 -1.5865  1.4592
   54MOL   H26220508   6.357   6.985   6.414  0.0668  0.0471  0.4648
   54MOL   H26320509   6.205   6.998   6.518 -2.3354 -0.6177 -1.3698
   54MOL   H26420510   6.229   7.098   6.372  3.6468  0.0803 -1.9161
   54MOL   H26520511   6.011   7.008   6.291  0.8231  0.0442 -0.5881
   54MOL   H26620512   5.973   6.846   6.274 -2.2034 -0.0222  1.9452
   54MOL   H26720513   5.991   6.894   6.432 -1.5865 -6.1501 -1.3671
   54MOL   C26820514   6.310   6.555   6.594  0.2344  0.0108 -0.0973
   54MOL   C26920515   6.315   6.419   6.671 -0.5204 -0.0782 -0.1848
   54MOL   O27020516   6.449   6.370   6.694 -0.1081 -0.2191  0.0773
   54MOL   C27120517   6.527   6.432   6.791  0.0407 -0.1569  0.1983
   54MOL   C27220518   6.666   6.360   6.791  0.8410 -0.9992  0.2350
   54MOL   C27320519   6.726   6.362   6.650  0.5454 -0.5662  0.4971
   54MOL   C27420520   6.748   6.430   6.899 -0.7983  0.6964  0.1772
   54MOL   H27520521   6.372   6.626   6.650  0.3370 -0.0060 -0.1909
   54MOL   H27620522   6.355   6.546   6.496  1.9378  1.3083  0.5427
   54MOL   H27720523   6.263   6.428   6.766 -4.7317 -0.6942 -2.3518
   54MOL   H27820524   6.539   6.536   6.758  2.3791 -1.0490 -1.9107
   54MOL   H27920525   6.475   6.438   6.886  1.6857  0.3596  1.0848
   54MOL   H28020526   6.652   6.255   6.816 -2.4090 -0.6018  0.4151
   54MOL   H28120527   6.734   6.467   6.623 -1.1186 -0.5130  0.1570
   54MOL   H28220528   6.665   6.306   6.579  0.8781 -2.0003  1.3251
   54MOL   H28320529   6.826   6.318   6.651 -0.2082 -2.3012  0.0282
   54MOL   H28420530   6.846   6.381   6.901 -0.4939  1.3783  1.9654
   54MOL   H28520531   6.705   6.436   6.999 -1.8909 -4.0832  0.1403
   54MOL   H28620532   6.769   6.531   6.863  0.3730  0.2905 -0.3098
   54MOL   C28720533   6.234   6.308   6.606 -0.3269  0.3610  0.3979
   54MOL   C28820534   6.302   6.264   6.475  0.1264 -0.3929  0.3692
   54MOL   O28920535   6.242   6.334   6.366 -0.3530  0.2880 -0.5271
   54MOL   C29020536   6.330   6.371   6.264 -0.0567  0.2132 -0.3290
   54MOL   C29120537   6.229   6.394   6.156  0.1217  0.4220  0.3430
   54MOL   C29220538   6.187   6.251   6.087  0.3960 -0.3017  0.2942
   54MOL   C29320539   6.294   6.476   6.043  0.2380  0.1773 -0.7354
   54MOL   H29420540   6.128   6.325   6.588 -0.7525 -2.0745  0.3506
   54MOL   H29520541   6.243   6.232   6.683 -0.9745 -1.3903 -1.2114
   54MOL   H29620542   6.409   6.282   6.482  0.1158  0.6836 -1.8899
   54MOL   H29720543   6.389   6.460   6.285 -1.5304  0.9033  0.9473
   54MOL   H29820544   6.402   6.292   6.242  0.2554  0.9133 -1.9391
   54MOL   H29920545   6.143   6.450   6.192 -0.2102  0.8389 -1.0709
   54MOL   H30020546   6.276   6.195   6.058  1.0643  0.2479  1.2614
   54MOL   H30120547   6.128   6.270   5.998  1.1165 -1.5844 -0.4741
   54MOL   H30220548   6.130   6.199   6.164  1.6693 -0.8013  0.9340
   54MOL   H30320549   6.335   6.570   6.079 -0.4889 -0.0128  0.6034
   54MOL   H30420550   6.381   6.426   6.000 -0.8703 -2.2133 -0.2589
   54MOL   H30520551   6.227   6.495   5.959  0.3718  0.9044 -0.6769
   54MOL   C30620552   6.283   6.109   6.455 -0.2857  0.2395  0.2107
   54MOL   C30720553   6.402   6.030   6.519  0.1571  0.2639 -0.0930
   54MOL   O30820554   6.347   5.912   6.574  0.8114  0.2601  0.1481
   54MOL   C30920555   6.293   5.928   6.705 -0.1421 -1.0212  0.1038
   54MOL   C31020556   6.263   5.790   6.756 -0.2580  0.9494  0.7805
   54MOL   C31120557   6.220   5.785   6.900  0.6886 -0.0301 -0.5139
   54MOL   C31220558   6.392   5.703   6.739  0.4511 -0.3908  0.2914
   54MOL   H31320559   6.275   6.102   6.347 -0.9893  1.3905  0.1801
   54MOL   H31420560   6.187   6.076   6.496 -0.8451 -1.8559 -2.6295
   54MOL   H31520561   6.445   6.092   6.597  0.4711  0.8980 -0.7614
   54MOL   H31620562   6.204   5.990   6.701 -0.4317 -1.4172  0.4098
   54MOL   H31720563   6.360   5.975   6.777  2.1794  0.0488 -2.6579
   54MOL   H31820564   6.192   5.742   6.689  0.3241 -0.8969  1.4497
   54MOL   H31920565   6.177   5.692   6.938 -2.6442  0.4934 -2.7917
   54MOL   H32020566   6.147   5.865   6.910  0.5115  0.0164 -2.1077
   54MOL   H32120567   6.293   5.824   6.972 -1.1071  1.0212  0.7924
   54MOL   H32220568   6.369   5.597   6.750 -0.7123 -0.1537  0.2789
   54MOL   H32320569   6.461   5.729   6.820  0.7711 -0.5563  0.0709
   54MOL   H32420570   6.444   5.710   6.644  0.2257  2.9746  0.3221
   54MOL   C32520571   6.509   5.993   6.415 -0.6757  0.3769 -0.0537
   54MOL   C32620572   6.642   5.934   6.464 -0.3540 -0.6706 -0.5051
   54MOL   O32720573   6.717   5.909   6.345  0.0312 -0.7248 -0.3262
   54MOL   C32820574   6.701   5.772   6.309  0.2594 -0.4832  0.2343
   54MOL   C32920575   6.799   5.758   6.186  0.6669  0.1698 -0.5965
   54MOL   C33020576   6.946   5.771   6.223 -0.7289 -0.1563 -0.2012
   54MOL   C33120577   6.783   5.618   6.126 -0.2479  0.2045 -0.1258
   54MOL   H33220578   6.532   6.084   6.360 -0.1298 -0.2934 -0.9412
   54MOL   H33320579   6.462   5.926   6.342 -2.3935  2.4912 -0.9549
   54MOL   H33420580   6.616   5.842   6.515 -0.4826  0.9954  2.5226
   54MOL   H33520581   6.745   5.708   6.386  0.7573 -0.0087  0.3459
   54MOL   H33620582   6.600   5.736   6.289  1.2164 -3.2805  0.2579
   54MOL   H33720583   6.772   5.823   6.102 -0.9201  0.3214  0.0067
   54MOL   H33820584   6.960   5.686   6.289 -2.7415 -0.9658 -0.8007
   54MOL   H33920585   7.009   5.775   6.134 -3.0633  0.0899 -1.8576
   54MOL   H34020586   6.962   5.862   6.281 -1.1438 -1.0025  1.2806
   54MOL   H34120587   6.713   5.607   6.043 -2.8406  1.3507  1.8405
   54MOL   H34220588   6.879   5.588   6.085 -0.8304  1.8855 -2.8466
   54MOL   H34320589   6.745   5.548   6.200  1.8750 -0.4617  0.3573
   54MOL   C34420590   6.720   6.028   6.548  0.4147 -0.4636 -0.4386
   54MOL   C34520591   6.829   5.940   6.611  0.0626  0.5072  0.3744
   54MOL   O34620592   6.940   6.023   6.654  0.1497 -0.5323  0.1157
   54MOL   C34720593   7.049   6.029   6.570 -0.4190 -0.5913 -0.0728
   54MOL   C34820594   7.150   6.115   6.648  0.5284  0.5903 -0.1046
   54MOL   C34920595   7.096   6.257   6.684  0.5054 -0.7473 -0.0066
   54MOL   C35020596   7.283   6.119   6.574 -0.8161  0.1561  0.1135
   54MOL   H35120597   6.668   6.083   6.627 -0.8998 -0.0538 -1.5689
   54MOL   H35220598   6.781   6.099   6.492  2.4359 -1.1826  0.7690
   54MOL   H35320599   6.867   5.876   6.531  1.7332  0.8899  0.8411
   54MOL   H35420600   7.027   6.052   6.466 -0.5083  1.7584  0.4401
   54MOL   H35520601   7.090   5.928   6.560 -1.7342 -1.2803  1.3976
   54MOL   H35620602   7.180   6.071   6.743 -1.3070  0.5368  0.4727
   54MOL   H35720603   7.056   6.299   6.592  0.7522 -1.0652 -0.2620
   54MOL   H35820604   7.172   6.321   6.728 -1.8915  0.9925  1.7159
   54MOL   H35920605   7.020   6.272   6.761 -0.8054  0.7984 -1.5804
   54MOL   H36020606   7.359   6.171   6.632 -1.3165 -1.2370  2.0678
   54MOL   H36120607   7.319   6.018   6.555  2.7590  1.4667 -0.4698
   54MOL   H36220608   7.268   6.174   6.481 -3.3096 -1.5260 -0.5294
   54MOL   C36320609   6.777   5.845   6.724  0.1659 -0.1844 -0.2166
   54MOL   C36420610   6.756   5.918   6.855 -0.1559 -0.5658 -0.4676
   54MOL   O36520611   6.698   5.837   6.960  0.2798 -0.1653 -0.5990
   54MOL   C36620612   6.716   5.885   7.091 -0.5472 -0.2212 -0.0235
   54MOL   C36720613   6.643   6.027   7.110 -0.0473  0.1672 -0.6649
   54MOL   C36820614   6.678   6.078   7.247 -0.1672 -0.9465 -0.3506
   54MOL   C36920615   6.494   6.033   7.076 -0.0087  0.7995 -0.1627
   54MOL   H37020616   6.693   5.785   6.688 -0.0011  1.0483 -1.9144
   54MOL   H37120617   6.858   5.775   6.744  1.0792  0.9943  0.2810
   54MOL   H37220618   6.676   5.991   6.841  1.4858  1.8798  2.3947
   54MOL   H37320619   6.689   5.805   7.159  2.8989 -0.7357  0.8253
   54MOL   H37420620   6.821   5.900   7.116 -0.5137 -0.0691 -0.2494
   54MOL   H37520621   6.688   6.103   7.046  0.7022 -0.9691 -1.5132
   54MOL   H37620622   6.620   6.026   7.324 -2.6970  0.1281 -1.4681
   54MOL   H37720623   6.644   6.179   7.270 -0.6112 -0.3750 -3.3225
   54MOL   H37820624   6.781   6.074   7.284 -1.2486 -1.2959  2.8525
   54MOL   H37920625   6.430   5.959   7.126  1.7009 -0.2434  0.5165
   54MOL   H38020626   6.471   6.036   6.970 -0.7584  0.4616 -0.0170
   54MOL   H38120627   6.450   6.126   7.113 -3.8124 -1.0566  0.2517
   54MOL   H38220628   6.846   5.968   6.889 -1.3464  2.8964 -2.1116
   55MOL     C120629   1.371   4.918   7.198 -0.6769 -0.9034 -0.2474
   55MOL     C220630   1.477   5.029   7.191 -0.1821  0.2464  0.4328
   55MOL     O320631   1.468   5.103   7.312 -0.1933 -0.2391  0.3572
   55MOL     C420632   1.371   5.210   7.333 -0.6112 -0.4679  0.1909
   55MOL     C520633   1.331   5.212   7.481 -0.1016 -0.1169  0.3282
   55MOL     C620634   1.449   5.232   7.582  0.3031  0.2638  0.8397
   55MOL     C720635   1.247   5.088   7.524 -0.0918 -0.8383 -0.0846
   55MOL     H820636   1.349   4.885   7.097 -0.1521 -0.1677 -0.6134
   55MOL     H920637   1.411   4.835   7.255  0.8586  0.5558  0.8637
   55MOL    H1020638   1.446   5.105   7.119 -1.6917 -0.6959  0.0707
   55MOL    H1120639   1.287   5.179   7.270 -1.3534 -1.5531  1.6663
   55MOL    H1220640   1.401   5.309   7.299 -0.1587  0.1110  2.2542
   55MOL    H1320641   1.258   5.291   7.500  0.5155  0.6990 -0.6182
   55MOL    H1420642   1.399   5.261   7.674 -3.0044 -0.3585 -0.6769
   55MOL    H1520643   1.504   5.140   7.602 -0.3237 -0.0255  1.2450
   55MOL    H1620644   1.518   5.309   7.546  0.6640 -1.5616 -2.6036
   55MOL    H1720645   1.213   5.105   7.626 -0.2178  0.5061 -0.3529
   55MOL    H1820646   1.159   5.079   7.460 -1.6842  3.7568  1.2815
   55MOL    H1920647   1.298   4.991   7.524 -0.5137 -1.0650 -0.0636
   55MOL    H2020648   1.279   4.959   7.241  0.5594  1.7085 -0.0185
   55MOL    C2120649   1.621   4.992   7.152 -0.0035 -0.0945  0.2563
   55MOL    C2220650   1.726   5.107   7.135  0.0709  0.9093  0.4291
   55MOL    O2320651   1.854   5.048   7.117  0.5492 -0.8967 -0.9385
   55MOL    C2420652   1.947   5.048   7.229 -0.5244  0.7162 -0.2560
   55MOL    C2520653   2.098   5.028   7.183  0.0431 -0.2405  0.2610
   55MOL    C2620654   2.164   5.159   7.144 -0.4423 -0.0211 -0.6076
   55MOL    C2720655   2.170   4.965   7.307 -0.4268 -0.8348  0.1168
   55MOL    H2820656   1.661   4.923   7.226  2.6942  0.7494 -0.3607
   55MOL    H2920657   1.604   4.932   7.063 -0.5724  1.6402 -0.8099
   55MOL    H3020658   1.724   5.170   7.224  2.2358 -1.0717  1.9685
   55MOL    H3120659   1.908   4.974   7.299 -0.8763  1.2435  0.1108
   55MOL    H3220660   1.932   5.137   7.290 -2.4198  0.7169 -0.6778
   55MOL    H3320661   2.090   4.961   7.098  1.4374 -2.4438  1.7942
   55MOL    H3420662   2.213   5.212   7.225 -2.7563  0.1304  0.7346
   55MOL    H3520663   2.094   5.232   7.104 -0.0507  0.8436  0.2614
   55MOL    H3620664   2.230   5.140   7.059  1.1793 -0.6116  0.7759
   55MOL    H3720665   2.154   5.031   7.392  1.8428 -1.2390  0.8687
   55MOL    H3820666   2.105   4.881   7.333 -0.7916 -0.6045 -0.0500
   55MOL    H3920667   2.276   4.940   7.307  0.2466  1.7998 -1.1275
   55MOL    C4020668   1.699   5.176   7.002  0.0009  0.0882  0.0318
   55MOL    C4120669   1.786   5.306   6.986 -0.3729 -1.3544  0.9609
   55MOL    O4220670   1.722   5.387   7.089 -0.0751  0.2394 -0.0507
   55MOL    C4320671   1.808   5.490   7.135  0.2200  0.1646  0.0755
   55MOL    C4420672   1.751   5.535   7.270  0.1541 -0.1122  0.2238
   55MOL    C4520673   1.605   5.584   7.257  0.4049 -0.0369  0.6905
   55MOL    C4620674   1.768   5.425   7.376 -0.7970  0.1605 -0.9321
   55MOL    H4720675   1.595   5.202   6.987 -0.2438  0.4125  2.0827
   55MOL    H4820676   1.725   5.107   6.922 -1.9218 -1.6906  0.8878
   55MOL    H4920677   1.893   5.292   7.002 -0.0638 -0.2463 -0.1162
   55MOL    H5020678   1.789   5.568   7.061 -0.3917 -0.1961 -0.1524
   55MOL    H5120679   1.916   5.474   7.137  0.7035  2.8718 -1.5216
   55MOL    H5220680   1.817   5.619   7.294 -1.4222  2.4675 -3.9617
   55MOL    H5320681   1.558   5.624   7.347  1.1772 -0.5283  1.3237
   55MOL    H5420682   1.602   5.655   7.175 -0.7158 -0.3786  0.4228
   55MOL    H5520683   1.535   5.507   7.224  0.7044  0.4126 -1.0293
   55MOL    H5620684   1.708   5.335   7.358 -0.3175 -0.1711 -0.8851
   55MOL    H5720685   1.731   5.443   7.477 -0.8804 -0.3559 -0.8673
   55MOL    H5820686   1.874   5.407   7.387 -0.7451  1.5005  0.8070
   55MOL    C5920687   1.769   5.376   6.850  0.5554 -0.2072 -0.0509
   55MOL    C6020688   1.813   5.294   6.722 -0.3744 -0.4266 -0.8727
   55MOL    O6120689   1.950   5.257   6.728 -0.1059 -0.2952 -0.2365
   55MOL    C6220690   1.994   5.128   6.763 -0.1600 -0.0669  0.2539
   55MOL    C6320691   2.149   5.113   6.756  0.6645 -0.2356 -0.5886
   55MOL    C6420692   2.172   4.969   6.776 -0.1976 -0.0134  0.1790
   55MOL    C6520693   2.203   5.154   6.614 -0.6884  0.3686 -0.4074
   55MOL    H6620694   1.822   5.471   6.851  1.5974 -0.7745  0.3838
   55MOL    H6720695   1.669   5.417   6.843  1.0858  1.7906  2.9108
   55MOL    H6820696   1.757   5.201   6.717 -2.2570  0.5956  0.8515
   55MOL    H6920697   1.965   5.112   6.867 -1.7552  1.6720  0.0988
   55MOL    H7020698   1.945   5.051   6.703 -0.9390 -1.0442  2.0943
   55MOL    H7120699   2.199   5.160   6.840  0.1573  0.1027 -0.4695
   55MOL    H7220700   2.118   4.915   6.698 -0.6332 -0.5293  0.8243
   55MOL    H7320701   2.135   4.910   6.860  0.1435 -1.3633 -0.5966
   55MOL    H7420702   2.279   4.949   6.772 -0.4351 -1.3061 -0.0119
   55MOL    H7520703   2.180   5.090   6.529  2.2906 -0.5813 -0.5788
   55MOL    H7620704   2.182   5.257   6.589  2.5491  1.4420  0.9990
   55MOL    H7720705   2.311   5.169   6.617 -0.6617  0.2478 -0.7401
   55MOL    C7820706   1.776   5.388   6.606 -0.2341  0.2074 -0.3932
   55MOL    C7920707   1.665   5.335   6.509  0.3623 -0.2102  0.3238
   55MOL    O8020708   1.693   5.204   6.476  0.0215  0.6450  0.3421
   55MOL    C8120709   1.807   5.190   6.390 -0.1064 -0.8433  0.4082
   55MOL    C8220710   1.803   5.051   6.320 -0.0278 -0.0492 -0.0471
   55MOL    C8320711   1.816   4.926   6.419 -1.2444  0.1280  0.1393
   55MOL    C8420712   1.895   5.028   6.198  0.1706 -0.5001 -0.0056
   55MOL    H8520713   1.868   5.403   6.549  0.3193  2.4448  1.0390
   55MOL    H8620714   1.742   5.487   6.635  0.6014  0.2066  0.6003
   55MOL    H8720715   1.661   5.394   6.418  1.0195 -1.0213 -0.2330
   55MOL    H8820716   1.816   5.270   6.317 -2.2567 -1.3569 -0.4492
   55MOL    H8920717   1.901   5.195   6.446 -0.1366 -1.0339  0.4775
   55MOL    H9020718   1.699   5.049   6.289 -0.5442  0.0068  1.5955
   55MOL    H9120719   1.800   4.830   6.369 -2.3050  0.0349  0.6325
   55MOL    H9220720   1.752   4.942   6.506  0.2657 -2.4507  1.7774
   55MOL    H9320721   1.917   4.935   6.458 -2.0945 -0.8288  2.6357
   55MOL    H9420722   1.900   5.109   6.125 -0.0902 -2.0516 -1.7793
   55MOL    H9520723   1.865   4.935   6.149  1.0539 -0.5987 -0.3616
   55MOL    H9620724   1.999   5.028   6.232 -0.4955 -1.2682  2.1536
   55MOL    C9720725   1.524   5.354   6.573 -0.5386 -0.5211  0.8420
   55MOL    C9820726   1.412   5.313   6.477  0.1111  0.0670  0.2236
   55MOL    O9920727   1.399   5.419   6.381 -0.0690 -0.0427  0.0862
   55MOL   C10020728   1.345   5.386   6.258  0.1279  0.8422 -0.2761
   55MOL   C10120729   1.298   5.503   6.187  0.5273  0.2803 -0.2558
   55MOL   C10220730   1.274   5.470   6.034  0.7481  0.1001 -0.1940
   55MOL   C10320731   1.180   5.565   6.252  0.0088  0.3998  0.2210
   55MOL   H10420732   1.512   5.457   6.606  0.2309  0.2954 -1.3515
   55MOL   H10520733   1.521   5.290   6.661 -1.4435  1.1343  2.0370
   55MOL   H10620734   1.450   5.223   6.428 -2.8162 -0.2212 -1.6093
   55MOL   H10720735   1.268   5.310   6.267  1.2534 -0.3996 -0.9906
   55MOL   H10820736   1.421   5.340   6.195 -0.6013 -0.7431 -0.0082
   55MOL   H10920737   1.379   5.576   6.178 -1.4036  2.4905 -0.1950
   55MOL   H11020738   1.240   5.368   6.017 -0.1631  0.1893  1.0557
   55MOL   H11120739   1.197   5.534   5.992  1.1102 -0.0823 -1.1446
   55MOL   H11220740   1.364   5.477   5.973  0.7184  2.7955 -0.0055
   55MOL   H11320741   1.169   5.537   6.357  1.5450  1.6229  0.7238
   55MOL   H11420742   1.186   5.674   6.244 -0.9395  0.4301 -0.1033
   55MOL   H11520743   1.081   5.555   6.207 -0.2041  0.4693  0.6686
   55MOL   C11620744   1.287   5.272   6.545 -0.6557 -0.4777 -0.1118
   55MOL   C11720745   1.255   5.120   6.556  0.1124 -0.1426 -0.5591
   55MOL   O11820746   1.333   5.064   6.665 -0.2895 -0.1246  0.3704
   55MOL   C11920747   1.439   4.975   6.636  0.2459  0.9650  0.4146
   55MOL   C12020748   1.462   4.874   6.747 -0.0871 -0.0837 -0.3250
   55MOL   C12120749   1.343   4.784   6.791  0.5342 -0.1027 -0.1318
   55MOL   C12220750   1.587   4.798   6.712  0.5573 -0.4544  0.7640
   55MOL   H12320751   1.282   5.314   6.646  2.4017 -0.3064  0.0004
   55MOL   H12420752   1.215   5.323   6.480  0.5304 -0.9933 -1.8534
   55MOL   H12520753   1.272   5.062   6.466  1.0462  1.1905 -1.2590
   55MOL   H12620754   1.522   5.044   6.625 -0.4557  2.2821  3.0974
   55MOL   H12720755   1.414   4.919   6.545  0.5191  0.6683  0.5222
   55MOL   H12820756   1.486   4.940   6.831 -2.3534  1.1680 -0.6226
   55MOL   H12920757   1.315   4.729   6.700  1.8830  0.2123 -0.7423
   55MOL   H13020758   1.253   4.842   6.809  1.1516  0.9129 -0.3108
   55MOL   H13120759   1.381   4.725   6.874 -0.5141  0.4243  0.7435
   55MOL   H13220760   1.673   4.860   6.688 -0.4170  0.7539  0.3307
   55MOL   H13320761   1.623   4.730   6.789 -0.2508 -2.7714 -0.8351
   55MOL   H13420762   1.572   4.740   6.621 -0.1792  1.6085 -0.4509
   55MOL   C13520763   1.110   5.098   6.602  0.3324 -0.3447  0.2526
   55MOL   C13620764   1.004   5.100   6.495  0.0675 -0.0487 -0.4680
   55MOL   O13720765   1.043   4.991   6.410 -0.0217  0.3285 -0.0471
   55MOL   C13820766   1.012   5.011   6.270  0.5051 -0.0946  0.2943
   55MOL   C13920767   1.018   4.874   6.208 -0.3607 -0.6383  0.5968
   55MOL   C14020768   0.904   4.769   6.239  0.3321  0.0757  0.3415
   55MOL   C14120769   1.038   4.880   6.055 -0.1665  0.1128  0.5167
   55MOL   H14220770   1.117   5.001   6.650 -1.8662 -0.1066  1.1000
   55MOL   H14320771   1.095   5.169   6.683 -1.3963  0.9910 -1.2068
   55MOL   H14420772   1.003   5.188   6.431  2.2091 -0.2674 -0.8301
   55MOL   H14520773   1.086   5.079   6.227 -0.3528  0.8762  0.3087
   55MOL   H14620774   0.913   5.053   6.250  1.3353  1.3485 -0.9048
   55MOL   H14720775   1.115   4.835   6.239  1.4624  1.0997 -2.6370
   55MOL   H14820776   0.933   4.675   6.195 -1.3459  0.4387 -1.6143
   55MOL   H14920777   0.814   4.786   6.180  1.2918  1.9985 -0.6181
   55MOL   H15020778   0.866   4.769   6.342  2.3464 -0.5088  1.0955
   55MOL   H15120779   1.042   4.778   6.016  0.3556  0.1594  0.4476
   55MOL   H15220780   0.950   4.929   6.013  1.2362  3.0341  0.8972
   55MOL   H15320781   1.125   4.933   6.016 -1.4509  0.8066 -1.4638
   55MOL   C15420782   0.851   5.086   6.530 -0.0112 -0.0721  0.1343
   55MOL   C15520783   0.810   5.190   6.637 -0.2176 -0.2231 -0.4653
   55MOL   O15620784   0.849   5.316   6.586  0.0542  0.4563  0.2356
   55MOL   C15720785   0.900   5.413   6.680  0.1385 -0.3728  0.2010
   55MOL   C15820786   0.904   5.536   6.591  0.5115  0.1019  0.1851
   55MOL   C15920787   0.770   5.567   6.528  0.0206 -0.1320  0.1220
   55MOL   C16020788   0.964   5.653   6.666  0.3672  0.4899 -0.0026
   55MOL   H16120789   0.842   4.983   6.565 -0.3910  0.0719  0.4599
   55MOL   H16220790   0.790   5.103   6.441 -0.1634 -1.6100 -0.0696
   55MOL   H16320791   0.857   5.179   6.735 -1.2652  0.7301  0.1654
   55MOL   H16420792   0.999   5.391   6.720  1.9428  4.8237 -1.0388
   55MOL   H16520793   0.843   5.435   6.770  1.9505 -0.9020  1.5104
   55MOL   H16620794   0.976   5.515   6.511 -0.1888  1.0602 -0.7020
   55MOL   H16720795   0.726   5.485   6.470 -2.3001  0.1916  1.3602
   55MOL   H16820796   0.778   5.653   6.461  0.7114 -1.1667 -1.1338
   55MOL   H16920797   0.689   5.603   6.592  0.7873 -0.9071  1.5438
   55MOL   H17020798   1.061   5.617   6.701 -0.4419 -1.1587  0.5763
   55MOL   H17120799   0.971   5.738   6.599 -1.0421  0.3938 -0.2687
   55MOL   H17220800   0.899   5.687   6.747 -0.9969 -1.9349 -0.0243
   55MOL   C17320801   0.654   5.180   6.657 -0.4494  0.6554 -0.4367
   55MOL   C17420802   0.592   5.037   6.687 -0.4117 -1.2657  0.3507
   55MOL   O17520803   0.503   5.041   6.802 -0.3920 -0.6933 -0.0881
   55MOL   C17620804   0.569   5.071   6.928  0.2312  0.5647 -0.2458
   55MOL   C17720805   0.477   5.016   7.039 -0.0930 -1.0396  0.8423
   55MOL   C17820806   0.345   5.093   7.048  0.0810  0.3810 -0.3724
   55MOL   C17920807   0.446   4.865   7.015  0.0383 -0.2111  0.6156
   55MOL   H18020808   0.628   5.250   6.736 -1.1089 -1.4848  1.2888
   55MOL   H18120809   0.606   5.223   6.569  0.5439  0.9247 -0.8517
   55MOL   H18220810   0.665   4.958   6.701  2.4980  0.9768 -1.6380
   55MOL   H18320811   0.590   5.176   6.948  1.0467  0.0068  2.0431
   55MOL   H18420812   0.662   5.015   6.920 -0.5650 -0.9012  0.6105
   55MOL   H18520813   0.531   5.044   7.129  0.0490  0.1083  0.3994
   55MOL   H18620814   0.287   5.082   6.956  0.8033  3.3286 -1.2109
   55MOL   H18720815   0.296   5.071   7.143  0.5301 -3.1154 -0.8786
   55MOL   H18820816   0.367   5.198   7.065 -1.6822  0.6606  0.2787
   55MOL   H18920817   0.380   4.847   6.930  0.7615  0.2563 -0.0525
   55MOL   H19020818   0.400   4.822   7.103 -2.4583  0.7088 -0.1943
   55MOL   H19120819   0.541   4.816   6.995  0.4729  0.8000  0.1327
   55MOL   C19220820   0.514   4.987   6.573 -0.4291  0.0294 -0.0454
   55MOL   C19320821   0.538   4.839   6.541  0.0718 -0.5479  0.0586
   55MOL   O19420822   0.458   4.804   6.423  0.4619 -0.1117  0.7788
   55MOL   C19520823   0.517   4.828   6.292  0.5683 -0.5480 -0.1230
   55MOL   C19620824   0.409   4.804   6.184  0.3151 -0.3937 -0.3619
   55MOL   C19720825   0.472   4.808   6.046 -0.4315  0.0896  0.5274
   55MOL   C19820826   0.296   4.910   6.191 -0.3218 -0.1968  0.1071
   55MOL   H19920827   0.548   5.036   6.482 -1.5722 -0.7013 -0.8768
   55MOL   H20020828   0.410   5.018   6.576 -0.4586  0.0354 -0.9382
   55MOL   H20120829   0.640   4.821   6.508  0.7315  0.6806  1.3840
   55MOL   H20220830   0.604   4.763   6.291  0.0558 -1.2351 -0.0259
   55MOL   H20320831   0.542   4.934   6.292 -4.2829  0.7281  0.1637
   55MOL   H20420832   0.363   4.707   6.200  1.1640 -0.2533  3.4857
   55MOL   H20520833   0.575   4.772   6.049 -0.5914 -0.5523 -1.2110
   55MOL   H20620834   0.418   4.747   5.974 -0.5659 -0.7669  1.3506
   55MOL   H20720835   0.483   4.911   6.012  0.8117 -0.1682  0.1251
   55MOL   H20820836   0.346   5.003   6.165  0.5434 -1.0411 -1.2953
   55MOL   H20920837   0.207   4.894   6.130 -0.9549 -1.7696  1.3885
   55MOL   H21020838   0.267   4.917   6.296  0.4495 -0.1985  0.3255
   55MOL   C21120839   0.492   4.743   6.658 -0.1336  0.5309  0.0732
   55MOL   C21220840   0.525   4.595   6.616  0.3073 -0.4783  0.3394
   55MOL   O21320841   0.652   4.560   6.676  0.6594 -0.3258 -0.0119
   55MOL   C21420842   0.766   4.571   6.590  0.5647  0.0227  0.4117
   55MOL   C21520843   0.892   4.563   6.673 -0.2467 -0.5138 -0.3821
   55MOL   C21620844   1.019   4.539   6.595 -0.3561  0.0017  0.8194
   55MOL   C21720845   0.900   4.675   6.775  0.0745  0.2293 -0.6470
   55MOL   H21820846   0.387   4.763   6.681 -0.1933 -0.3737  0.6158
   55MOL   H21920847   0.556   4.764   6.744  2.0575 -0.4132 -1.2969
   55MOL   H22020848   0.523   4.574   6.509 -1.2004 -0.2587  0.3143
   55MOL   H22120849   0.775   4.669   6.544 -0.7586  0.8944  1.9566
   55MOL   H22220850   0.765   4.491   6.516  1.5624  0.6942 -0.3321
   55MOL   H22320851   0.892   4.476   6.739 -0.2865  0.0540  0.3696
   55MOL   H22420852   1.036   4.435   6.568  1.6408  0.8300 -1.2399
   55MOL   H22520853   1.037   4.601   6.508  3.3601 -2.0352  0.0117
   55MOL   H22620854   1.109   4.554   6.655 -0.1779  0.4824  0.4268
   55MOL   H22720855   0.824   4.650   6.849 -0.3866  2.5693 -0.3141
   55MOL   H22820856   0.887   4.762   6.712 -1.7281  0.5364  0.1398
   55MOL   H22920857   0.997   4.670   6.825 -0.4835  0.4823  0.4680
   55MOL   C23020858   0.424   4.495   6.671  0.2535 -0.0965 -0.3135
   55MOL   C23120859   0.278   4.520   6.630 -0.6980  0.0388 -0.1128
   55MOL   O23220860   0.257   4.501   6.491 -0.6078 -0.0888  0.0614
   55MOL   C23320861   0.167   4.596   6.430  0.0354  0.0576  0.2092
   55MOL   C23420862   0.108   4.527   6.311  0.3569  0.2380 -0.1293
   55MOL   C23520863   0.009   4.413   6.358  0.2335  0.1620  0.3954
   55MOL   C23620864   0.031   4.619   6.213  0.3544 -0.1912 -0.2516
   55MOL   H23720865   0.423   4.483   6.779 -1.8791  0.2117 -0.2836
   55MOL   H23820866   0.463   4.403   6.627 -0.0550 -1.6122  2.4733
   55MOL   H23920867   0.245   4.618   6.663  0.1991 -0.1128  1.2749
   55MOL   H24020868   0.088   4.639   6.491 -1.4075  1.3973 -2.5215
   55MOL   H24120869   0.228   4.679   6.394  0.4603 -0.4340 -0.2216
   55MOL   H24220870   0.192   4.479   6.261 -0.2041 -0.6776 -0.2006
   55MOL   H24320871   7.750   4.454   6.414 -0.6794 -1.4571  0.2652
   55MOL   H24420872   0.059   4.332   6.411  1.1536  0.1837 -0.4286
   55MOL   H24520873   7.794   4.363   6.270  1.2615 -2.7835  1.5277
   55MOL   H24620874   7.765   4.665   6.254  0.3870  0.0089 -0.4043
   55MOL   H24720875   0.098   4.693   6.170 -0.9534  2.9151  2.7851
   55MOL   H24820876   0.001   4.552   6.134 -0.2300 -1.3366  0.9211
   55MOL   C24920877   0.190   4.424   6.706 -0.0900 -1.1198  0.1645
   55MOL   C25020878   0.061   4.484   6.766 -0.2671  0.0431  0.3432
   55MOL   O25120879   7.796   4.376   6.787 -0.3094 -0.2647 -0.0573
   55MOL   C25220880   7.660   4.408   6.805  0.2368  0.3735  0.1523
   55MOL   C25320881   7.570   4.288   6.784 -0.2097  0.6321 -0.4283
   55MOL   C25420882   7.573   4.174   6.893 -0.5891  0.4074  0.1388
   55MOL   C25520883   7.569   4.246   6.640  0.2178  0.5703  0.0665
   55MOL   H25620884   0.244   4.373   6.786  0.0587 -1.7828 -0.3488
   55MOL   H25720885   0.163   4.346   6.635 -1.7583 -0.0986 -0.3406
   55MOL   H25820886   0.019   4.546   6.687  1.2999 -0.1692 -0.6841
   55MOL   H25920887   7.639   4.456   6.901 -2.6128 -1.8650  0.7220
   55MOL   H26020888   7.628   4.482   6.731  1.4887 -0.6522 -1.4608
   55MOL   H26120889   7.471   4.331   6.802  0.0362  0.3678  1.6623
   55MOL   H26220890   7.548   4.215   6.991  0.0151  1.8864 -0.3078
   55MOL   H26320891   7.667   4.119   6.901 -0.5886  0.6468  1.8710
   55MOL   H26420892   7.497   4.106   6.856 -1.0073  0.0082  1.7051
   55MOL   H26520893   7.511   4.156   6.616  0.7939  0.1757  0.1476
   55MOL   H26620894   7.545   4.328   6.573  1.0896  0.9190  0.1816
   55MOL   H26720895   7.670   4.220   6.608 -0.7320 -2.0144 -1.0031
   55MOL   C26820896   0.077   4.560   6.895 -0.3129  0.7336 -0.4503
   55MOL   C26920897   7.816   4.684   6.906  0.5175  0.7325  0.0902
   55MOL   O27020898   0.037   4.770   6.801 -0.3992  0.0648 -0.1619
   55MOL   C27120899   7.773   4.864   6.759  0.2270  0.1639 -0.7238
   55MOL   C27220900   0.021   4.962   6.660 -0.3610  0.0378 -0.1885
   55MOL   C27320901   0.137   5.019   6.739 -0.7042  0.1929  0.2776
   55MOL   C27420902   0.072   4.899   6.519 -0.0058  0.3659  0.0829
   55MOL   H27520903   0.178   4.599   6.896  0.2731 -0.7460 -0.4502
   55MOL   H27620904   0.066   4.486   6.974 -1.4214  1.2097 -0.1448
   55MOL   H27720905   7.712   4.657   6.886  0.8668 -0.8184  0.2381
   55MOL   H27820906   7.696   4.814   6.701  1.0511  0.8060 -2.4371
   55MOL   H27920907   7.718   4.914   6.839  0.0426 -1.5404  0.2228
   55MOL   H28020908   7.784   5.049   6.636 -2.2260 -1.4320 -0.8809
   55MOL   H28120909   0.187   5.097   6.682 -1.5309 -1.5601 -2.9418
   55MOL   H28220910   0.200   4.940   6.781 -0.3402  0.7719  0.8427
   55MOL   H28320911   0.093   5.071   6.824  0.2153  2.7674 -0.7784
   55MOL   H28420912   7.823   4.838   6.467 -1.7109  1.7239  0.8391
   55MOL   H28520913   0.160   4.839   6.539 -0.2246 -0.1765 -0.5585
   55MOL   H28620914   0.098   4.982   6.452  0.5604 -2.2408 -3.0540
   55MOL   C28720915   7.817   4.765   7.037  0.3307  0.6241  0.2271
   55MOL   C28820916   7.765   4.700   7.161 -0.0296  0.0905  0.2363
   55MOL   O28920917   7.626   4.709   7.157  0.0651 -0.2841  0.6274
   55MOL   C29020918   7.557   4.610   7.238  0.3240 -0.5953 -1.0050
   55MOL   C29120919   7.409   4.593   7.202  0.3981 -0.2590 -0.0750
   55MOL   C29220920   7.382   4.591   7.050  0.0905 -0.0655 -0.2422
   55MOL   C29320921   7.337   4.719   7.256 -0.2345  0.0513  0.2998
   55MOL   H29420922   7.760   4.856   7.021  1.4186  1.4966  1.2864
   55MOL   H29520923   0.097   4.796   7.040  0.1239  1.2476  0.9306
   55MOL   H29620924   7.790   4.594   7.150  3.3959  1.0220 -1.2506
   55MOL   H29720925   7.597   4.512   7.214 -2.1106 -1.9016  0.0241
   55MOL   H29820926   7.565   4.631   7.345 -2.3092 -1.8618 -0.5087
   55MOL   H29920927   7.362   4.512   7.258  1.2433 -0.9783 -0.3973
   55MOL   H30020928   7.411   4.499   6.999 -0.6659 -1.4661  1.7331
   55MOL   H30120929   7.431   4.669   6.993 -1.3278  0.5146 -0.7026
   55MOL   H30220930   7.275   4.604   7.032  0.0487  1.2436  0.8817
   55MOL   H30320931   7.392   4.810   7.234  0.1184 -0.8672 -2.8237
   55MOL   H30420932   7.238   4.712   7.210 -0.8649  1.5815  1.3875
   55MOL   H30520933   7.323   4.718   7.364  1.9058  0.3118  0.5920
   55MOL   C30620934   7.820   4.752   7.296  0.0400  0.3063  0.5544
   55MOL   C30720935   0.131   4.707   7.338  0.4044  0.0867 -0.0324
   55MOL   O30820936   0.175   4.794   7.437 -0.0838 -0.2270 -0.4640
   55MOL   C30920937   0.278   4.885   7.384 -0.1795  0.1609 -0.5833
   55MOL   C31020938   0.296   4.996   7.491 -0.1240 -0.9217  0.4048
   55MOL   C31120939   0.383   5.108   7.440 -0.3011 -0.8863 -0.2893
   55MOL   C31220940   0.347   4.936   7.628 -0.8745  0.1739  0.0801
   55MOL   H31320941   7.749   4.762   7.378 -0.0166  1.5632  0.3595
   55MOL   H31420942   7.824   4.860   7.281 -1.2563  0.4201  0.9353
   55MOL   H31520943   0.198   4.713   7.252 -0.2031 -1.9468 -0.6791
   55MOL   H31620944   0.251   4.933   7.290  0.0658 -0.7058 -1.0935
   55MOL   H31720945   0.367   4.823   7.369  1.0920  0.9239  3.1562
   55MOL   H31820946   0.203   5.050   7.507  0.0041 -0.4446 -0.4651
   55MOL   H31920947   0.477   5.057   7.418  0.8311  1.2135 -0.3606
   55MOL   H32020948   0.390   5.183   7.518  0.2775  0.3534 -1.5236
   55MOL   H32120949   0.338   5.152   7.351 -2.8509 -0.2502  1.2551
   55MOL   H32220950   0.280   4.869   7.681 -0.1851 -1.6894 -1.3415
   55MOL   H32320951   0.357   5.011   7.706  1.7599 -0.2709  0.2420
   55MOL   H32420952   0.444   4.887   7.636 -1.8400 -1.6030  1.0841
   55MOL   C32520953   0.146   4.562   7.390  0.1322 -0.0565 -0.0729
   55MOL   C32620954   0.283   4.501   7.365  0.5916  0.4170 -0.0643
   55MOL   O32720955   0.325   4.421   7.480 -0.1010 -0.5831 -0.3279
   55MOL   C32820956   0.402   4.500   7.577  0.2858 -0.0289 -0.1656
   55MOL   C32920957   0.478   4.418   7.683  0.0963 -0.0146 -0.0263
   55MOL   C33020958   0.389   4.367   7.801 -0.5425 -0.8824  0.6217
   55MOL   C33120959   0.559   4.312   7.611  0.1668 -0.1666 -0.2528
   55MOL   H33220960   0.077   4.496   7.337  0.9124 -0.9103 -0.0169
   55MOL   H33320961   0.125   4.566   7.496 -1.0145  2.4470 -0.3500
   55MOL   H33420962   0.353   4.583   7.351  1.5330  0.0650  2.3521
   55MOL   H33520963   0.462   4.575   7.526 -0.8722  0.7388 -0.4222
   55MOL   H33620964   0.326   4.567   7.617 -1.4292 -1.7741 -0.4217
   55MOL   H33720965   0.550   4.479   7.737  2.4717 -2.6218 -0.1944
   55MOL   H33820966   0.444   4.326   0.061 -0.0223 -1.7973 -0.1365
   55MOL   H33920967   0.325   4.451   0.003  1.1383  0.7066 -0.2346
   55MOL   H34020968   0.322   4.293   7.758 -1.8696  0.3987  0.4568
   55MOL   H34120969   0.633   4.269   7.679  1.0631  0.5491 -0.7683
   55MOL   H34220970   0.489   4.239   7.570 -0.1891  0.9548 -1.6736
   55MOL   H34320971   0.619   4.359   7.534  0.1137 -0.3637 -0.4159
   55MOL   C34420972   0.283   4.419   7.235 -0.2503  0.6809 -0.0075
   55MOL   C34520973   0.421   4.393   7.172 -0.2215  0.6254 -0.5944
   55MOL   O34620974   0.403   4.299   7.068 -0.2345  0.2270  0.1975
   55MOL   C34720975   0.384   4.158   7.111 -0.0220 -1.0811  0.1040
   55MOL   C34820976   0.292   4.097   7.008  0.6718 -0.4934 -0.3363
   55MOL   C34920977   0.149   4.154   7.024  0.4639  0.1489 -0.1111
   55MOL   C35020978   0.298   3.941   7.022  0.1713  0.0285 -0.1797
   55MOL   H35120979   0.223   4.460   7.154 -1.6990 -2.3295 -0.5692
   55MOL   H35220980   0.240   4.321   7.255 -0.3292  0.0101 -3.1389
   55MOL   H35320981   0.494   4.369   7.248 -1.2322  1.2744  0.5973
   55MOL   H35420982   0.350   4.140   7.213  0.6493  0.5627  0.6310
   55MOL   H35520983   0.483   4.115   7.094 -0.1261 -1.0403 -0.6217
   55MOL   H35620984   0.327   4.109   6.905 -0.6712  0.9224 -0.6414
   55MOL   H35720985   0.089   4.116   6.943 -1.8299  0.8070  1.2450
   55MOL   H35820986   0.145   4.263   7.016 -2.1370  0.1206  0.6575
   55MOL   H35920987   0.090   4.123   7.110 -0.7448 -0.0566 -1.0026
   55MOL   H36020988   0.393   3.900   6.987  0.0266 -1.6941  1.4016
   55MOL   H36120989   0.288   3.899   7.121 -1.4014 -1.2293 -0.8566
   55MOL   H36220990   0.227   3.899   6.951  0.2407  0.1852 -0.3424
   55MOL   C36320991   0.488   4.517   7.105 -0.4999  0.2522 -0.0364
   55MOL   C36420992   0.625   4.485   7.044 -0.3189  0.4414 -0.0757
   55MOL   O36520993   0.706   4.463   7.157 -0.2973 -0.5326  0.0856
   55MOL   C36620994   0.840   4.419   7.130  0.1950  0.0652  1.0106
   55MOL   C36720995   0.908   4.387   7.266 -1.2144  0.1583  0.2218
   55MOL   C36820996   0.860   4.265   7.333  0.6124 -0.4490 -0.7417
   55MOL   C36920997   0.914   4.506   7.365  0.0472  0.5248 -0.4296
   55MOL   H37020998   0.417   4.555   7.032  0.2540  1.0189 -0.3757
   55MOL   H37120999   0.502   4.591   7.185 -0.3624 -0.5260  0.6655
   55MOL   H37221000   0.659   4.570   6.985 -0.6139  0.9261  0.4484
   55MOL   H37321001   0.845   4.331   7.067 -0.7408  0.8906 -0.2445
   55MOL   H37421002   0.879   4.496   7.064 -0.4462  0.2547  0.8549
   55MOL   H37521003   1.010   4.364   7.235 -2.2449 -2.1927 -1.6318
   55MOL   H37621004   0.908   4.233   7.426  0.4554  1.1580 -0.0930
   55MOL   H37721005   0.867   4.181   7.264 -2.9934 -0.7652 -0.8178
   55MOL   H37821006   0.753   4.278   7.349  0.8689  1.1872 -0.2240
   55MOL   H37921007   0.816   4.550   7.382  0.7803  1.6762  1.0299
   55MOL   H38021008   0.973   4.589   7.324 -0.8614  0.0142 -2.8753
   55MOL   H38121009   0.968   4.480   7.456  1.0120  2.5543 -0.3814
   55MOL   H38221010   0.631   4.400   6.976  1.4895 -2.0019  2.9764
   56MOL     C121011   7.562   6.813   5.502 -0.8006  0.2788 -0.0344
   56MOL     C221012   7.533   6.940   5.580 -0.5561  0.2521  0.2829
   56MOL     O321013   7.388   6.949   5.589  0.5052  0.5350  0.7661
   56MOL     C421014   7.332   7.046   5.498  0.5877 -0.2339 -0.5872
   56MOL     C521015   7.183   7.017   5.478 -0.3246 -1.2876 -0.0516
   56MOL     C621016   7.119   6.989   5.617 -0.1941 -0.1491 -0.2478
   56MOL     C721017   7.164   6.897   5.385 -0.2776  0.2694 -0.4647
   56MOL     H821018   7.663   6.776   5.517 -1.7178 -3.5646 -2.4612
   56MOL     H921019   7.489   6.735   5.521 -0.9787  0.1195 -1.2876
   56MOL    H1021020   7.588   7.029   5.547 -1.0301 -1.0156 -4.2870
   56MOL    H1121021   7.384   7.047   5.402  2.6343 -0.9486  0.4881
   56MOL    H1221022   7.346   7.142   5.548  1.2967 -0.4655 -0.3416
   56MOL    H1321023   7.127   7.100   5.435  0.7438  0.7021  2.3179
   56MOL    H1421024   7.137   7.074   5.682  0.3834  2.5598 -3.8106
   56MOL    H1521025   7.012   6.973   5.608 -0.1503 -0.9425  0.5649
   56MOL    H1621026   7.155   6.903   5.673 -1.7999 -0.5301  0.2276
   56MOL    H1721027   7.212   6.804   5.415 -2.7402 -0.1675  2.2797
   56MOL    H1821028   7.061   6.869   5.364  0.1725 -1.6963 -0.1689
   56MOL    H1921029   7.193   6.927   5.284 -0.0596  2.3143  0.1935
   56MOL    H2021030   7.565   6.825   5.393 -0.7611  0.2359 -0.0383
   56MOL    C2121031   7.583   6.921   5.724 -0.4173  0.3947 -0.3261
   56MOL    C2221032   7.743   6.914   5.737  0.8077 -0.0011  0.2790
   56MOL    O2321033   7.811   7.028   5.680 -0.7322 -0.2157  0.0429
   56MOL    C2421034   0.023   7.018   5.546  0.1766 -0.4604 -0.1993
   56MOL    C2521035   0.057   7.155   5.488  0.5695 -0.5496 -0.1977
   56MOL    C2621036   0.063   7.162   5.337 -0.5031  0.8024 -0.4951
   56MOL    C2721037   7.788   7.270   5.540  0.1593  0.2988  0.1879
   56MOL    H2821038   7.538   7.004   5.777  0.9454 -0.5828  2.4332
   56MOL    H2921039   7.534   6.834   5.767  0.7488 -0.2319 -0.2398
   56MOL    H3021040   7.785   6.826   5.690  0.4115  0.3796 -0.8015
   56MOL    H3121041   7.772   6.979   5.478 -0.6562  0.1136  0.3904
   56MOL    H3221042   0.109   6.950   5.537  0.6088  0.1191 -0.4541
   56MOL    H3321043   0.156   7.173   5.530  0.5693  0.4856 -0.6249
   56MOL    H3421044   0.100   7.258   5.300  0.2131  1.0201  0.7508
   56MOL    H3521045   7.794   7.128   5.292  0.2971  0.7804 -2.1671
   56MOL    H3621046   0.138   7.096   5.295  0.2101  2.7226 -2.3095
   56MOL    H3721047   0.013   7.362   5.510 -1.2549  0.9792 -0.1309
   56MOL    H3821048   7.690   7.263   5.491  0.4088  2.4382 -0.6304
   56MOL    H3921049   7.767   7.263   5.646 -1.7215  1.0485 -0.1042
   56MOL    C4021050   7.784   6.909   5.886  0.5968 -0.3665 -0.6623
   56MOL    C4121051   7.742   6.777   5.960 -0.5611 -0.0936  0.5210
   56MOL    O4221052   7.804   6.791   6.088  0.5840 -0.6846 -0.2231
   56MOL    C4321053   7.718   6.830   6.190 -0.2442  0.6617 -0.5111
   56MOL    C4421054   7.776   6.797   6.331 -0.0134 -0.4057  0.8783
   56MOL    C4521055   7.685   6.850   6.435 -0.7650 -0.6203 -0.6460
   56MOL    C4621056   7.805   6.655   6.350  0.4886  0.2831 -0.3407
   56MOL    H4721057   7.753   7.001   5.936 -0.8620  1.0958 -4.0900
   56MOL    H4821058   0.066   6.930   5.894  0.6008 -0.5026 -0.3697
   56MOL    H4921059   7.634   6.790   5.959 -0.5168  0.4252 -3.1913
   56MOL    H5021060   7.627   6.769   6.187 -0.4587  1.0309 -1.8830
   56MOL    H5121061   7.689   6.935   6.181  0.5104  0.7924 -1.4390
   56MOL    H5221062   0.050   6.844   6.330 -0.9529  1.5765  0.1690
   56MOL    H5321063   7.584   6.814   6.415 -1.6935  1.4945  0.0849
   56MOL    H5421064   7.718   6.809   6.530 -1.7975  1.3358  0.5836
   56MOL    H5521065   7.674   6.958   6.434  0.5507 -0.4459  1.5651
   56MOL    H5621066   0.035   6.611   6.266 -0.7266 -2.0459  0.0383
   56MOL    H5721067   7.716   6.594   6.365  0.7577 -0.1673 -0.5304
   56MOL    H5821068   0.034   6.635   6.443  0.2945 -0.3768 -0.3636
   56MOL    C5921069   7.798   6.646   5.900 -0.3821 -0.0510  0.6617
   56MOL    C6021070   7.757   6.516   5.976  0.3695  0.3419 -0.1051
   56MOL    O6121071   0.052   6.424   5.976 -0.1622 -0.1092 -0.2797
   56MOL    C6221072   0.091   6.370   5.853 -0.4324 -0.7745  0.3738
   56MOL    C6321073   0.212   6.278   5.887 -0.1561 -0.0611 -0.0925
   56MOL    C6421074   0.337   6.342   5.941  0.0153 -0.0530  0.3684
   56MOL    C6521075   0.157   6.169   5.984  0.0148 -0.0063 -0.5961
   56MOL    H6621076   0.082   6.657   5.899 -0.4779  1.0065 -0.7202
   56MOL    H6721077   7.771   6.631   5.795 -1.2895 -0.1920  0.9060
   56MOL    H6821078   7.735   6.543   6.079 -1.9082  0.9707 -0.7377
   56MOL    H6921079   0.007   6.316   5.809 -0.2681 -1.2682  0.6506
   56MOL    H7021080   0.115   6.448   5.780  0.8308 -0.1685  1.4138
   56MOL    H7121081   0.238   6.231   5.793 -1.6269 -1.9849  0.4297
   56MOL    H7221082   0.413   6.265   5.950  0.6044  0.6071  1.1540
   56MOL    H7321083   0.329   6.382   6.042 -0.9146  0.1552  0.2244
   56MOL    H7421084   0.356   6.426   5.873  0.4502 -0.9131 -0.5791
   56MOL    H7521085   0.131   6.216   6.079  0.3751  0.4231 -0.7063
   56MOL    H7621086   0.066   6.120   5.948  0.5343 -1.0975 -0.4456
   56MOL    H7721087   0.233   6.095   6.007 -0.7544  0.5124  4.1874
   56MOL    C7821088   7.635   6.443   5.931  0.4604  0.0396  1.0294
   56MOL    C7921089   7.493   6.501   5.961 -0.2603  0.7681  0.9505
   56MOL    O8021090   7.393   6.417   5.907  0.1602 -0.5355  0.5488
   56MOL    C8121091   7.370   6.425   5.766 -0.6336 -0.1970  0.3725
   56MOL    C8221092   7.263   6.532   5.733 -0.3838 -0.4764  0.0745
   56MOL    C8321093   7.138   6.472   5.804  0.4172 -0.9352 -0.0942
   56MOL    C8421094   7.241   6.536   5.573 -0.3604 -0.3278  0.1225
   56MOL    H8521095   7.638   6.340   5.966 -0.7418 -0.7692 -1.1413
   56MOL    H8621096   7.646   6.431   5.824 -0.0789 -0.7935  1.0560
   56MOL    H8721097   7.490   6.598   5.912 -4.4717 -0.3912 -1.3603
   56MOL    H8821098   7.463   6.439   5.711  1.2044 -1.7104  3.0166
   56MOL    H8921099   7.332   6.330   5.728  1.6401  0.0027 -2.5901
   56MOL    H9021100   7.291   6.630   5.771  0.4209 -0.6419 -0.0918
   56MOL    H9121101   7.106   6.381   5.754  2.7151 -2.6092  1.4126
   56MOL    H9221102   7.057   6.544   5.810  0.7309 -0.4174 -1.9162
   56MOL    H9321103   7.155   6.450   5.909  0.1297  2.7354  0.8079
   56MOL    H9421104   7.231   6.435   5.533  1.5107 -0.9556  1.1800
   56MOL    H9521105   7.334   6.575   5.533 -0.1536 -0.4121  0.5200
   56MOL    H9621106   7.158   6.598   5.539  2.1363  0.7930 -4.2301
   56MOL    C9721107   7.467   6.502   6.115 -0.0248  0.0142  0.7211
   56MOL    C9821108   7.342   6.581   6.142  0.0320  0.2128  0.0787
   56MOL    O9921109   7.356   6.713   6.099  0.2206 -0.8405 -0.2440
   56MOL   C10021110   7.232   6.782   6.084 -0.5157 -0.0929 -0.1799
   56MOL   C10121111   7.255   6.919   6.029 -0.5718  0.2470 -1.2546
   56MOL   C10221112   7.112   6.984   5.999  0.0993 -0.8415  0.5172
   56MOL   C10321113   7.342   7.009   6.135  0.1628  0.3594 -0.1691
   56MOL   H10421114   7.538   6.563   6.171  0.0249 -0.2109  0.9048
   56MOL   H10521115   7.462   6.401   6.157  2.6655 -0.3585  0.2539
   56MOL   H10621116   7.255   6.534   6.095  0.3367 -1.3291  1.0274
   56MOL   H10721117   7.187   6.786   6.184 -0.8012 -0.6522 -0.2803
   56MOL   H10821118   7.163   6.729   6.018 -0.1117 -0.1099 -0.5868
   56MOL   H10921119   7.315   6.925   5.938  1.1765  0.5990 -0.1294
   56MOL   H11021120   7.059   6.970   6.094 -0.0571 -0.9297  0.4190
   56MOL   H11121121   7.105   7.090   5.974  0.8577 -1.5441 -2.9413
   56MOL   H11221122   7.056   6.923   5.928  2.3757 -3.3785  0.7960
   56MOL   H11321123   7.446   6.980   6.151  1.4499  4.0211 -1.2063
   56MOL   H11421124   7.337   7.117   6.118  0.7628  0.5104  0.5913
   56MOL   H11521125   7.288   6.994   6.228  0.5200 -0.4056 -0.0812
   56MOL   C11621126   7.307   6.578   6.295 -0.3143 -0.6227  0.0707
   56MOL   C11721127   7.165   6.537   6.322 -0.3359  0.2215  0.2372
   56MOL   O11821128   7.138   6.414   6.257  0.1523 -0.0523  0.0250
   56MOL   C11921129   7.006   6.400   6.214  0.0373 -0.0042 -0.6067
   56MOL   C12021130   6.976   6.258   6.152 -0.5436  0.3765  0.0580
   56MOL   C12121131   6.833   6.243   6.105 -0.0065 -0.3975  0.0327
   56MOL   C12221132   7.089   6.203   6.063 -0.4437 -0.1054 -0.4846
   56MOL   H12321133   7.362   6.501   6.349 -0.4760 -0.7525  0.0561
   56MOL   H12421134   7.334   6.677   6.329 -1.1012  0.1446 -1.4628
   56MOL   H12521135   7.102   6.616   6.280 -1.0955 -1.1034 -1.1961
   56MOL   H12621136   6.971   6.477   6.145 -1.7208  0.8308  1.1834
   56MOL   H12721137   6.929   6.411   6.290  2.1149  0.7284  1.4610
   56MOL   H12821138   6.966   6.182   6.229  0.1645 -0.7483 -0.9520
   56MOL   H12921139   6.803   6.325   6.040 -2.1448 -2.2178 -1.3984
   56MOL   H13021140   6.765   6.247   6.191  0.1689  0.3171  0.1366
   56MOL   H13121141   6.805   6.146   6.063  1.2299 -1.0611  0.7169
   56MOL   H13221142   7.185   6.238   6.099 -0.8444 -0.6080  1.1301
   56MOL   H13321143   7.084   6.094   6.062  1.2546 -0.1824 -0.9693
   56MOL   H13421144   7.093   6.247   5.963 -0.6272  2.8672  0.7590
   56MOL   C13521145   7.123   6.532   6.471  0.0105 -1.0631 -0.2411
   56MOL   C13621146   7.075   6.662   6.524 -0.6149  0.5706 -0.2387
   56MOL   O13721147   6.931   6.675   6.519 -0.1789  0.1270 -0.3329
   56MOL   C13821148   6.884   6.765   6.419 -0.4572  0.2503 -0.0968
   56MOL   C13921149   6.731   6.771   6.437  0.6738  0.1364 -0.3692
   56MOL   C14021150   6.680   6.880   6.335 -0.4118  0.1124 -0.0981
   56MOL   C14121151   6.663   6.637   6.407  0.0484 -0.6192 -0.3036
   56MOL   H14221152   7.035   6.468   6.473 -1.9011  1.4733  0.0685
   56MOL   H14321153   7.198   6.490   6.537 -0.8226 -0.8433  0.8678
   56MOL   H14421154   7.123   6.747   6.476 -0.8070  0.4261 -0.6917
   56MOL   H14521155   6.891   6.728   6.317  0.1104  1.7284 -0.6158
   56MOL   H14621156   6.947   6.853   6.430  1.3729 -1.1525  0.8582
   56MOL   H14721157   6.712   6.803   6.539 -0.2273  0.4264 -0.6271
   56MOL   H14821158   6.572   6.874   6.321 -0.4770 -2.0032  1.0997
   56MOL   H14921159   6.732   6.858   6.241  3.4917  1.4993  1.6265
   56MOL   H15021160   6.710   6.979   6.370 -0.2515  0.0991 -0.1934
   56MOL   H15121161   6.715   6.546   6.438 -0.8304 -0.8028  0.6974
   56MOL   H15221162   6.557   6.630   6.432  0.1686  2.2296  1.2030
   56MOL   H15321163   6.664   6.621   6.300  1.7711 -0.7994 -0.2619
   56MOL   C15421164   7.091   6.659   6.681 -0.1232  0.4934  0.1321
   56MOL   C15521165   7.028   6.780   6.752  0.1665  0.3100  0.1928
   56MOL   O15621166   7.042   6.750   6.892 -0.0074  0.2375  0.4365
   56MOL   C15721167   6.938   6.807   6.970 -0.1515  0.6444  0.0713
   56MOL   C15821168   6.927   6.729   7.103  0.1806  0.5896 -0.2638
   56MOL   C15921169   7.060   6.735   7.178  0.7657  0.1583 -0.2765
   56MOL   C16021170   6.815   6.773   7.194  0.4196  0.0298 -0.2625
   56MOL   H16121171   7.196   6.659   6.707 -0.2021 -1.8142  0.4724
   56MOL   H16221172   7.055   6.567   6.727 -1.2567  1.0140  0.3113
   56MOL   H16321173   6.921   6.791   6.734  0.2402  1.9912  0.7197
   56MOL   H16421174   6.839   6.794   6.927 -0.4009 -0.5112  0.9598
   56MOL   H16521175   6.937   6.915   6.982  0.0532  0.5853  0.6342
   56MOL   H16621176   6.916   6.622   7.084 -1.8377  0.9576 -1.3584
   56MOL   H16721177   7.102   6.833   7.200  1.2129 -0.2841  0.8410
   56MOL   H16821178   7.139   6.673   7.135  0.7306  0.9228 -1.4615
   56MOL   H16921179   7.029   6.694   7.274 -0.8492 -0.0987 -0.8766
   56MOL   H17021180   6.718   6.744   7.152  2.0320 -0.3638 -3.8405
   56MOL   H17121181   6.806   6.732   7.295 -3.7308  2.1907  0.3942
   56MOL   H17221182   6.803   6.880   7.214  2.2520 -0.0544  1.4331
   56MOL   C17321183   7.088   6.919   6.727  0.9666  0.3794  0.3208
   56MOL   C17421184   7.235   6.945   6.749  0.3412  0.0221 -0.2983
   56MOL   O17521185   7.273   7.067   6.685  0.1264 -0.2760 -0.6014
   56MOL   C17621186   7.343   7.041   6.561  0.0704  0.3785  0.4993
   56MOL   C17721187   7.346   7.169   6.477 -0.1071  0.7212 -0.0596
   56MOL   C17821188   7.208   7.205   6.429  0.0505 -0.6123  0.3780
   56MOL   C17921189   7.432   7.287   6.541  0.3649  0.0678  0.5957
   56MOL   H18021190   7.073   6.937   6.620 -1.0663 -1.4548  0.2511
   56MOL   H18121191   7.024   6.993   6.775 -1.0414  0.3975 -2.2576
   56MOL   H18221192   7.290   6.866   6.699  1.0456  1.4545 -1.8353
   56MOL   H18321193   7.303   6.957   6.505  1.6121  0.1481 -0.2874
   56MOL   H18421194   7.444   7.018   6.593 -0.4739  0.5645  2.3655
   56MOL   H18521195   7.401   7.141   6.387  0.4829  2.4472 -0.2754
   56MOL   H18621196   7.199   7.290   6.363 -1.6259  0.9974  2.6084
   56MOL   H18721197   7.161   7.120   6.379  1.6493 -0.5314 -1.2960
   56MOL   H18821198   7.147   7.211   6.520  4.7526 -2.9720  3.9407
   56MOL   H18921199   7.431   7.376   6.478  0.0924 -1.1658 -1.1755
   56MOL   H19021200   7.534   7.248   6.535  0.0146 -0.9707  1.2718
   56MOL   H19121201   7.397   7.315   6.640  1.8862  2.4140  0.4973
   56MOL   C19221202   7.282   6.954   6.896  0.6595  0.0359  0.3243
   56MOL   C19321203   7.434   6.982   6.922  0.1036  0.2396 -0.2110
   56MOL   O19421204   7.479   6.946   7.052  0.2453 -0.0604 -0.0227
   56MOL   C19521205   7.508   6.807   7.064 -0.0429  0.7038 -0.4820
   56MOL   C19621206   7.544   6.772   7.207  0.1305  0.2871 -0.0755
   56MOL   C19721207   7.602   6.626   7.215 -0.5728 -0.4003  0.4655
   56MOL   C19821208   7.418   6.779   7.288  0.0054  0.8052  0.1154
   56MOL   H19921209   7.259   6.855   6.935 -1.7628  0.1186 -0.7888
   56MOL   H20021210   7.222   7.028   6.950  1.8119  0.7035  0.7078
   56MOL   H20121211   7.472   6.918   6.842 -0.3195 -0.1646 -0.0992
   56MOL   H20221212   7.586   6.768   6.999 -2.0720  0.4316 -2.7865
   56MOL   H20321213   7.423   6.746   7.034 -0.0474 -0.3755  1.5605
   56MOL   H20421214   7.609   6.851   7.245  1.3163  0.0155 -1.4951
   56MOL   H20521215   7.527   6.570   7.158 -0.1045  1.7704 -2.3735
   56MOL   H20621216   7.697   6.631   7.162 -1.9089 -0.1195 -1.9820
   56MOL   H20721217   7.606   6.591   7.318  2.1957  0.7275  0.7725
   56MOL   H20821218   7.351   6.695   7.271 -1.4603  1.6340  1.6598
   56MOL   H20921219   7.445   6.780   7.393 -0.9988  1.3456  0.3717
   56MOL   H21021220   7.363   6.871   7.269 -0.7385  0.6402  1.4251
   56MOL   C21121221   7.474   7.127   6.902  0.9436  0.5077  0.0381
   56MOL   C21221222   7.621   7.162   6.901  0.0566 -0.5650 -0.4614
   56MOL   O21321223   7.657   7.149   6.764  0.1718  0.0041  0.4311
   56MOL   C21421224   7.792   7.123   6.737  0.5583 -0.2660 -0.0903
   56MOL   C21521225   7.823   7.180   6.602  0.0072 -0.0218 -0.6424
   56MOL   C21621226   0.001   7.332   6.605 -0.1121 -0.6223 -0.1175
   56MOL   C21721227   0.136   7.126   6.561  0.7036 -0.4469  0.4612
   56MOL   H21821228   7.431   7.187   6.981 -1.8010  1.9962 -2.4763
   56MOL   H21921229   7.437   7.165   6.806 -0.0062 -0.7387 -0.0964
   56MOL   H22021230   7.675   7.093   6.967 -0.4157  0.3339  0.8987
   56MOL   H22121231   7.814   7.018   6.754  2.8803  0.3858  1.2279
   56MOL   H22221232   0.029   7.175   6.811  1.5573 -1.7934  0.1648
   56MOL   H22321233   7.744   7.147   6.535 -1.6377 -2.0120  2.1608
   56MOL   H22421234   0.013   7.377   6.506 -1.7256  0.2041  0.0409
   56MOL   H22521235   7.729   7.375   6.632 -1.6844 -3.2252 -1.3904
   56MOL   H22621236   0.079   7.377   6.666 -0.4985  0.3610 -0.3261
   56MOL   H22721237   0.107   7.038   6.504  0.6814 -1.2268  1.6571
   56MOL   H22821238   0.191   7.112   6.654 -0.2466 -2.1440  0.7916
   56MOL   H22921239   0.167   7.204   6.492 -1.9294  0.9292  0.7508
   56MOL   C23021240   7.641   7.312   6.938 -0.1780 -1.2698 -0.3485
   56MOL   C23121241   7.628   7.347   7.084 -0.6127 -0.5949 -0.0592
   56MOL   O23221242   7.739   7.298   7.151  0.3438 -0.4094  0.2597
   56MOL   C23321243   7.705   7.188   7.232 -0.2445 -0.2404 -0.0187
   56MOL   C23421244   0.017   7.122   7.284 -0.2625  0.0067  0.6901
   56MOL   C23521245   0.006   7.068   7.429  0.2753  0.2560  0.1682
   56MOL   C23621246   0.065   7.015   7.184  0.1989 -0.1241  0.0574
   56MOL   H23721247   7.569   7.369   6.879 -0.1475  0.2277  1.0105
   56MOL   H23821248   7.739   7.352   6.914 -0.7359  2.2648  2.7983
   56MOL   H23921249   7.535   7.308   7.126 -1.9693  2.6209  0.0940
   56MOL   H24021250   7.650   7.236   7.313  0.2503  0.9219 -0.3590
   56MOL   H24121251   7.635   7.114   7.193 -0.0684 -0.1316 -0.5441
   56MOL   H24221252   0.097   7.197   7.283  0.5831 -0.8908 -0.6794
   56MOL   H24321253   0.006   7.152   7.498 -5.0632 -0.4156  1.1884
   56MOL   H24421254   0.085   7.000   7.459 -0.9427 -0.5634  1.6254
   56MOL   H24521255   7.736   7.016   7.447  0.1593  0.5381  0.3918
   56MOL   H24621256   0.170   7.013   7.210  0.2173 -1.4010 -0.0389
   56MOL   H24721257   0.025   6.916   7.208  2.0863 -1.6568 -2.8521
   56MOL   H24821258   0.057   7.042   7.079  1.0669 -2.7837 -0.7321
   56MOL   C24921259   7.630   7.504   7.103 -0.4347 -0.5744  0.1568
   56MOL   C25021260   7.503   7.586   7.058  0.5609  0.3109 -0.3812
   56MOL   O25121261   7.518   7.602   6.921 -0.4812  0.5020  0.3999
   56MOL   C25221262   7.420   7.667   6.848  0.0098  0.9442  0.6083
   56MOL   C25321263   7.473   7.733   6.721  0.1107  0.5546  0.5401
   56MOL   C25421264   7.506   7.631   6.617  0.3226  0.6246  0.0403
   56MOL   C25521265   7.600   7.821   6.747 -0.2728 -0.0513  0.5423
   56MOL   H25621266   7.717   7.540   7.050 -0.9139 -1.6310 -1.3898
   56MOL   H25721267   7.650   7.521   7.209 -0.2815 -0.0497  0.0430
   56MOL   H25821268   7.512   7.689   7.093  1.9324  0.7040 -1.8528
   56MOL   H25921269   7.351   7.588   6.820  1.4510 -0.2312  0.3112
   56MOL   H26021270   7.361   7.733   6.912  0.2241  1.3403  0.3924
   56MOL   H26121271   7.389   7.789   6.679  1.7980  1.2514 -1.9847
   56MOL   H26221272   7.581   7.561   6.656  1.2897  0.7476 -1.5456
   56MOL   H26321273   7.547   7.674   6.526 -0.4151 -1.1994 -1.1694
   56MOL   H26421274   7.422   7.566   6.594 -1.4014  2.8547 -0.0796
   56MOL   H26521275   7.643   0.041   6.657 -3.0772 -0.4642 -1.0351
   56MOL   H26621276   7.590   0.080   6.818  5.2202  0.6084  0.7838
   56MOL   H26721277   7.683   7.758   6.780  0.1773  1.5670  2.6584
   56MOL   C26821278   7.364   7.522   7.096  0.3022  0.2443 -0.4032
   56MOL   C26921279   7.323   7.516   7.246 -0.7033 -0.5555  0.1252
   56MOL   O27021280   7.231   7.404   7.265  0.5561  0.6646 -0.2101
   56MOL   C27121281   7.269   7.297   7.346 -0.3664  0.0104 -0.7106
   56MOL   C27221282   7.148   7.214   7.403  0.0238  0.0130  0.3279
   56MOL   C27321283   7.040   7.302   7.458 -0.3123 -0.2126  0.3727
   56MOL   C27421284   7.088   7.125   7.297 -0.2552  0.1774 -0.9641
   56MOL   H27521285   7.366   7.423   7.051  3.4213  0.5061 -0.9715
   56MOL   H27621286   7.277   7.570   7.051 -1.6567 -3.7985 -1.1425
   56MOL   H27721287   7.418   7.496   7.296  0.9292  1.1643 -2.2035
   56MOL   H27821288   7.342   7.228   7.304 -1.6009 -1.5253 -0.3945
   56MOL   H27921289   7.329   7.329   7.432 -1.4574 -0.5975  0.2902
   56MOL   H28021290   7.185   7.156   7.488  2.2447  1.6505  0.5020
   56MOL   H28121291   6.960   7.248   7.508  1.6706 -2.1374  1.5180
   56MOL   H28221292   6.996   7.369   7.383 -0.0421 -0.4762 -0.0224
   56MOL   H28321293   7.082   7.359   7.541 -1.4171  1.0188  0.1193
   56MOL   H28421294   7.022   7.165   7.220 -1.3697 -0.5009 -0.3815
   56MOL   H28521295   7.014   7.068   7.354  0.5278  0.4972  0.4053
   56MOL   H28621296   7.161   7.054   7.259  0.2654  1.0197 -1.5368
   56MOL   C28721297   7.259   7.649   7.296 -0.3547  0.3670  0.2313
   56MOL   C28821298   7.219   7.655   7.444 -0.3623  0.1921  0.2110
   56MOL   O28921299   7.096   7.730   7.457 -0.4980 -0.3979 -0.2859
   56MOL   C29021300   6.981   7.655   7.437  0.1495  0.0734 -0.4607
   56MOL   C29121301   6.860   7.734   7.488  0.6912 -0.0422  1.1538
   56MOL   C29221302   6.867   7.754   7.636  0.5370  0.2811  0.4516
   56MOL   C29321303   6.729   7.671   7.452 -0.2621  0.2274 -0.9734
   56MOL   H29421304   7.176   7.673   7.230 -1.1065  0.1556  1.0935
   56MOL   H29521305   7.322   7.733   7.270  0.3219  1.0894  4.0344
   56MOL   H29621306   7.203   7.551   7.472 -0.5355 -0.0290 -0.6804
   56MOL   H29721307   6.975   7.627   7.332  0.8677 -0.7949 -0.2753
   56MOL   H29821308   6.990   7.557   7.485 -1.5504  0.1871  0.1278
   56MOL   H29921309   6.869   0.009   7.443  0.6830 -1.0788 -1.1921
   56MOL   H30021310   6.775   7.805   7.665  0.2927 -0.9662  1.9446
   56MOL   H30121311   6.963   7.799   7.660  0.5831  1.3251 -1.6672
   56MOL   H30221312   6.865   7.657   7.686 -0.6579 -1.0427 -2.0964
   56MOL   H30321313   6.736   7.652   7.345  0.9116  0.5010 -0.9530
   56MOL   H30421314   6.726   7.569   7.492  0.0767  0.5217 -0.1776
   56MOL   H30521315   6.645   7.739   7.468  0.6637  1.2595 -0.3710
   56MOL   C30621316   7.325   7.733   7.529  0.8438 -0.0470  0.9630
   56MOL   C30721317   7.306   7.746   7.686 -0.0814 -0.8074  0.1927
   56MOL   O30821318   7.381   7.652   7.765 -0.0826 -0.0746 -0.0446
   56MOL   C30921319   7.361   7.515   7.721 -0.4215 -0.2151 -0.1082
   56MOL   C31021320   7.411   7.421   0.004 -0.6671  0.2593  0.3460
   56MOL   C31121321   7.558   7.449   0.051 -1.0730  0.0361  0.2172
   56MOL   C31221322   7.393   7.280   7.778  0.5945 -0.5204 -0.1581
   56MOL   H31321323   7.320   0.008   7.484 -0.8630 -0.9167 -0.8459
   56MOL   H31421324   7.426   7.707   7.500  0.2411  0.4856 -1.8564
   56MOL   H31521325   7.199   7.741   7.706 -0.6136  2.0340 -1.6096
   56MOL   H31621326   7.419   7.500   7.630  2.0185  0.6984  1.2355
   56MOL   H31721327   7.255   7.500   7.699  0.0566 -1.6055 -1.5558
   56MOL   H31821328   7.349   7.447   0.090 -1.0916  1.7742 -0.3921
   56MOL   H31921329   7.604   7.358   0.092 -0.1812  0.3520 -0.0590
   56MOL   H32021330   7.553   7.525   0.129 -2.5261 -0.8575  1.0139
   56MOL   H32121331   7.619   7.486   7.793 -2.1292  0.5728 -0.3292
   56MOL   H32221332   7.289   7.257   7.756  1.1542 -2.1853 -1.2423
   56MOL   H32321333   7.431   7.206   0.024 -2.0123  0.2258  2.1186
   56MOL   H32421334   7.451   7.266   7.686 -2.0364  0.3954 -1.9992
   56MOL   C32521335   7.363   0.055   7.734  0.5173 -0.5617 -0.0655
   56MOL   C32621336   7.332   0.099   0.052 -0.7333 -0.2646 -0.1093
   56MOL   O32721337   7.191   0.130   0.057  0.1023  0.0730 -0.1354
   56MOL   C32821338   7.162   0.265   0.066 -0.2202  0.0605  0.0335
   56MOL   C32921339   7.012   0.283   0.055  0.8393 -0.2205  0.7225
   56MOL   C33021340   6.932   0.224   0.175 -0.2414 -0.5452 -0.5116
   56MOL   C33121341   6.985   0.436   0.042 -0.0666 -0.4644  0.5020
   56MOL   H33221342   7.319   0.127   7.665  1.3423  1.2892  1.2829
   56MOL   H33321343   7.469   0.057   7.712  0.3118 -1.8971 -1.2530
   56MOL   H33421344   7.397   0.183   0.078  0.1013 -0.8736 -0.2211
   56MOL   H33521345   7.194   0.299   0.165 -0.1302 -0.7783  0.3015
   56MOL   H33621346   7.207   0.323   7.810  1.4283  1.8826  2.1979
   56MOL   H33721347   6.990   0.234   7.785  0.2991  1.3505  0.0158
   56MOL   H33821348   6.827   0.231   0.148  0.0094 -0.1783 -1.4180
   56MOL   H33921349   6.965   0.122   0.194  0.0502 -0.4660 -0.5958
   56MOL   H34021350   6.942   0.292   0.260 -1.7808 -0.3720 -0.4516
   56MOL   H34121351   7.037   0.473   7.778  1.8352 -1.2359  1.2709
   56MOL   H34221352   6.884   0.464   0.013  0.6610  0.6582 -1.0783
   56MOL   H34321353   7.021   0.492   0.129 -2.4437  1.6173  0.1982
   56MOL   C34421354   7.370   7.822   0.171 -0.7650  0.1585  0.3906
   56MOL   C34521355   7.361   0.052   0.314 -0.4199 -0.0326  0.4021
   56MOL   O34621356   7.374   7.766   0.408 -0.4348  0.3656  0.0562
   56MOL   C34721357   7.259   7.729   0.475  0.1902 -0.6847 -0.1008
   56MOL   C34821358   7.300   7.624   0.577  0.0322  0.5510  0.1108
   56MOL   C34921359   7.368   7.501   0.518  0.4426  0.3387  0.1399
   56MOL   C35021360   7.181   7.578   0.661  0.0966  0.6601  0.2879
   56MOL   H35121361   7.470   7.779   0.165 -0.3419  1.3924 -2.3212
   56MOL   H35221362   7.302   7.738   0.176 -0.0095 -0.6060 -1.5497
   56MOL   H35321363   7.268   0.105   0.332 -0.6686 -0.4038  0.2035
   56MOL   H35421364   7.186   7.698   0.400  0.7379 -0.6074 -0.6671
   56MOL   H35521365   7.213   7.809   0.534  1.1444  0.5632 -1.0203
   56MOL   H35621366   7.370   7.678   0.641  2.3393 -1.6944 -0.4236
   56MOL   H35721367   7.421   7.433   0.584 -0.0688 -1.5794 -1.3613
   56MOL   H35821368   7.434   7.531   0.437  1.5515 -1.9445  0.1441
   56MOL   H35921369   7.295   7.452   0.452 -0.6068  1.6154  0.3352
   56MOL   H36021370   7.142   7.655   0.727  2.0946  1.8877  0.0576
   56MOL   H36121371   7.092   7.549   0.605  0.0134 -1.2431  1.3694
   56MOL   H36221372   7.216   7.497   0.726  3.8510  0.2866 -2.0412
   56MOL   C36321373   7.473   0.153   0.344  0.1648  0.1591 -0.5437
   56MOL   C36421374   7.467   0.212   0.484 -0.6689  0.0359 -0.0201
   56MOL   O36521375   7.582   0.290   0.509 -0.3205  0.5413 -0.8631
   56MOL   C36621376   7.586   0.321   0.650 -0.1431 -0.2600  0.0183
   56MOL   C36721377   7.715   0.399   0.660  0.1715 -0.3987  0.4725
   56MOL   C36821378   7.688   0.536   0.607 -1.0148  0.2391  0.4460
   56MOL   C36921379   0.011   0.343   0.579  0.0685  0.5221 -0.3015
   56MOL   H37021380   7.566   0.101   0.323  0.1132  0.3750 -1.3095
   56MOL   H37121381   7.471   0.240   0.278 -0.1809  0.9888  0.5449
   56MOL   H37221382   7.454   0.135   0.559 -1.7151  0.7818  0.5804
   56MOL   H37321383   7.497   0.373   0.686 -1.1444 -0.0054 -2.6620
   56MOL   H37421384   7.601   0.228   0.705  1.5539  0.5144  0.9011
   56MOL   H37521385   7.727   0.394   0.768 -1.0719  0.6732  0.6805
   56MOL   H37621386   7.656   0.529   0.503  1.3126 -2.1866 -0.1469
   56MOL   H37721387   7.782   0.591   0.604 -1.2687  0.6273 -0.5778
   56MOL   H37821388   7.628   0.590   0.681  0.9996  1.1167  1.4557
   56MOL   H37921389   0.006   0.361   0.471  0.9135 -2.2030 -0.8469
   56MOL   H38021390   0.023   0.234   0.585  1.6307  0.6630 -0.6971
   56MOL   H38121391   0.105   0.384   0.616  0.8541 -1.8858  0.4957
   56MOL   H38221392   7.377   0.274   0.484  0.4434  1.6877 -0.6510
   57MOL     C121393   3.544   0.406   3.950  0.2595 -0.5679 -0.6599
   57MOL     C221394   3.672   0.351   4.017  0.1351 -0.0622 -0.1547
   57MOL     O321395   3.640   0.238   4.107 -0.1944  0.3003  0.1797
   57MOL     C421396   3.587   0.268   4.229 -0.3832 -0.1604  0.2501
   57MOL     C521397   3.539   0.145   4.316 -0.6207 -0.2034  0.2111
   57MOL     C621398   3.650   0.051   4.345 -0.2966 -0.1305 -0.3386
   57MOL     C721399   3.410   0.072   4.259 -0.3260  0.6072 -0.0191
   57MOL     H821400   3.500   0.448   4.041  0.9917  0.2227 -0.6607
   57MOL     H921401   3.562   0.494   3.888  0.3646 -0.8199 -0.9863
   57MOL    H1021402   3.732   0.419   4.078  0.6654 -0.0685 -0.6602
   57MOL    H1121403   3.496   0.322   4.205 -0.7403 -1.5455 -1.6122
   57MOL    H1221404   3.648   0.336   4.289  0.2809 -1.4038  1.0118
   57MOL    H1321405   3.509   0.191   4.410 -1.1242  0.0517 -0.0669
   57MOL    H1421406   3.724   0.102   4.407 -0.4696 -0.0422 -0.2014
   57MOL    H1521407   3.628   7.785   4.401 -0.1731 -0.6505 -1.1309
   57MOL    H1621408   3.696   0.010   4.255 -0.7481 -1.0182 -0.1707
   57MOL    H1721409   3.378   7.813   4.323 -1.5684 -1.4145 -3.1578
   57MOL    H1821410   3.325   0.140   4.252 -1.4822 -0.8733 -0.7091
   57MOL    H1921411   3.425   0.022   4.163  1.7831  1.9434 -0.4092
   57MOL    H2021412   3.482   0.329   3.905  1.7716 -1.9624 -0.3859
   57MOL    C2121413   3.766   0.282   3.916  0.1950  0.9608  0.3078
   57MOL    C2221414   3.836   0.364   3.805  0.7540  0.2379 -0.3004
   57MOL    O2321415   3.940   0.434   3.883 -0.5270 -0.4418  0.3909
   57MOL    C2421416   3.967   0.573   3.848 -0.8263 -0.3404  0.0563
   57MOL    C2521417   4.057   0.643   3.947 -0.4999 -0.4281  0.1323
   57MOL    C2621418   4.119   0.767   3.890  0.2051  0.0725 -0.3314
   57MOL    C2721419   3.996   0.654   4.080  0.5871 -0.6181  0.6899
   57MOL    H2821420   3.846   0.231   3.971 -0.0445  0.0579 -0.1674
   57MOL    H2921421   3.697   0.212   3.870 -0.4415  1.9214 -0.1978
   57MOL    H3021422   3.764   0.440   3.775  2.3794  2.4128  1.1172
   57MOL    H3121423   3.876   0.633   3.843  0.5007  1.7044 -0.1211
   57MOL    H3221424   4.019   0.580   3.753  1.1508  0.8846  1.2095
   57MOL    H3321425   4.149   0.584   3.957  0.0383  0.3727 -0.0075
   57MOL    H3421426   4.038   0.817   3.836 -0.8628  0.2640  1.4264
   57MOL    H3521427   4.205   0.742   3.828  0.5757  1.3692 -0.3457
   57MOL    H3621428   4.159   0.829   3.969 -0.9182  1.6277 -0.9508
   57MOL    H3721429   4.065   0.701   4.150 -1.2682  1.2811  1.3111
   57MOL    H3821430   3.905   0.714   4.075 -0.7487 -2.5374  1.4118
   57MOL    H3921431   3.962   0.557   4.116  1.5793 -1.5874 -0.9277
   57MOL    C4021432   3.891   0.278   3.692  0.2500  0.2821  0.0653
   57MOL    C4121433   3.866   0.345   3.555 -1.0585  0.0084 -0.1060
   57MOL    O4221434   3.725   0.370   3.541  0.1915 -0.4646 -0.3694
   57MOL    C4321435   3.694   0.500   3.485 -0.4383  0.3000 -1.0565
   57MOL    C4421436   3.540   0.522   3.469 -0.7420 -0.7044 -0.2229
   57MOL    C4521437   3.475   0.527   3.614  0.1358  0.3859  0.2657
   57MOL    C4621438   3.517   0.650   3.384  0.2039 -0.0604 -0.6175
   57MOL    H4721439   3.827   0.190   3.691  1.4860 -0.6900  2.2188
   57MOL    H4821440   3.991   0.236   3.700 -0.0131 -0.3193  0.2431
   57MOL    H4921441   3.917   0.441   3.559  0.5557 -0.7701 -1.0988
   57MOL    H5021442   3.743   0.522   3.390 -0.1367  1.1038 -0.7154
   57MOL    H5121443   3.740   0.584   3.537  0.4909  0.0273 -1.4265
   57MOL    H5221444   3.491   0.439   3.418 -1.5277 -1.2250  1.3646
   57MOL    H5321445   3.511   0.607   3.679 -0.1751 -1.1442  2.3657
   57MOL    H5421446   3.367   0.537   3.605  0.1175  0.1503  0.2240
   57MOL    H5521447   3.484   0.432   3.666 -0.0891  0.2482  0.0519
   57MOL    H5621448   3.561   0.634   3.285 -0.5780  0.3333 -1.0305
   57MOL    H5721449   3.578   0.728   3.429  0.1734 -1.1302  1.3451
   57MOL    H5821450   3.414   0.682   3.369 -0.3478 -1.7073 -0.5015
   57MOL    C5921451   3.901   0.254   3.435  0.3803  0.1017 -0.6150
   57MOL    C6021452   4.049   0.278   3.380 -0.0463  0.2215  0.4816
   57MOL    O6121453   4.065   0.420   3.371 -0.4205 -0.2951 -0.6460
   57MOL    C6221454   4.192   0.478   3.401 -0.3947 -0.1146 -0.2085
   57MOL    C6321455   4.194   0.628   3.354 -0.1502  0.1133 -0.3041
   57MOL    C6421456   4.170   0.634   3.210  0.4702  0.3637  0.1802
   57MOL    C6521457   4.097   0.719   3.434 -0.1518 -1.3289  0.3477
   57MOL    H6621458   3.839   0.282   3.349  0.4777  0.6619 -0.5072
   57MOL    H6721459   3.881   0.147   3.439  2.8881 -0.3932 -0.8296
   57MOL    H6821460   4.115   0.235   3.455 -0.9977 -2.3071 -0.0739
   57MOL    H6921461   4.226   0.474   3.504  1.7126 -1.7658 -0.9230
   57MOL    H7021462   4.267   0.415   3.353  3.0118  2.9838  0.8861
   57MOL    H7121463   4.287   0.683   3.368  1.1988 -1.5889 -2.2428
   57MOL    H7221464   4.097   0.556   3.192  0.3273  0.9318 -1.8120
   57MOL    H7321465   4.249   0.589   3.149 -0.4365  1.6569 -2.0200
   57MOL    H7421466   4.132   0.723   3.161  0.5671 -0.0168 -0.5877
   57MOL    H7521467   4.104   0.825   3.409  1.5557 -1.7767 -1.1843
   57MOL    H7621468   3.992   0.694   3.421 -0.5858  0.6126 -0.1281
   57MOL    H7721469   4.115   0.702   3.540  0.9388 -0.8730  0.2442
   57MOL    C7821470   4.054   0.222   3.237  0.2204  0.7308 -0.0569
   57MOL    C7921471   4.193   0.209   3.177 -0.1883  0.3760 -0.1947
   57MOL    O8021472   4.277   0.131   3.260 -0.5720 -0.4752 -0.6433
   57MOL    C8121473   4.413   0.185   3.287  0.4052  1.0018 -0.4719
   57MOL    C8221474   4.471   0.115   3.406 -0.4646 -0.3614  0.5612
   57MOL    C8321475   4.366   0.102   3.524  0.4405 -0.6436  0.0813
   57MOL    C8421476   4.595   0.182   3.454  0.0934 -0.2247  0.0611
   57MOL    H8521477   3.984   0.273   3.171 -1.5111  0.7169  1.7087
   57MOL    H8621478   4.018   0.119   3.227  1.9159  0.0531  0.5853
   57MOL    H8721479   4.231   0.311   3.161  0.6835  0.0976  0.0620
   57MOL    H8821480   4.479   0.165   3.202 -0.3489 -0.8839 -0.6310
   57MOL    H8921481   4.423   0.293   3.300  1.0371  0.9036 -0.1160
   57MOL    H9021482   4.498   0.016   3.371  1.9495  0.9707 -1.4791
   57MOL    H9121483   4.285   0.034   3.497 -0.5941  0.0570  1.3564
   57MOL    H9221484   4.328   0.202   3.546  1.2117 -0.6163  1.3253
   57MOL    H9321485   4.425   0.075   3.611  0.2117  0.3847  0.5640
   57MOL    H9421486   4.629   0.161   3.556  0.3191  1.1692  0.2825
   57MOL    H9521487   4.588   0.290   3.454 -2.3475 -0.3534 -2.6620
   57MOL    H9621488   4.681   0.164   3.390 -0.5643  0.1895 -0.9401
   57MOL    C9721489   4.193   0.135   3.039 -0.0372  0.4975 -0.1507
   57MOL    C9821490   4.102   0.188   2.927 -0.7807 -0.2845 -0.4282
   57MOL    O9921491   4.081   0.090   2.826 -1.0892 -0.1000 -0.1062
   57MOL   C10021492   3.952   0.039   2.805 -0.4104 -0.1758 -0.1887
   57MOL   C10121493   3.968   7.735   2.720  0.2811 -0.5236 -0.0416
   57MOL   C10221494   4.067   7.639   2.778 -0.2123  0.9021 -0.2966
   57MOL   C10321495   3.833   7.677   2.671 -0.4366 -0.2267  0.1601
   57MOL   H10421496   4.160   0.033   3.058 -1.5242  0.6809 -1.6561
   57MOL   H10521497   4.297   0.121   3.007 -0.3027  0.1526 -0.8617
   57MOL   H10621498   4.004   0.208   2.970 -1.6053  0.2593 -2.4996
   57MOL   H10721499   3.885   0.108   2.754 -1.7479 -1.7712 -0.6318
   57MOL   H10821500   3.915   0.012   2.904 -2.1223 -0.0162 -0.7666
   57MOL   H10921501   4.005   7.760   2.620  0.3173  0.3775  0.1908
   57MOL   H11021502   4.110   7.564   2.712 -3.3994  0.4603 -1.9909
   57MOL   H11121503   4.152   7.695   2.818  0.0420  0.2732  0.0440
   57MOL   H11221504   4.026   7.594   2.869 -1.5881  2.9087  0.1119
   57MOL   H11321505   3.778   7.644   2.759  0.8915  1.6238  1.7353
   57MOL   H11421506   3.774   7.759   2.631  1.9567  1.4651 -0.0723
   57MOL   H11521507   3.857   7.592   2.608  0.2866 -0.2536  0.4581
   57MOL   C11621508   4.152   0.315   2.852  1.4995  0.5274 -0.4687
   57MOL   C11721509   4.050   0.400   2.784 -0.4387 -0.4223  0.6468
   57MOL   O11821510   3.973   0.447   2.890 -0.2155  0.0676  0.5449
   57MOL   C11921511   3.867   0.533   2.860 -0.3766  0.4386  0.2749
   57MOL   C12021512   3.802   0.572   2.990 -0.2029 -0.2300 -0.0707
   57MOL   C12121513   3.711   0.695   2.961 -0.0445  0.1908 -0.5181
   57MOL   C12221514   3.708   0.457   3.052  0.1176  0.0723 -0.6626
   57MOL   H12321515   4.213   0.387   2.907  0.7584 -0.5798  1.8726
   57MOL   H12421516   4.225   0.277   2.781  1.5613  1.2674 -0.8088
   57MOL   H12521517   3.982   0.332   2.733 -2.3628  1.1803  0.9921
   57MOL   H12621518   3.797   0.471   2.803  1.0448 -0.1448 -0.8621
   57MOL   H12721519   3.888   0.623   2.804 -0.1767 -0.3119 -0.8730
   57MOL   H12821520   3.870   0.595   3.072  0.3332 -0.4489 -0.4546
   57MOL   H12921521   3.772   0.778   2.925  0.8336 -0.5525 -0.7731
   57MOL   H13021522   3.651   0.720   3.049  1.5268  0.6840  0.4348
   57MOL   H13121523   3.652   0.656   2.878  1.4170 -0.6900 -1.1565
   57MOL   H13221524   3.648   0.488   3.138 -0.0632 -0.8186 -0.4563
   57MOL   H13321525   3.630   0.424   2.984 -0.1981 -1.2692  0.3366
   57MOL   H13421526   3.768   0.374   3.090 -1.0462 -0.9230 -0.9646
   57MOL   C13521527   4.114   0.523   2.708 -0.8174 -0.3356  0.5394
   57MOL   C13621528   4.214   0.495   2.597  0.4018  0.3065 -0.6058
   57MOL   O13721529   4.159   0.415   2.487 -0.3669 -0.1634  0.8825
   57MOL   C13821530   4.187   0.274   2.499  0.4394  0.0351 -0.2160
   57MOL   C13921531   4.086   0.196   2.423 -0.1825 -0.4901  0.1029
   57MOL   C14021532   3.939   0.226   2.459  0.0688  1.0764  0.0566
   57MOL   C14121533   4.115   0.208   2.281 -0.7289  0.0435 -0.2106
   57MOL   H14221534   4.034   0.565   2.647 -0.4908 -0.9709 -0.3333
   57MOL   H14321535   4.167   0.587   2.778  1.5816 -0.5791 -0.9925
   57MOL   H14421536   4.301   0.445   2.639  1.2676  2.3174  0.0457
   57MOL   H14521537   4.167   0.235   2.599  0.1582  0.2236 -0.1981
   57MOL   H14621538   4.293   0.250   2.487  0.3051 -1.8503  1.9754
   57MOL   H14721539   4.121   0.095   2.445  0.5152 -0.4325 -0.7266
   57MOL   H14821540   3.916   0.216   2.565 -0.6878  3.1581  0.1193
   57MOL   H14921541   3.861   0.165   2.413  0.9007  1.3262 -1.7284
   57MOL   H15021542   3.915   0.330   2.436 -1.8978  1.0193  1.6651
   57MOL   H15121543   4.065   0.129   2.224 -1.1648 -0.0006  0.2293
   57MOL   H15221544   4.080   0.303   2.241  0.4135  1.1790  1.4382
   57MOL   H15321545   4.222   0.195   2.266 -0.2117  1.1901  2.3328
   57MOL   C15421546   4.259   0.621   2.529 -0.1764 -0.5561  0.4722
   57MOL   C15521547   4.376   0.693   2.594  0.5087 -0.4316 -0.7256
   57MOL   O15621548   4.357   0.718   2.731  0.1462 -0.6629 -0.6372
   57MOL   C15721549   4.272   0.825   2.762  0.5990 -0.1733 -0.4857
   57MOL   C15821550   4.243   0.817   2.909  0.0277 -0.5717 -0.6238
   57MOL   C15921551   4.365   0.819   2.997 -0.1324  0.3132 -0.2211
   57MOL   C16021552   4.147   0.937   2.950 -0.4526 -0.0469 -0.0815
   57MOL   H16121553   4.184   0.695   2.504 -1.5586 -1.2362  2.4971
   57MOL   H16221554   4.293   0.588   2.430 -0.3934 -0.9976  0.5452
   57MOL   H16321555   4.385   0.792   2.548 -0.1109 -0.3350 -0.6432
   57MOL   H16421556   4.179   0.827   2.705 -0.0846 -2.5410  0.4518
   57MOL   H16521557   4.321   0.918   2.735  0.4852 -0.0214 -0.1692
   57MOL   H16621558   4.183   0.729   2.932 -4.1385  1.4952 -2.8559
   57MOL   H16721559   4.412   0.917   2.987  0.1182  0.0326 -2.0047
   57MOL   H16821560   4.427   0.735   2.965  1.2540  0.6410  1.5309
   57MOL   H16921561   4.343   0.794   3.101 -2.0416 -1.9089 -1.1056
   57MOL   H17021562   4.124   0.924   3.056 -0.6876 -0.7216 -0.2103
   57MOL   H17121563   4.192   1.034   2.930 -1.1854  0.4410  0.5722
   57MOL   H17221564   4.054   0.936   2.894 -0.6862  0.4819  0.2960
   57MOL   C17321565   4.508   0.622   2.570 -0.1901 -0.4229  0.0770
   57MOL   C17421566   4.644   0.694   2.601 -0.0044  0.2239 -0.6527
   57MOL   O17521567   4.695   0.766   2.493  0.7901 -0.2617 -0.3919
   57MOL   C17621568   4.821   0.728   2.448  0.3303  0.6538 -0.0938
   57MOL   C17721569   4.842   0.777   2.304  0.6479 -0.8941 -0.3443
   57MOL   C17821570   4.830   0.927   2.286  0.7075 -0.3451 -0.6226
   57MOL   C17921571   4.956   0.719   2.234  0.0783 -0.2093  1.0813
   57MOL   H18021572   4.498   0.532   2.630 -0.1724 -2.2378 -2.5465
   57MOL   H18121573   4.509   0.583   2.468  2.5771  0.2162 -0.1828
   57MOL   H18221574   4.713   0.612   2.619 -0.1467 -0.3704 -2.7102
   57MOL   H18321575   4.826   0.619   2.437  1.2651  0.7960 -1.2399
   57MOL   H18421576   4.904   0.771   2.504  0.1826  4.0687 -2.3598
   57MOL   H18521577   4.749   0.744   2.258  0.6693 -1.7196  0.1871
   57MOL   H18621578   4.819   0.946   2.179  0.3440 -0.4876 -0.6100
   57MOL   H18721579   4.748   0.963   2.348 -0.4808 -1.5900 -1.4397
   57MOL   H18821580   4.914   0.988   2.320 -1.1117  2.0027 -0.2807
   57MOL   H18921581   4.927   0.641   2.165  0.2747 -0.7225  1.5775
   57MOL   H19021582   5.019   0.676   2.312 -0.8862 -1.4614  1.1761
   57MOL   H19121583   5.015   0.798   2.186 -1.4901 -1.3170 -2.8352
   57MOL   C19221584   4.641   0.788   2.721  0.4212 -0.6792 -0.0803
   57MOL   C19321585   4.772   0.878   2.744 -0.3120 -0.2176  0.1371
   57MOL   O19421586   4.880   0.787   2.766 -0.8228  0.0890 -0.3834
   57MOL   C19521587   5.015   0.840   2.748 -1.0833 -0.0466 -0.5074
   57MOL   C19621588   5.132   0.739   2.779  0.1443  0.7584 -0.5006
   57MOL   C19721589   5.142   0.645   2.671 -0.0817  0.4637  0.0464
   57MOL   C19821590   5.099   0.671   2.913 -0.3095  0.2454  0.7248
   57MOL   H19921591   4.618   0.722   2.804  1.4135 -1.8266 -0.7069
   57MOL   H20021592   4.559   0.859   2.712  1.2337  0.2995  0.0388
   57MOL   H20121593   4.803   0.950   2.668 -0.5620 -0.6731 -0.3954
   57MOL   H20221594   5.028   0.929   2.809 -2.4039 -0.4028  0.3233
   57MOL   H20321595   5.029   0.880   2.648  0.5017 -0.5067 -0.4883
   57MOL   H20421596   5.221   0.802   2.785  0.4802  0.2620 -0.3021
   57MOL   H20521597   5.197   0.688   2.587  1.1797 -0.3213  0.4443
   57MOL   H20621598   5.191   0.558   2.715  0.9517  0.1178 -1.7305
   57MOL   H20721599   5.055   0.590   2.635  1.7400 -1.7923 -1.0992
   57MOL   H20821600   5.161   0.582   2.924  0.4133  0.7244  0.5587
   57MOL   H20921601   5.135   0.740   2.989 -1.0329  0.9488  0.4269
   57MOL   H21021602   4.994   0.642   2.920 -0.7471  1.2945 -1.2742
   57MOL   C21121603   4.751   0.951   2.884  0.6836  0.0328 -0.3351
   57MOL   C21221604   4.658   1.072   2.877  0.3781 -0.7845 -0.1882
   57MOL   O21321605   4.634   1.102   3.016  0.1376 -0.8049 -0.4666
   57MOL   C21421606   4.516   1.173   3.045 -0.1472 -0.1558  0.4049
   57MOL   C21521607   4.487   1.182   3.201  0.2102 -0.3489  0.0302
   57MOL   C21621608   4.592   1.267   3.265  0.1992  0.2698  0.4348
   57MOL   C21721609   4.354   1.248   3.241  0.1547  0.2511 -0.5209
   57MOL   H21821610   4.845   0.993   2.917  0.6740 -0.5913  0.5181
   57MOL   H21921611   4.725   0.875   2.958 -0.2821 -0.1097 -0.8005
   57MOL   H22021612   4.569   1.027   2.832  1.4952 -1.5808 -1.6621
   57MOL   H22121613   4.431   1.120   3.002  0.6890 -0.5233 -0.8323
   57MOL   H22221614   4.506   1.265   2.988  0.1059  1.6607  3.2188
   57MOL   H22321615   4.495   1.086   3.252  1.4166  1.1581  2.8323
   57MOL   H22421616   4.590   1.366   3.219  0.1916 -0.4839 -1.2308
   57MOL   H22521617   4.582   1.282   3.372 -0.4840 -1.2029  0.5849
   57MOL   H22621618   4.693   1.225   3.260  0.7709  1.7934 -1.9788
   57MOL   H22721619   4.332   1.241   3.347 -0.5627  0.9169 -0.6237
   57MOL   H22821620   4.263   1.219   3.188 -0.4497  0.9674  0.1133
   57MOL   H22921621   4.347   1.351   3.206 -1.7130  0.2826 -0.0696
   57MOL   C23021622   4.704   1.197   2.785  0.2044  0.1646 -0.6375
   57MOL   C23121623   4.858   1.244   2.785 -0.0844  0.3927  0.4773
   57MOL   O23221624   4.879   1.336   2.679  0.3557 -0.6487 -0.2300
   57MOL   C23321625   4.966   1.292   2.572 -0.4601  0.5437  0.2482
   57MOL   C23421626   4.983   1.415   2.481  0.5665 -0.9284 -0.2169
   57MOL   C23521627   4.949   1.545   2.555 -0.6861 -0.5528  0.1817
   57MOL   C23621628   5.120   1.424   2.421  0.2730  1.0386 -0.2274
   57MOL   H23721629   4.640   1.282   2.807 -1.6496 -1.3598  0.0186
   57MOL   H23821630   4.677   1.166   2.684  0.7305  2.3144 -1.4645
   57MOL   H23921631   4.916   1.154   2.763  0.2402  1.1768 -2.0251
   57MOL   H24021632   5.059   1.255   2.616 -0.4327 -0.4433 -0.6060
   57MOL   H24121633   4.919   1.214   2.512  1.1655 -0.6770  0.5246
   57MOL   H24221634   4.909   1.408   2.402 -0.7816 -2.0095  1.1089
   57MOL   H24321635   5.003   1.570   2.647 -0.5553 -1.3922  0.3441
   57MOL   H24421636   4.843   1.546   2.579 -0.5334  0.4844  0.8441
   57MOL   H24521637   4.956   1.620   2.476  0.1019 -0.8272 -0.0163
   57MOL   H24621638   5.114   1.487   2.333  1.8363  1.4341 -0.0808
   57MOL   H24721639   5.194   1.467   2.489 -1.2167  0.8433  1.5592
   57MOL   H24821640   5.156   1.324   2.395 -1.3104  0.7048 -1.2199
   57MOL   C24921641   4.900   1.297   2.923  0.2267 -0.3793 -0.1754
   57MOL   C25021642   5.053   1.283   2.959  0.4567  0.3579  0.5155
   57MOL   O25121643   5.098   1.384   3.045 -0.3773 -0.0686 -1.0959
   57MOL   C25221644   5.108   1.513   2.987 -0.5589  0.3317  0.1271
   57MOL   C25321645   5.142   1.598   3.108  0.0891 -0.5879  0.3909
   57MOL   C25421646   5.015   1.625   3.180  0.1837 -0.2042 -0.7713
   57MOL   C25521647   5.197   1.741   3.078 -0.1133  0.1374 -0.1366
   57MOL   H25621648   4.856   1.234   3.000  0.9213 -1.0424 -0.3096
   57MOL   H25721649   4.864   1.396   2.949  2.2652  0.7662 -1.5201
   57MOL   H25821650   5.110   1.296   2.866 -0.7610  0.3617 -0.2451
   57MOL   H25921651   5.191   1.513   2.916 -2.1474  1.8626 -1.8195
   57MOL   H26021652   5.020   1.557   2.939 -0.1135  1.8889  0.6969
   57MOL   H26121653   5.203   1.538   3.176 -0.0576 -2.4501 -1.0669
   57MOL   H26221654   4.942   1.680   3.120 -0.2812 -2.0062 -1.9142
   57MOL   H26321655   5.031   1.670   3.277 -1.5911  0.1239 -0.6049
   57MOL   H26421656   4.956   1.536   3.201 -0.3906  0.4816  0.5855
   57MOL   H26521657   5.299   1.737   3.040 -0.1882 -2.5662 -0.1568
   57MOL   H26621658   5.133   1.797   3.011 -0.9078 -1.2011 -0.5318
   57MOL   H26721659   5.209   1.804   3.166  1.7165 -0.0238 -0.2453
   57MOL   C26821660   5.099   1.150   3.019  0.3617  0.4918 -0.3239
   57MOL   C26921661   5.246   1.126   3.021 -0.2177 -0.3086  0.5571
   57MOL   O27021662   5.279   1.091   2.887  0.0725 -0.2410  0.0149
   57MOL   C27121663   5.387   1.170   2.831  0.4676 -0.8962 -0.6160
   57MOL   C27221664   5.427   1.129   2.687 -0.0843 -0.9603  0.5982
   57MOL   C27321665   5.511   1.000   2.698 -0.3065 -0.7534 -0.0641
   57MOL   C27421666   5.306   1.125   2.589 -0.0921  0.2636  0.5175
   57MOL   H27521667   5.053   1.060   2.980  0.2917  0.3898 -0.0076
   57MOL   H27621668   5.064   1.152   3.122 -0.8452 -1.2049 -0.6882
   57MOL   H27721669   5.300   1.217   3.046 -0.1960 -0.1400 -0.0901
   57MOL   H27821670   5.350   1.273   2.822 -1.3838 -1.4347  0.5501
   57MOL   H27921671   5.463   1.176   2.909 -0.1592 -0.7096 -0.0125
   57MOL   H28021672   5.490   1.209   2.650 -0.2060 -1.0584  0.1751
   57MOL   H28121673   5.472   0.940   2.779  0.7071 -2.6843 -0.9749
   57MOL   H28221674   5.612   1.028   2.728 -0.5118 -0.0673  0.0077
   57MOL   H28321675   5.532   0.944   2.606 -0.2288  0.0005 -0.5131
   57MOL   H28421676   5.325   1.088   2.488  2.0954 -0.1261  1.0444
   57MOL   H28521677   5.266   1.222   2.560 -3.6361 -0.9906  0.9595
   57MOL   H28621678   5.221   1.073   2.633 -0.9665  1.4819  0.2712
   57MOL   C28721679   5.292   1.006   3.118  0.1735 -0.6061 -0.0841
   57MOL   C28821680   5.280   1.046   3.269  0.8516 -0.0244 -0.0315
   57MOL   O28921681   5.384   1.139   3.293 -0.0988  0.3554 -0.1134
   57MOL   C29021682   5.346   1.256   3.368 -0.2274  0.0784  0.3675
   57MOL   C29121683   5.465   1.354   3.362 -0.5575  0.0837  0.5220
   57MOL   C29221684   5.424   1.488   3.422 -0.1980 -0.0191  0.1479
   57MOL   C29321685   5.506   1.380   3.216  0.4966  0.4094  0.0029
   57MOL   H29421686   5.398   0.993   3.096  0.1846  1.9993 -1.7603
   57MOL   H29521687   5.230   0.919   3.097  0.4299 -1.0967  1.1019
   57MOL   H29621688   5.180   1.083   3.291  1.2390  1.8221 -1.3178
   57MOL   H29721689   5.267   1.304   3.311 -2.4190 -2.1982  1.3668
   57MOL   H29821690   5.307   1.237   3.468  0.2172 -0.4862  0.4396
   57MOL   H29921691   5.551   1.304   3.408  1.5762  1.5015 -1.7779
   57MOL   H30021692   5.475   1.579   3.389 -0.3896 -0.0866 -0.3401
   57MOL   H30121693   5.436   1.476   3.530 -0.3913  0.0263  0.1748
   57MOL   H30221694   5.318   1.513   3.410  0.2275  1.5463 -0.4638
   57MOL   H30321695   5.592   1.447   3.223 -0.1289  1.1649  0.6619
   57MOL   H30421696   5.531   1.291   3.159 -0.5740 -0.3309  0.6538
   57MOL   H30521697   5.421   1.426   3.166 -1.5363 -1.0280  1.9681
   57MOL   C30621698   5.315   0.920   3.351 -0.0681 -0.4709  0.2806
   57MOL   C30721699   5.284   0.927   3.506 -0.1888  0.4273 -0.7262
   57MOL   O30821700   5.148   0.965   3.515 -0.2741 -0.3459  0.7026
   57MOL   C30921701   5.100   1.041   3.622 -0.1463 -0.0962 -0.2855
   57MOL   C31021702   4.949   1.076   3.605  0.3331  0.2451  0.1153
   57MOL   C31121703   4.919   1.145   3.473  0.0129 -0.0393  0.2864
   57MOL   C31221704   4.918   1.184   3.710 -0.0033  0.0187  0.0368
   57MOL   H31321705   5.413   0.883   3.321 -0.1250 -0.3335 -0.0665
   57MOL   H31421706   5.241   0.851   3.310  0.5825 -1.4836  0.7822
   57MOL   H31521707   5.356   1.000   3.544  0.3034  0.9395 -2.5892
   57MOL   H31621708   5.149   1.138   3.630  0.5514 -0.1553 -3.3165
   57MOL   H31721709   5.113   0.988   3.717  0.8088 -3.8195 -2.3906
   57MOL   H31821710   4.891   0.986   3.623  1.7720 -0.6029  0.6385
   57MOL   H31921711   4.922   1.074   3.390 -3.1889  0.1989 -0.1163
   57MOL   H32021712   4.988   1.226   3.453 -1.2560  0.8246 -0.6531
   57MOL   H32121713   4.822   1.192   3.456 -0.6439 -1.6988 -0.7417
   57MOL   H32221714   4.986   1.269   3.703 -0.7474  0.4664 -1.9577
   57MOL   H32321715   4.944   1.137   3.805 -0.0161  0.9526  0.5110
   57MOL   H32421716   4.815   1.219   3.713  0.3080  0.9219  0.3055
   57MOL   C32521717   5.314   0.799   3.585 -0.4093  0.5903  0.0399
   57MOL   C32621718   5.250   0.663   3.533 -0.7790 -1.0392 -0.3631
   57MOL   O32721719   5.338   0.557   3.579  0.0534 -0.4792 -0.1548
   57MOL   C32821720   5.441   0.508   3.490 -0.1832  0.7172 -0.3137
   57MOL   C32921721   5.519   0.389   3.545 -0.5109  0.0648 -0.1927
   57MOL   C33021722   5.598   0.427   3.672 -0.2643 -1.0796 -0.0031
   57MOL   C33121723   5.434   0.268   3.565  0.2437  0.6887  0.5575
   57MOL   H33221724   5.288   0.808   3.690 -0.2738  0.8124  0.0542
   57MOL   H33321725   5.422   0.796   3.594 -0.2008  0.9630 -2.0101
   57MOL   H33421726   5.233   0.677   3.427 -3.5455  1.1760  0.3026
   57MOL   H33521727   5.392   0.468   3.402 -2.9091 -2.4016  2.4551
   57MOL   H33621728   5.511   0.588   3.466  0.1460  0.9542  1.3629
   57MOL   H33721729   5.600   0.368   3.476  1.2910 -0.5503  2.0683
   57MOL   H33821730   5.520   0.467   3.737 -0.4950 -4.2486  1.7345
   57MOL   H33921731   5.647   0.346   3.726  1.1631  1.5213  2.7897
   57MOL   H34021732   5.673   0.503   3.650 -1.4930 -0.3302 -1.7301
   57MOL   H34121733   5.496   0.180   3.577  0.4737  0.7464 -0.1938
   57MOL   H34221734   5.371   0.287   3.653 -0.5357  0.2295  0.0989
   57MOL   H34321735   5.370   0.247   3.480  0.2463  0.5417  0.5917
   57MOL   C34421736   5.109   0.651   3.608 -0.6612 -0.1610  0.0377
   57MOL   C34521737   5.010   0.557   3.538  0.9454  0.1995 -0.1639
   57MOL   O34621738   4.945   0.609   3.424  0.4287  0.1125  0.3375
   57MOL   C34721739   4.890   0.737   3.422 -0.6364 -0.0088 -0.0258
   57MOL   C34821740   4.814   0.750   3.291  0.6760 -0.4472  0.0579
   57MOL   C34921741   4.907   0.763   3.173  0.2782  0.5995  0.5237
   57MOL   C35021742   4.706   0.864   3.296  0.2087 -0.6123 -0.8308
   57MOL   H35121743   5.068   0.751   3.621 -0.6515 -0.1052 -0.3690
   57MOL   H35221744   5.119   0.607   3.708 -2.0206 -0.5063  0.0269
   57MOL   H35321745   4.927   0.537   3.605  0.3015  1.9552 -0.4216
   57MOL   H35421746   4.969   0.813   3.425 -0.7556  0.1512 -0.7288
   57MOL   H35521747   4.830   0.751   3.511  1.9119  0.2185  1.7186
   57MOL   H35621748   4.758   0.657   3.278 -1.2440  0.7390 -0.4041
   57MOL   H35721749   4.949   0.862   3.158  0.4351  1.1932  4.4476
   57MOL   H35821750   4.845   0.735   3.088  2.7378 -1.5297 -0.6538
   57MOL   H35921751   4.984   0.686   3.180  0.0526  0.4438  1.3832
   57MOL   H36021752   4.744   0.966   3.304 -0.7205 -0.1414 -2.1907
   57MOL   H36121753   4.653   0.861   3.201  0.5279 -0.3122 -1.0196
   57MOL   H36221754   4.640   0.857   3.383  1.0424 -0.7391 -0.2087
   57MOL   C36321755   5.075   0.414   3.498  0.1578 -0.2889  0.4514
   57MOL   C36421756   4.973   0.308   3.452 -0.2490 -0.1326  0.1690
   57MOL   O36521757   5.061   0.197   3.434 -0.1212  0.0663  0.4145
   57MOL   C36621758   4.996   0.067   3.432 -0.1904 -0.4859  0.2754
   57MOL   C36721759   5.110   7.782   3.423  0.2202  0.0550 -0.3739
   57MOL   C36821760   5.198   7.782   3.541  0.3466 -0.2536  0.3369
   57MOL   C36921761   5.191   7.794   3.299  0.4053  0.2517  0.5159
   57MOL   H37021762   5.155   0.438   3.428 -0.1262  1.5020  0.7333
   57MOL   H37121763   5.120   0.367   3.586  0.0511  1.3870  1.4144
   57MOL   H37221764   4.945   0.328   3.348 -1.3989  0.2961  0.5569
   57MOL   H37321765   4.946   0.064   3.529  0.7283  0.6635  0.7940
   57MOL   H37421766   4.931   0.043   3.347  1.7634  0.3455 -1.5110
   57MOL   H37521767   5.054   7.689   3.412  1.7104 -0.8246 -0.6082
   57MOL   H37621768   5.132   7.780   3.628  0.8877  1.9680  0.8417
   57MOL   H37721769   5.251   0.053   3.549  0.9264 -0.4370 -1.2432
   57MOL   H37821770   5.264   7.696   3.552  1.0946  0.0815 -1.4438
   57MOL   H37921771   5.248   0.062   3.302 -1.5588  1.4957  0.4739
   57MOL   H38021772   5.130   7.791   3.209 -1.8040  0.6855  1.9414
   57MOL   H38121773   5.275   7.726   3.283 -0.2802  0.1677 -3.1976
   57MOL   H38221774   4.892   0.283   3.520  1.0234 -2.5798  0.8463
   58MOL     C121775   3.852   6.809   1.672  0.1029 -0.2958 -0.2617
   58MOL     C221776   3.723   6.884   1.725  0.2394 -0.1681  0.0000
   58MOL     O321777   3.755   7.010   1.769  0.1135 -0.2224 -0.5503
   58MOL     C421778   3.825   7.017   1.897  0.3400  0.2655 -0.2029
   58MOL     C521779   3.843   7.171   1.937  0.0351  0.6195  0.6800
   58MOL     C621780   3.940   7.234   1.837 -0.1683  0.2025 -0.1718
   58MOL     C721781   3.901   7.165   2.077  0.3161 -0.4436 -0.4719
   58MOL     H821782   3.819   6.705   1.665 -0.2957 -0.4437  3.0321
   58MOL     H921783   3.888   6.847   1.576  1.6442 -3.3981 -0.9860
   58MOL    H1021784   3.682   6.820   1.803  0.9955 -1.1776 -0.4151
   58MOL    H1121785   3.922   6.970   1.878  0.2331  0.3308 -0.9067
   58MOL    H1221786   3.776   6.958   1.975  2.1732  0.5828  1.2564
   58MOL    H1321787   3.743   7.215   1.934 -0.0979  0.2682 -0.2139
   58MOL    H1421788   3.900   7.213   1.738  0.7009  0.5583 -0.6031
   58MOL    H1521789   3.938   7.340   1.865 -0.2628  0.1687 -0.0499
   58MOL    H1621790   4.041   7.194   1.844  0.5512  2.1842  1.2917
   58MOL    H1721791   3.831   7.110   2.140 -0.3828 -0.7349 -1.4784
   58MOL    H1821792   4.001   7.122   2.078  1.0636  1.2029 -1.4279
   58MOL    H1921793   3.911   7.264   2.121 -1.9879 -0.0204 -0.7822
   58MOL    H2021794   3.936   6.804   1.743 -1.4183 -3.3148  1.4562
   58MOL    C2121795   3.624   6.899   1.611  0.8774 -0.4934  1.3057
   58MOL    C2221796   3.498   6.974   1.649 -0.1200  0.1574  0.0989
   58MOL    O2321797   3.403   6.958   1.537 -0.0166  0.0617 -0.2519
   58MOL    C2421798   3.423   7.050   1.427  0.3684  0.2071  0.5800
   58MOL    C2521799   3.343   6.981   1.310  0.2442 -0.3302  0.1238
   58MOL    C2621800   3.339   7.078   1.189 -0.4472  0.3808 -1.1369
   58MOL    C2721801   3.396   6.847   1.260 -0.0707 -0.8978  0.0259
   58MOL    H2821802   3.666   6.950   1.524 -1.6352 -0.5633 -0.0056
   58MOL    H2921803   3.595   6.803   1.569 -2.4807  1.4777 -1.0754
   58MOL    H3021804   3.525   7.080   1.647 -0.8674  0.3429 -0.7235
   58MOL    H3121805   3.524   7.069   1.391 -0.1902  0.3563 -0.9662
   58MOL    H3221806   3.382   7.148   1.446  1.6897  1.3215 -1.9721
   58MOL    H3321807   3.239   6.958   1.332  0.2177 -0.5918 -0.2673
   58MOL    H3421808   3.430   7.092   1.130  1.0940 -1.2828  0.7412
   58MOL    H3521809   3.315   7.182   1.209  1.2826  0.6608 -0.4043
   58MOL    H3621810   3.275   7.039   1.110  0.7629 -0.8431 -1.5398
   58MOL    H3721811   3.363   6.834   1.157  0.3849  0.1979 -0.2675
   58MOL    H3821812   3.504   6.835   1.263  0.1857  1.3634  0.6980
   58MOL    H3921813   3.355   6.768   1.323  0.1512 -0.6827  0.4430
   58MOL    C4021814   3.426   6.920   1.769  0.7931 -0.0275  0.1947
   58MOL    C4121815   3.289   6.983   1.814 -0.7678  1.0276 -0.2034
   58MOL    O4221816   3.326   7.106   1.873  0.2483  0.4432 -0.4221
   58MOL    C4321817   3.278   7.223   1.807  0.5061 -0.4349  0.8626
   58MOL    C4421818   3.368   7.343   1.859  0.2536 -0.1591 -0.0658
   58MOL    C4521819   3.384   7.337   2.018 -0.1042 -0.4732  0.5290
   58MOL    C4621820   3.504   7.342   1.793 -0.4808  0.1383  0.1472
   58MOL    H4721821   3.497   6.916   1.851 -0.2918 -2.3238  1.0579
   58MOL    H4821822   3.406   6.814   1.753  2.7848 -0.1851 -1.4568
   58MOL    H4921823   3.223   7.000   1.729 -0.0620 -0.0050 -0.9583
   58MOL    H5021824   3.174   7.232   1.840  0.9881  1.3472  1.9672
   58MOL    H5121825   3.283   7.218   1.698  0.7215 -0.0085  0.8539
   58MOL    H5221826   3.331   7.439   1.824 -1.2868 -1.1125 -1.0825
   58MOL    H5321827   3.455   7.412   2.055  0.7723 -1.2438  0.4217
   58MOL    H5421828   3.287   7.337   2.066 -0.1164  1.0292  0.5394
   58MOL    H5521829   3.434   7.243   2.042  0.5467 -0.3561 -0.3327
   58MOL    H5621830   3.556   7.249   1.819 -1.0202 -0.1660  0.1348
   58MOL    H5721831   3.574   7.424   1.808  2.4294 -1.5339 -3.3799
   58MOL    H5821832   3.484   7.339   1.686 -0.9907  1.9603  0.1864
   58MOL    C5921833   3.208   6.899   1.912  0.0963  0.3572 -0.1303
   58MOL    C6021834   3.055   6.942   1.912 -0.4605  0.0718  0.2806
   58MOL    O6121835   3.002   6.904   2.039  0.2921 -0.7630 -0.0173
   58MOL    C6221836   3.044   6.999   2.135  0.1491  0.4272 -0.1396
   58MOL    C6321837   2.923   7.062   2.204  0.5411 -0.0385 -0.1296
   58MOL    C6421838   2.836   7.132   2.096 -0.1088  0.0007  0.2092
   58MOL    C6521839   2.837   6.966   2.282 -0.2349 -0.6069 -0.2757
   58MOL    H6621840   3.257   6.923   2.007 -1.6136 -0.6044  1.0129
   58MOL    H6721841   3.215   6.793   1.891  0.6286  0.1233  1.1520
   58MOL    H6821842   3.039   7.047   1.890 -1.6753  0.1223  1.3181
   58MOL    H6921843   3.109   6.956   2.210 -0.4057  0.2142  0.2227
   58MOL    H7021844   3.103   7.083   2.098 -1.0049  1.0398 -0.6268
   58MOL    H7121845   2.954   7.139   2.275 -0.8462 -1.3734  1.9806
   58MOL    H7221846   2.758   7.199   2.134  0.3426  0.1167  0.9346
   58MOL    H7321847   2.796   7.059   2.026  1.3158 -1.3334  0.7624
   58MOL    H7421848   2.894   7.199   2.032  1.2223 -3.2581 -2.1223
   58MOL    H7521849   2.807   6.883   2.217 -1.0032 -0.2319 -0.4084
   58MOL    H7621850   2.892   6.915   2.361  0.9642  1.0721 -0.0077
   58MOL    H7721851   2.753   7.022   2.322  0.3397  0.8962 -1.1511
   58MOL    C7821852   2.979   6.858   1.812  0.3885  0.2270 -0.7624
   58MOL    C7921853   2.848   6.921   1.761 -0.0989  0.1914 -0.4341
   58MOL    O8021854   2.857   6.923   1.617 -0.2827  0.0774  0.0227
   58MOL    C8121855   2.920   7.042   1.579 -0.2733 -0.9895  0.4931
   58MOL    C8221856   2.971   7.024   1.438  0.3214 -0.6548  0.5327
   58MOL    C8321857   3.037   7.156   1.381  0.3906 -0.5906  0.2640
   58MOL    C8421858   2.859   6.983   1.337  0.0244 -0.3229  0.2225
   58MOL    H8521859   2.990   6.753   1.839 -1.9888  0.4390  1.2528
   58MOL    H8621860   3.046   6.863   1.727  2.4144  3.3220  0.9391
   58MOL    H8721861   2.835   7.021   1.803  2.0897  0.5745 -0.6042
   58MOL    H8821862   2.858   7.131   1.572 -0.0755 -0.8336  0.7167
   58MOL    H8921863   2.997   7.072   1.650 -1.5092  0.6034  1.2166
   58MOL    H9021864   3.047   6.947   1.449 -1.5111 -2.4268  0.9747
   58MOL    H9121865   3.063   7.132   1.278  0.9563 -0.5191  0.3938
   58MOL    H9221866   3.131   7.173   1.432  0.1691 -0.5929  0.6760
   58MOL    H9321867   2.983   7.251   1.388  1.1728  0.0415 -1.8225
   58MOL    H9421868   2.891   6.966   1.234 -0.9930  0.8562 -0.2975
   58MOL    H9521869   2.778   7.055   1.325  0.0728 -0.4645 -1.0260
   58MOL    H9621870   2.813   6.887   1.360 -0.1386  0.0061  1.2520
   58MOL    C9721871   2.721   6.838   1.797 -0.4705  0.2084  0.1768
   58MOL    C9821872   2.590   6.919   1.792  0.0452 -0.1368 -0.3506
   58MOL    O9921873   2.502   6.842   1.879  0.3621 -0.4157  0.6948
   58MOL   C10021874   2.491   6.891   2.015  0.1370 -0.6605  0.5586
   58MOL   C10121875   2.432   6.784   2.117  0.5183 -0.0572  0.1311
   58MOL   C10221876   2.505   6.649   2.108  0.0661 -0.3214 -0.3865
   58MOL   C10321877   2.425   6.846   2.254 -0.5547  0.3558 -0.6315
   58MOL   H10421878   2.756   6.811   1.896  1.3242  0.0832 -0.4679
   58MOL   H10521879   2.707   6.749   1.735  0.4904  0.6269 -0.6662
   58MOL   H10621880   2.608   7.019   1.831 -2.4324  0.4409 -0.6334
   58MOL   H10721881   2.424   6.975   2.001  0.3030 -0.5557  0.3823
   58MOL   H10821882   2.592   6.919   2.046  0.3816 -0.2151 -0.6134
   58MOL   H10921883   2.328   6.772   2.088  0.0863  0.3140  1.5074
   58MOL   H11021884   2.478   6.595   2.018  1.4084 -0.8314 -0.4897
   58MOL   H11121885   2.612   6.665   2.117 -0.5094  3.3526  1.0071
   58MOL   H11221886   2.482   6.582   2.191  2.6782 -0.9240 -0.0994
   58MOL   H11321887   2.524   6.844   2.299 -0.9190 -0.5783  0.1396
   58MOL   H11421888   2.374   6.942   2.248  0.0231  0.7966  1.3141
   58MOL   H11521889   2.370   6.783   2.324  0.6349 -0.2622 -0.2475
   58MOL   C11621890   2.526   6.935   1.648  0.3858 -0.3052  0.1140
   58MOL   C11721891   2.409   7.047   1.644  0.2512  0.2601 -0.1492
   58MOL   O11821892   2.483   7.171   1.652  0.5735  0.4880  0.5554
   58MOL   C11921893   2.431   7.249   1.768  0.2328  0.0384  0.0142
   58MOL   C12021894   2.518   7.374   1.797  0.5700  0.3556 -0.6279
   58MOL   C12121895   2.485   7.435   1.934 -0.3439  0.1980 -0.4481
   58MOL   C12221896   2.665   7.318   1.794 -0.1942  0.1059 -0.0678
   58MOL   H12321897   2.604   6.952   1.575  0.8532 -2.4342  0.0799
   58MOL   H12421898   2.481   6.841   1.616  0.4086 -0.3772  0.2961
   58MOL   H12521899   2.340   7.035   1.727  2.5137  0.1550  1.7757
   58MOL   H12621900   2.438   7.187   1.858  1.2090  0.0248 -0.0665
   58MOL   H12721901   2.326   7.276   1.757  0.8231  1.4813 -2.3963
   58MOL   H12821902   2.515   7.459   1.729  1.4156  0.2506 -0.8113
   58MOL   H12921903   2.558   7.506   1.972 -0.7308 -0.6827  2.0496
   58MOL   H13021904   2.478   7.352   2.005  1.5785  1.3333  1.1221
   58MOL   H13121905   2.386   7.482   1.936  0.5180  2.0860 -1.0916
   58MOL   H13221906   2.732   7.393   1.836 -0.6473  0.9222 -0.7857
   58MOL   H13321907   2.666   7.229   1.856  0.4697 -1.0246 -1.6892
   58MOL   H13421908   2.697   7.283   1.696  0.5836  1.5147 -0.3324
   58MOL   C13521909   2.343   7.039   1.501  0.1337  0.0567 -0.4725
   58MOL   C13621910   2.262   6.906   1.470 -0.1279  0.3649  0.4331
   58MOL   O13721911   2.164   6.879   1.576  0.3524  0.2535 -0.1693
   58MOL   C13821912   2.187   6.784   1.678  0.7224  0.1877 -0.2426
   58MOL   C13921913   2.055   6.734   1.739  0.3176 -0.2856 -0.3489
   58MOL   C14021914   1.960   6.673   1.654  0.1548 -0.7763 -0.6096
   58MOL   C14121915   2.085   6.649   1.858 -0.0578  0.4279 -0.0000
   58MOL   H14221916   2.292   7.133   1.483  0.2370  0.4604  1.2801
   58MOL   H14321917   2.425   7.054   1.430  3.2366 -1.0607  2.6808
   58MOL   H14421918   2.331   6.824   1.454  0.7978  1.5018 -1.4901
   58MOL   H14521919   2.261   6.818   1.750  0.8596  0.2348 -0.4052
   58MOL   H14621920   2.237   6.699   1.633  2.1239  0.1785  1.2897
   58MOL   H14721921   2.004   6.820   1.782  1.1228  0.2598 -0.4755
   58MOL   H14821922   1.970   6.566   1.635 -0.0770 -1.0072  0.5235
   58MOL   H14921923   1.948   6.734   1.564 -0.7017 -1.8653 -1.2542
   58MOL   H15021924   1.864   6.667   1.706  0.7076 -1.6264  0.3261
   58MOL   H15121925   2.004   6.611   1.920  0.5351 -1.5632 -0.3900
   58MOL   H15221926   2.140   6.559   1.831  0.9079  1.0455 -0.1246
   58MOL   H15321927   2.151   6.701   1.928 -0.4036 -0.9026  1.3305
   58MOL   C15421928   2.192   6.933   1.334  1.0090 -0.1662 -0.1822
   58MOL   C15521929   2.137   6.806   1.259 -0.9859  0.9805 -0.7907
   58MOL   O15621930   2.032   6.866   1.189 -0.3442  0.0377 -0.1349
   58MOL   C15721931   1.922   6.770   1.181 -0.3177  0.1127  0.1985
   58MOL   C15821932   1.852   6.799   1.047 -0.0148  0.0110  0.5157
   58MOL   C15921933   1.777   6.936   1.054  0.3766  0.3735  0.2778
   58MOL   C16021934   1.940   6.798   0.921 -0.3970 -0.5725  0.3005
   58MOL   H16121935   2.262   6.989   1.272  1.7420 -2.3735 -1.4057
   58MOL   H16221936   2.113   7.006   1.348 -0.8410 -1.3281 -3.9499
   58MOL   H16321937   2.099   6.739   1.336 -0.9545  1.9113  0.0440
   58MOL   H16421938   1.854   6.792   1.263  0.2019  1.1110  0.3780
   58MOL   H16521939   1.943   6.663   1.183 -0.7688  0.0459  1.1047
   58MOL   H16621940   1.771   6.728   1.030  1.7689 -1.4086 -2.6860
   58MOL   H16721941   1.848   7.018   1.061  1.2578 -0.4253  0.7692
   58MOL   H16821942   1.712   6.936   1.141 -1.8766  1.5060 -1.3659
   58MOL   H16921943   1.720   6.955   0.963 -0.8100 -1.5801  0.5617
   58MOL   H17021944   1.996   6.705   0.918  0.1802 -0.1802 -2.9021
   58MOL   H17121945   1.885   6.791   0.827  1.1933 -0.0264 -0.6864
   58MOL   H17221946   2.003   6.886   0.917  0.0563 -0.8585  1.0678
   58MOL   C17321947   2.237   6.727   1.170  0.1106  0.0386 -0.0672
   58MOL   C17421948   2.294   6.590   1.222 -0.0042  0.3133  0.1132
   58MOL   O17521949   2.169   6.517   1.255  0.2068 -0.0592  0.3640
   58MOL   C17621950   2.162   6.457   1.382 -0.2656 -0.0787 -0.0609
   58MOL   C17721951   2.056   6.345   1.384  0.2612 -0.1794  0.0012
   58MOL   C17821952   1.908   6.396   1.373 -0.2652 -0.9193  0.1267
   58MOL   C17921953   2.089   6.237   1.286 -0.0141 -0.8748 -1.2745
   58MOL   H18021954   2.185   6.715   1.074  1.3474 -0.3200 -0.7048
   58MOL   H18121955   2.323   6.793   1.156  0.9136 -0.8494  0.6090
   58MOL   H18221956   2.354   6.614   1.310 -0.0273 -0.9931  0.4859
   58MOL   H18321957   2.141   6.541   1.449  0.5730  0.0193  0.0863
   58MOL   H18421958   2.257   6.412   1.410 -0.9968 -0.5284  1.8334
   58MOL   H18521959   2.070   6.294   1.479  0.1556 -3.8490 -1.8994
   58MOL   H18621960   1.888   6.483   1.434  0.7621 -0.2500 -0.4673
   58MOL   H18721961   1.900   6.425   1.268  2.3759  0.6188  0.3021
   58MOL   H18821962   1.829   6.322   1.391 -0.9818  0.2205  1.7031
   58MOL   H18921963   2.024   6.149   1.288 -0.3712 -0.5753  1.7117
   58MOL   H19021964   2.191   6.199   1.301 -0.2803 -0.6922  1.2102
   58MOL   H19121965   2.095   6.276   1.184  0.1230 -1.7489 -1.6149
   58MOL   C19221966   2.371   6.495   1.127 -0.1472  0.5222  0.0372
   58MOL   C19321967   2.513   6.542   1.102 -0.4121  0.1257  0.7357
   58MOL   O19421968   2.564   6.462   0.997  0.6332  0.0616 -0.3679
   58MOL   C19521969   2.525   6.512   0.872 -0.1799 -0.0163 -0.0386
   58MOL   C19621970   2.619   6.446   0.763 -0.4745  0.2629  0.4228
   58MOL   C19721971   2.603   6.519   0.634 -0.1360 -0.1949  0.1590
   58MOL   C19821972   2.597   6.300   0.750 -0.3515  0.0213  0.6391
   58MOL   H19921973   2.306   6.487   1.040  0.6947  2.1654 -0.7648
   58MOL   H20021974   2.375   6.399   1.177 -0.1988 -0.3601 -1.6226
   58MOL   H20121975   2.515   6.648   1.077 -0.3754 -0.0618 -0.0711
   58MOL   H20221976   2.553   6.617   0.866  1.4117 -0.4468 -0.1749
   58MOL   H20321977   2.419   6.492   0.857  0.0452 -0.1138 -1.5288
   58MOL   H20421978   2.720   6.460   0.801  0.5998 -1.2318 -1.7871
   58MOL   H20521979   2.631   6.624   0.634  0.1263 -0.2495 -1.9260
   58MOL   H20621980   2.646   6.479   0.542 -0.1730 -0.9705  0.4728
   58MOL   H20721981   2.500   6.509   0.598 -0.0523 -0.2421 -0.0666
   58MOL   H20821982   2.592   6.254   0.849  0.2080  2.9394  2.0850
   58MOL   H20921983   2.500   6.275   0.705 -0.5698  0.2944  0.9538
   58MOL   H21021984   2.679   6.256   0.695  0.2270  2.8943 -0.8591
   58MOL   C21121985   2.613   6.516   1.222 -0.4748  0.1773  0.7680
   58MOL   C21221986   2.765   6.531   1.195  0.6120  0.2429  0.6451
   58MOL   O21321987   2.805   6.660   1.136 -0.4071  0.1882  0.0730
   58MOL   C21421988   2.862   6.657   1.008 -0.0043 -0.0397  0.1743
   58MOL   C21521989   2.939   6.784   0.974 -0.0047 -0.8511  0.0281
   58MOL   C21621990   3.078   6.801   1.046  0.8757  0.4899  0.5334
   58MOL   C21721991   2.963   6.797   0.825 -0.4904 -0.4403  0.1066
   58MOL   H21821992   2.587   6.417   1.259 -1.7584 -0.0130 -0.5588
   58MOL   H21921993   2.586   6.586   1.301 -1.9118  1.0742 -0.4697
   58MOL   H22021994   2.785   6.454   1.121  0.2981 -0.6218  1.4563
   58MOL   H22121995   2.775   6.652   0.943  0.0433 -1.0553  0.1804
   58MOL   H22221996   2.930   6.573   0.993 -0.0593 -0.2912  1.3088
   58MOL   H22321997   2.871   6.865   1.000 -2.4759 -3.1310  0.7719
   58MOL   H22421998   3.082   6.752   1.144 -1.6641 -0.0449  0.4053
   58MOL   H22521999   3.159   6.757   0.988 -0.8004 -0.4761 -1.1179
   58MOL   H22622000   3.102   6.903   1.075 -0.6784  1.0870 -0.2452
   58MOL   H22722001   3.035   6.876   0.805 -0.7450  0.2548  1.8532
   58MOL   H22822002   2.873   6.818   0.767  0.1626  0.3369 -0.6405
   58MOL   H22922003   3.009   6.711   0.777  0.0666  0.0779 -0.2994
   58MOL   C23022004   2.838   6.513   1.324 -0.5942  0.0251 -0.5609
   58MOL   C23122005   2.993   6.503   1.318 -0.4697 -0.0713  0.2684
   58MOL   O23222006   3.045   6.476   1.452  0.5354  0.2855 -1.1143
   58MOL   C23322007   3.064   6.599   1.528 -0.5060  0.7411 -0.1100
   58MOL   C23422008   3.155   6.570   1.651  0.3672  0.3113 -0.3397
   58MOL   C23522009   3.083   6.464   1.746  0.4982 -0.4716 -0.2554
   58MOL   C23622010   3.301   6.532   1.617 -0.5916  0.7095 -0.1748
   58MOL   H23722011   2.813   6.420   1.377 -0.8006 -0.4486 -1.4854
   58MOL   H23822012   2.807   6.593   1.391 -0.4645 -1.0447  0.8163
   58MOL   H23922013   3.031   6.593   1.270 -0.9654  0.2148  0.4075
   58MOL   H24022014   3.123   6.664   1.464  0.9588 -1.1286 -0.7101
   58MOL   H24122015   2.975   6.654   1.559 -0.7463  0.1460  0.2655
   58MOL   H24222016   3.162   6.666   1.704  0.8363  0.5010 -0.7383
   58MOL   H24322017   3.139   6.446   1.838  1.7637  1.5325 -0.6108
   58MOL   H24422018   3.061   6.366   1.703 -0.6909 -1.3758  2.3227
   58MOL   H24522019   2.989   6.507   1.781  1.3102  0.7465  0.4624
   58MOL   H24622020   3.316   6.425   1.624  0.0881  0.8416  0.3935
   58MOL   H24722021   3.337   6.569   1.522 -0.0559  2.7542  0.7845
   58MOL   H24822022   3.365   6.588   1.685  2.4650  0.3645 -2.7008
   58MOL   C24922023   3.042   6.389   1.230 -0.0354  0.1224  0.6873
   58MOL   C25022024   3.190   6.379   1.234 -0.5849  0.0328 -0.2745
   58MOL   O25122025   3.220   6.237   1.208  0.0509 -0.3114 -0.3611
   58MOL   C25222026   3.258   6.160   1.317 -0.0102 -0.4863 -0.3125
   58MOL   C25322027   3.318   6.025   1.266  0.3076  0.6666 -0.0385
   58MOL   C25422028   3.354   5.938   1.382 -0.0115 -0.0607  0.1149
   58MOL   C25522029   3.439   6.047   1.177 -0.0741  0.1866 -0.3800
   58MOL   H25622030   3.001   6.407   1.130  0.0766  0.1755  0.6518
   58MOL   H25722031   2.998   6.294   1.260  1.0416 -0.8655 -0.7736
   58MOL   H25822032   3.235   6.403   1.330  0.9301  1.6864 -1.3504
   58MOL   H25922033   3.331   6.204   1.385  0.3052  0.4620 -1.2583
   58MOL   H26022034   3.162   6.135   1.363  0.2545 -0.8348  0.0564
   58MOL   H26122035   3.244   5.976   1.203 -0.3139 -0.3717  1.4914
   58MOL   H26222036   3.268   5.921   1.447 -1.1827 -2.1782 -1.9260
   58MOL   H26322037   3.432   5.983   1.444  0.2637 -0.0122 -0.2640
   58MOL   H26422038   3.389   5.841   1.347 -2.3645 -1.2309  0.9336
   58MOL   H26522039   3.476   5.962   1.120 -1.1610  0.4277 -1.4538
   58MOL   H26622040   3.421   6.122   1.100 -0.1042 -0.3398 -0.8891
   58MOL   H26722041   3.525   6.091   1.228 -0.7354 -0.5466  1.4190
   58MOL   C26822042   3.256   6.475   1.131 -0.0255  0.0670  0.1428
   58MOL   C26922043   3.404   6.454   1.103 -0.5504  0.1148 -0.2855
   58MOL   O27022044   3.484   6.485   1.217 -0.0223 -0.4163  0.0854
   58MOL   C27122045   3.617   6.432   1.222  0.0731  0.6140 -0.3693
   58MOL   C27222046   3.688   6.455   1.358 -0.0516 -0.2551  0.3996
   58MOL   C27322047   3.668   6.600   1.406 -0.0470  0.1303  0.9590
   58MOL   C27422048   3.623   6.364   1.462 -0.7369 -0.0325  0.0943
   58MOL   H27522049   3.239   6.581   1.145 -0.1003  0.1815 -0.7854
   58MOL   H27622050   3.201   6.454   1.039  0.4258  1.4026 -0.4367
   58MOL   H27722051   3.403   6.347   1.082  0.8295  0.2756 -1.2662
   58MOL   H27822052   3.619   6.323   1.209  1.2211  0.5574  0.2460
   58MOL   H27922053   3.675   6.476   1.141  1.1857  0.2010  0.1810
   58MOL   H28022054   3.792   6.424   1.343 -0.8096 -1.9937 -1.4160
   58MOL   H28122055   3.563   6.609   1.430 -0.1809  0.6493  0.1782
   58MOL   H28222056   3.687   6.680   1.335  0.7085  0.1636  1.1942
   58MOL   H28322057   3.724   6.622   1.497 -1.1632 -0.4253  1.7877
   58MOL   H28422058   3.670   6.267   1.479 -1.5790 -0.8423 -2.0592
   58MOL   H28522059   3.520   6.335   1.441 -0.2379 -2.3676  0.8190
   58MOL   H28622060   3.606   6.417   1.556 -2.2959  0.4233 -0.4350
   58MOL   C28722061   3.453   6.537   0.980  0.1684 -0.9076 -0.0781
   58MOL   C28822062   3.444   6.470   0.845  0.1999  1.3720  0.1482
   58MOL   O28922063   3.563   6.414   0.802  0.0805 -0.2469 -0.5849
   58MOL   C29022064   3.598   6.286   0.856  0.2614 -0.2474 -0.0549
   58MOL   C29122065   3.731   6.232   0.810  0.0460 -0.7334 -0.2396
   58MOL   C29222066   3.766   6.098   0.876 -0.0016  0.2898 -0.1568
   58MOL   C29322067   3.849   6.337   0.825 -0.1862 -0.5079  0.5771
   58MOL   H29422068   3.553   6.575   0.998  0.5403 -1.7940 -0.2778
   58MOL   H29522069   3.396   6.630   0.987  1.1980 -0.2272 -0.7009
   58MOL   H29622070   3.366   6.395   0.832  1.1989  0.4906 -0.7950
   58MOL   H29722071   3.589   6.281   0.964 -2.4277  0.9847 -0.1745
   58MOL   H29822072   3.523   6.211   0.830 -0.1089  0.3231 -0.6590
   58MOL   H29922073   3.707   6.207   0.706  2.5243 -1.7753 -0.6100
   58MOL   H30022074   3.861   6.054   0.844 -0.1093 -0.2797  0.2912
   58MOL   H30122075   3.697   6.019   0.847  0.0842 -0.5858  1.8717
   58MOL   H30222076   3.772   6.095   0.985  0.8948 -0.7060 -0.2226
   58MOL   H30322077   3.819   6.427   0.771 -1.8664 -1.0416  0.6131
   58MOL   H30422078   3.861   6.360   0.930 -2.4384 -2.3194  1.2646
   58MOL   H30522079   3.940   6.290   0.785 -0.3642  0.1057 -0.5855
   58MOL   C30622080   3.403   6.572   0.734  0.1296  0.0909  0.1136
   58MOL   C30722081   3.390   6.505   0.590  1.3934  0.7740  0.6292
   58MOL   O30822082   3.262   6.529   0.528  0.0370  0.1899  0.6978
   58MOL   C30922083   3.165   6.428   0.563  0.5933 -0.2966 -0.0208
   58MOL   C31022084   3.058   6.427   0.454  0.3789 -0.0970 -0.2263
   58MOL   C31122085   2.971   6.550   0.471 -0.4718 -0.1208 -0.0774
   58MOL   C31222086   2.973   6.298   0.467  0.1218  0.7131  0.1465
   58MOL   H31322087   3.479   6.650   0.738  0.5362 -0.2905 -0.2358
   58MOL   H31422088   3.311   6.621   0.767  0.6396  1.3492 -0.3068
   58MOL   H31522089   3.405   6.397   0.594 -2.2252  0.1630 -0.9943
   58MOL   H31622090   3.131   6.469   0.658 -0.3977  1.8494 -1.2566
   58MOL   H31722091   3.204   6.327   0.578 -0.1648 -0.4504  0.9771
   58MOL   H31822092   3.105   6.438   0.357  0.5523  0.0308 -0.1295
   58MOL   H31922093   2.937   6.577   0.571 -1.4847  0.2272 -0.5124
   58MOL   H32022094   2.875   6.543   0.422  0.3566 -0.9604 -1.6077
   58MOL   H32122095   3.034   6.632   0.435  1.0087 -1.1937 -0.0083
   58MOL   H32222096   3.022   6.209   0.428  1.3209  1.0659  0.8351
   58MOL   H32322097   2.883   6.308   0.406  1.7401  0.5164 -2.3560
   58MOL   H32422098   2.946   6.269   0.569  1.1598  1.0471  0.5166
   58MOL   C32522099   3.496   6.565   0.491 -0.0041  0.5498  0.1223
   58MOL   C32622100   3.519   6.501   0.352  0.5465 -0.3933 -0.4696
   58MOL   O32722101   3.584   6.584   0.257  0.4008 -0.0219  0.4231
   58MOL   C32822102   3.486   6.671   0.195  0.0011 -0.4960  0.1177
   58MOL   C32922103   3.537   6.756   0.080 -0.8632  0.6221 -0.2781
   58MOL   C33022104   3.656   6.845   0.130 -0.1254 -0.3528  0.8392
   58MOL   C33122105   3.581   6.654   7.794  0.9061  0.1687 -0.5590
   58MOL   H33222106   3.585   6.553   0.552 -0.7599  2.2495  1.6177
   58MOL   H33322107   3.477   6.672   0.482 -0.2016  0.5893  0.9569
   58MOL   H33422108   3.423   6.465   0.316 -1.1366  0.1799  3.2812
   58MOL   H33522109   3.400   6.609   0.166 -0.4869 -0.0620  0.6305
   58MOL   H33622110   3.446   6.736   0.273 -1.0009 -0.0823 -0.7380
   58MOL   H33722111   3.457   6.822   0.047  0.0738  2.4584  1.0266
   58MOL   H33822112   3.706   6.899   0.050  0.4907 -0.8074  0.9173
   58MOL   H33922113   3.630   6.925   0.200  0.0249  1.2769 -0.9225
   58MOL   H34022114   3.732   6.790   0.185  0.1238 -0.7748  0.0693
   58MOL   H34122115   3.502   6.581   7.773 -0.2341  1.1835  0.1080
   58MOL   H34222116   3.622   6.707   7.709  1.6648  0.3905 -0.0635
   58MOL   H34322117   3.658   6.591   0.015 -0.7177 -2.0672 -0.7850
   58MOL   C34422118   3.620   6.382   0.359 -0.0334  0.0042 -0.3238
   58MOL   C34522119   3.628   6.287   0.237 -0.4599 -0.0125  0.2036
   58MOL   O34622120   3.753   6.221   0.247  0.9647 -0.0830  0.1252
   58MOL   C34722121   3.831   6.220   0.129  0.3145  0.5760  1.1970
   58MOL   C34822122   3.967   6.144   0.140  0.9783 -0.2314 -0.4063
   58MOL   C34922123   4.040   6.135   0.010 -0.2381 -0.0801 -0.0638
   58MOL   C35022124   3.948   6.012   0.212 -0.6041  0.0702 -0.2127
   58MOL   H35122125   3.611   6.336   0.458 -0.1927  2.6129  0.9392
   58MOL   H35222126   3.722   6.418   0.371  0.7524 -2.0043 -0.8038
   58MOL   H35322127   3.624   6.340   0.141  1.4009  0.7113  0.5035
   58MOL   H35422128   3.859   6.319   0.094  2.0571  0.5452  2.4219
   58MOL   H35522129   3.777   6.170   0.048 -1.8196  2.2557  1.5412
   58MOL   H35622130   4.026   6.215   0.199 -0.6993  1.9689 -1.3042
   58MOL   H35722131   3.984   6.079   7.761 -1.1241  0.8863 -0.1295
   58MOL   H35822132   4.131   6.080   0.036  0.2515  0.8797  0.3246
   58MOL   H35922133   4.071   6.233   7.797  0.7233 -0.5059 -0.4163
   58MOL   H36022134   3.912   6.026   0.314  1.5424 -0.8505  0.6962
   58MOL   H36122135   3.882   5.949   0.153  2.4640 -2.4850 -1.0618
   58MOL   H36222136   4.042   5.958   0.224  0.0026  1.1733  0.1074
   58MOL   C36322137   3.503   6.196   0.243 -0.1105  0.7179 -0.4077
   58MOL   C36422138   3.483   6.110   0.117  0.3658 -0.1594  0.5401
   58MOL   O36522139   3.440   6.199   0.001  0.1857 -0.3070  0.6817
   58MOL   C36622140   3.438   6.140   7.701  0.4541  0.2810 -0.2831
   58MOL   C36722141   3.451   6.258   7.605 -0.2164 -0.0641  0.5531
   58MOL   C36822142   3.434   6.222   7.463  0.0133  0.3255 -0.0981
   58MOL   C36922143   3.581   6.333   7.634  0.0046 -0.0130  0.1288
   58MOL   H37022144   3.503   6.129   0.329 -1.9460  0.9836 -0.1681
   58MOL   H37122145   3.405   6.242   0.256 -1.7154 -2.8215  0.5635
   58MOL   H37222146   3.405   6.033   0.120  2.1643 -1.9825  3.2965
   58MOL   H37322147   3.524   6.074   7.686 -0.4195 -0.7866 -0.6219
   58MOL   H37422148   3.347   6.088   7.673  0.9417  0.1340 -1.6656
   58MOL   H37522149   3.378   6.337   7.624  1.1884  0.7061  2.9591
   58MOL   H37622150   3.422   6.311   7.401  1.0548 -0.0337 -0.8253
   58MOL   H37722151   3.345   6.164   7.437 -0.6298  1.6004 -0.8091
   58MOL   H37822152   3.527   6.183   7.423  0.4666 -0.2761  1.5202
   58MOL   H37922153   3.659   6.258   7.626  0.3122  0.1302  1.7812
   58MOL   H38022154   3.580   6.370   7.736 -1.2062  5.3839 -1.6334
   58MOL   H38122155   3.607   6.421   7.575  1.3687 -0.5368 -0.0501
   58MOL   H38222156   3.574   6.054   0.095  0.4085  0.1662 -0.1160
   59MOL     C122157   1.349   5.566   0.649 -0.3306 -0.1214  0.1310
   59MOL     C222158   1.376   5.559   0.502  0.0138  0.0474  0.6355
   59MOL     O322159   1.270   5.638   0.446  0.5583 -0.0585  0.1705
   59MOL     C422160   1.156   5.571   0.394 -0.4059  0.0843 -0.4886
   59MOL     C522161   1.081   5.664   0.305 -0.2147  0.3502 -0.0305
   59MOL     C622162   1.168   5.714   0.185  0.3752  0.1145  0.8188
   59MOL     C722163   0.999   5.780   0.371  0.0021  0.0257 -0.2004
   59MOL     H822164   1.330   5.673   0.658  1.3578  0.1684  0.4042
   59MOL     H922165   1.261   5.507   0.674 -1.0199  1.5049  1.6218
   59MOL    H1022166   1.376   5.456   0.465  1.4764  0.9644 -2.0821
   59MOL    H1122167   1.108   5.527   0.481 -0.3410 -0.9609 -0.9749
   59MOL    H1222168   1.183   5.493   0.323 -0.7303 -1.2507  0.8372
   59MOL    H1322169   1.003   5.600   0.261 -1.7480  1.6409  0.7723
   59MOL    H1422170   1.113   5.793   0.134 -0.6512 -1.3855 -0.4470
   59MOL    H1522171   1.249   5.769   0.233  0.2811  0.6238  0.3957
   59MOL    H1622172   1.207   5.627   0.131 -0.0901  0.9047 -0.8200
   59MOL    H1722173   0.947   5.829   0.289 -2.1572 -0.7918  0.6416
   59MOL    H1822174   0.922   5.738   0.436 -1.3573 -0.4424 -2.0434
   59MOL    H1922175   1.064   5.852   0.421 -0.7989 -0.7319  2.0152
   59MOL    H2022176   1.434   5.527   0.705 -0.0864  2.3570  1.5295
   59MOL    C2122177   1.507   5.634   0.462 -0.2581 -0.0229  0.1141
   59MOL    C2222178   1.527   5.653   0.310  0.5146  0.0253  0.4444
   59MOL    O2322179   1.634   5.744   0.282  0.3589  0.7095 -0.9571
   59MOL    C2422180   1.616   5.887   0.311 -0.0776 -0.1413 -0.0623
   59MOL    C2522181   1.727   5.974   0.241  0.1299  0.5384  0.1372
   59MOL    C2622182   1.727   5.941   0.087  0.0595  0.5634  0.9794
   59MOL    C2722183   1.694   6.122   0.264 -0.4145  0.7559  1.0970
   59MOL    H2822184   1.508   5.727   0.520 -1.4907  0.5554 -0.7664
   59MOL    H2922185   1.589   5.574   0.501 -0.3300 -0.2004 -0.0116
   59MOL    H3022186   1.433   5.698   0.278 -0.8612 -0.3819  3.6093
   59MOL    H3122187   1.632   5.904   0.417 -0.7712  2.8843 -0.3784
   59MOL    H3222188   1.517   5.920   0.280 -0.1644 -0.0644  0.2931
   59MOL    H3322189   1.823   5.942   0.281 -2.3131 -3.8418  2.8545
   59MOL    H3422190   1.628   5.954   0.044  0.5033  1.0444  0.0977
   59MOL    H3522191   1.750   5.840   0.052  1.4535  1.3885 -0.5153
   59MOL    H3622192   1.798   5.998   0.028 -1.5223 -0.1935 -1.7306
   59MOL    H3722193   1.597   6.141   0.219 -0.7352 -1.1473  0.9502
   59MOL    H3822194   1.683   6.132   0.372 -2.2288  1.7690  0.8400
   59MOL    H3922195   1.773   6.181   0.218  0.4424 -0.3467  1.1143
   59MOL    C4022196   1.548   5.521   0.236 -0.3089 -0.2441  0.5232
   59MOL    C4122197   1.589   5.550   0.088  1.1011 -0.0759 -0.3166
   59MOL    O4222198   1.477   5.600   0.028 -0.4005  0.2728 -0.1958
   59MOL    C4322199   1.496   5.662   7.727 -0.0411  0.2388 -0.7988
   59MOL    C4422200   1.366   5.740   7.684  0.4440  0.2053  0.1275
   59MOL    C4522201   1.387   5.859   7.585  0.1169 -0.6953  0.2661
   59MOL    C4622202   1.252   5.649   7.638  0.0023  0.2660 -0.2789
   59MOL    H4722203   1.468   5.447   0.242 -2.0407  1.4328 -1.3067
   59MOL    H4822204   1.629   5.474   0.293 -0.5692 -0.9345  0.3276
   59MOL    H4922205   1.672   5.620   0.098  0.8190  0.0467  1.2835
   59MOL    H5022206   1.530   5.593   7.650  0.7068 -1.7016  1.2060
   59MOL    H5122207   1.574   5.737   7.739 -1.2706  1.5914 -1.1372
   59MOL    H5222208   1.333   5.789   7.775  1.0159 -0.7833  0.8823
   59MOL    H5322209   1.480   5.914   7.596 -0.9633  1.0586  0.8881
   59MOL    H5422210   1.393   5.831   7.480 -1.3986 -0.6115  0.1409
   59MOL    H5522211   1.310   5.935   7.598  0.1955  0.0150 -2.8333
   59MOL    H5622212   1.285   5.578   7.562  0.2009  0.4609 -0.3758
   59MOL    H5722213   1.166   5.712   7.619 -0.0961  0.9563  2.2719
   59MOL    H5822214   1.217   5.580   7.715 -3.0760 -0.3439 -2.1770
   59MOL    C5922215   1.641   5.422   0.030 -0.4791  0.1510 -0.5228
   59MOL    C6022216   1.785   5.381   0.086 -0.0260 -0.0678 -0.6369
   59MOL    O6122217   1.875   5.478   0.039  0.5501  0.0906 -0.8779
   59MOL    C6222218   1.996   5.490   0.105  0.3596 -0.3012  0.2614
   59MOL    C6322219   2.080   5.603   0.059  0.1309 -0.4284  0.0829
   59MOL    C6422220   2.018   5.733   0.088  0.1242 -0.0748 -0.0143
   59MOL    C6522221   2.214   5.592   0.120  0.2069  0.0425 -0.1142
   59MOL    H6622222   1.648   5.431   7.747  1.4177  1.8030 -0.2976
   59MOL    H6722223   1.572   5.339   0.047  0.7175 -0.8377 -0.4286
   59MOL    H6822224   1.792   5.392   0.194  2.7952  1.1428 -0.9019
   59MOL    H6922225   1.972   5.501   0.211 -1.5762 -3.7000  0.2383
   59MOL    H7022226   2.051   5.396   0.104 -0.9909 -1.1044 -1.1030
   59MOL    H7122227   2.096   5.602   7.775  0.9811  1.0774  0.1735
   59MOL    H7222228   1.926   5.745   0.031 -0.1789  1.2145  0.7166
   59MOL    H7322229   2.080   5.822   0.075 -1.2467  0.6677 -1.7253
   59MOL    H7422230   2.000   5.739   0.195  1.0090 -0.9235  0.1891
   59MOL    H7522231   2.194   5.551   0.219 -1.8370  1.7845  0.2305
   59MOL    H7622232   2.269   5.510   0.075 -0.1031 -0.7557  0.9444
   59MOL    H7722233   2.271   5.685   0.118  1.5019 -0.7370  0.0924
   59MOL    C7822234   1.819   5.234   0.040  0.0357  0.2672 -0.8875
   59MOL    C7922235   1.754   5.107   0.108 -0.4754 -0.4113  0.1040
   59MOL    O8022236   1.800   4.985   0.041  0.2301  0.1772  0.1875
   59MOL    C8122237   1.717   4.948   7.758  0.1751 -0.7418  0.1193
   59MOL    C8222238   1.801   4.845   7.690 -0.2663 -0.8854  0.1572
   59MOL    C8322239   1.945   4.898   7.654 -0.0860 -0.0372  0.2821
   59MOL    C8422240   1.730   4.799   7.560  0.7254 -0.1910 -0.0311
   59MOL    H8522241   1.924   5.207   0.044  0.4808  2.1452  1.2022
   59MOL    H8622242   1.793   5.245   7.759 -1.0879  2.5511 -0.4007
   59MOL    H8722243   1.646   5.108   0.094 -0.3476 -0.2210 -0.8662
   59MOL    H8822244   1.625   4.918   7.808 -0.1960  1.3928  0.7478
   59MOL    H8922245   1.705   5.036   7.694  1.2430  0.0308  0.9535
   59MOL    H9022246   1.811   4.762   7.761 -3.7974 -2.0941 -0.6617
   59MOL    H9122247   1.997   4.953   7.733  1.7357 -0.3536 -0.6540
   59MOL    H9222248   1.937   4.962   7.566  0.4165  1.6679  1.4360
   59MOL    H9322249   2.004   4.810   7.627  0.1432 -0.2890  1.5538
   59MOL    H9422250   1.717   4.880   7.488  0.4958 -0.9908 -0.9011
   59MOL    H9522251   1.629   4.767   7.584  0.3060  1.3989  0.3687
   59MOL    H9622252   1.783   4.717   7.511  0.0602 -1.9402  2.1204
   59MOL    C9722253   1.809   5.077   0.252  0.4983 -0.2294 -0.2503
   59MOL    C9822254   1.684   5.052   0.345  0.6318 -0.0742 -0.1876
   59MOL    O9922255   1.731   5.080   0.478 -0.2799 -0.5986 -0.0969
   59MOL   C10022256   1.696   5.211   0.518  0.1970  0.2960 -0.1077
   59MOL   C10122257   1.753   5.245   0.657  0.3627  0.3306  0.1822
   59MOL   C10222258   1.908   5.249   0.663  0.1927 -0.5257  0.5295
   59MOL   C10322259   1.685   5.364   0.720 -0.3628  0.4654  0.2764
   59MOL   H10422260   1.851   5.170   0.289 -1.1801 -0.3785  2.1073
   59MOL   H10522261   1.887   5.001   0.254  0.6825 -0.0104  1.1984
   59MOL   H10622262   1.613   5.128   0.313 -0.6211 -1.9175 -1.9518
   59MOL   H10722263   1.587   5.200   0.523  0.1440  0.1906 -1.3839
   59MOL   H10822264   1.730   5.280   0.441 -0.2196 -1.0083 -1.4990
   59MOL   H10922265   1.730   5.164   0.727 -1.5978 -0.7233 -1.6217
   59MOL   H11022266   1.962   5.323   0.604 -1.3919  1.5250  1.5515
   59MOL   H11122267   1.916   5.271   0.769 -0.6596 -0.5163  0.5943
   59MOL   H11222268   1.955   5.152   0.647 -2.1319 -1.6715  0.3498
   59MOL   H11322269   1.724   5.375   0.821 -1.0943  0.0813  0.6093
   59MOL   H11422270   1.695   5.456   0.662  1.1773  0.6139  0.7709
   59MOL   H11522271   1.578   5.345   0.728 -0.4273  0.8614  0.3743
   59MOL   C11622272   1.621   4.908   0.347 -0.1680 -0.2479 -0.4247
   59MOL   C11722273   1.473   4.896   0.385 -0.2088 -0.0148  0.1790
   59MOL   O11822274   1.447   4.950   0.518 -1.3761  0.3203 -0.3359
   59MOL   C11922275   1.495   4.867   0.621 -0.1003  0.3875 -0.0855
   59MOL   C12022276   1.421   4.912   0.749  0.0989 -0.0905 -0.1731
   59MOL   C12122277   1.454   4.826   0.868  0.7755  0.0076 -0.3471
   59MOL   C12222278   1.461   5.056   0.786  0.5226 -0.5200  0.1833
   59MOL   H12322279   1.648   4.869   0.248  1.6256  0.4081 -0.2182
   59MOL   H12422280   1.687   4.854   0.414  0.8664  0.3016 -0.9837
   59MOL   H12522281   1.451   4.790   0.392  2.4670 -0.6168 -0.2680
   59MOL   H12622282   1.603   4.878   0.629 -0.3691  3.5694 -0.5003
   59MOL   H12722283   1.457   4.765   0.616  0.6484  0.0560  0.7568
   59MOL   H12822284   1.314   4.911   0.730 -0.3345 -1.1634  2.2141
   59MOL   H12922285   1.561   4.813   0.886  0.9784  1.4406 -0.4911
   59MOL   H13022286   1.417   4.727   0.838  1.9889 -1.1207  1.7827
   59MOL   H13122287   1.398   4.854   0.957 -1.7978 -1.9655 -1.2844
   59MOL   H13222288   1.403   5.106   0.862  1.1532  3.5828 -1.8839
   59MOL   H13322289   1.562   5.057   0.828 -0.4819 -1.2063  2.6808
   59MOL   H13422290   1.446   5.120   0.699 -0.9677  0.9775  1.5126
   59MOL   C13522291   1.371   4.968   0.283 -0.0210 -0.5184  0.1921
   59MOL   C13622292   1.219   4.952   0.296 -0.0755  0.2483 -0.6716
   59MOL   O13722293   1.166   5.040   0.199 -0.2827  0.0092 -0.3235
   59MOL   C13822294   1.099   5.147   0.262  0.3002 -0.3909  0.0702
   59MOL   C13922295   1.062   5.227   0.143  0.2096 -0.5237 -0.1469
   59MOL   C14022296   0.936   5.313   0.176  0.1333  0.4121 -0.3316
   59MOL   C14122297   1.178   5.312   0.081  1.0500  0.1487 -0.0665
   59MOL   H14222298   1.395   5.073   0.271  0.2612 -0.3480  2.1184
   59MOL   H14322299   1.388   4.925   0.184  1.4613  0.1447  0.1542
   59MOL   H14422300   1.222   4.982   0.401  1.6242 -1.5308 -0.1609
   59MOL   H14522301   1.161   5.215   0.319 -0.5996  1.1437 -0.7474
   59MOL   H14622302   1.016   5.116   0.325  0.0434  1.6329  0.7468
   59MOL   H14722303   1.028   5.163   0.062 -2.7418  0.4218  0.3032
   59MOL   H14822304   0.904   5.376   0.092  0.2169 -0.5249 -1.0686
   59MOL   H14922305   0.967   5.368   0.265  3.5335 -0.5341 -0.8836
   59MOL   H15022306   0.848   5.251   0.188  0.9885 -0.6972  0.2214
   59MOL   H15122307   1.212   5.392   0.146  1.2125 -0.5867  0.7628
   59MOL   H15222308   1.268   5.254   0.060  0.4538 -0.2087 -1.7189
   59MOL   H15322309   1.132   5.343   7.812  1.6910  1.1866 -0.0440
   59MOL   C15422310   1.165   4.802   0.275  0.6225  0.3076 -0.3398
   59MOL   C15522311   1.012   4.787   0.297 -0.3795  0.0644 -0.3092
   59MOL   O15622312   0.961   4.668   0.243  0.2248 -0.5830 -0.2695
   59MOL   C15722313   0.943   4.648   0.107 -0.1117  0.4944 -0.0245
   59MOL   C15822314   0.878   4.515   0.066 -0.4276  0.3202  0.3136
   59MOL   C15922315   0.848   4.512   7.736 -0.0420 -0.0013 -0.6457
   59MOL   C16022316   0.957   4.388   0.111 -0.2826 -0.2279 -0.3114
   59MOL   H16122317   1.224   4.735   0.338  1.2319  0.2788 -0.9441
   59MOL   H16222318   1.192   4.771   0.175 -3.9287 -1.6663 -1.0573
   59MOL   H16322319   0.966   4.861   0.231 -0.3700 -2.2611 -3.0032
   59MOL   H16422320   1.041   4.657   0.060  0.3046 -1.2172  0.4578
   59MOL   H16522321   0.887   4.733   0.069  0.0262 -0.4353 -2.3989
   59MOL   H16622322   0.781   4.515   0.116 -0.4149 -2.5083  0.4221
   59MOL   H16722323   0.815   4.411   7.710 -0.3110 -0.1280  0.1698
   59MOL   H16822324   0.938   4.529   7.677  0.7812 -2.2974 -0.0959
   59MOL   H16922325   0.770   4.584   7.709 -0.8668 -1.0177 -1.0009
   59MOL   H17022326   1.032   4.383   0.032 -0.7067  0.9086 -0.7997
   59MOL   H17122327   1.000   4.412   0.208 -1.0403  1.9739 -0.4932
   59MOL   H17222328   0.901   4.295   0.122 -2.4227  1.0230 -0.4010
   59MOL   C17322329   0.968   4.815   0.446 -0.2205  0.4159 -0.1011
   59MOL   C17422330   0.824   4.858   0.456 -0.2313 -0.6619 -0.0464
   59MOL   O17522331   0.795   4.868   0.600 -0.2246  0.2751  0.2664
   59MOL   C17622332   0.724   4.762   0.657 -0.2247  0.5334 -0.1529
   59MOL   C17722333   0.702   4.785   0.809 -0.0866 -0.2909  0.3395
   59MOL   C17822334   0.846   4.777   0.863 -0.5459 -0.0571  1.0523
   59MOL   C17922335   0.625   4.911   0.853 -0.0396  0.3508  0.3832
   59MOL   H18022336   1.000   4.734   0.510 -1.2238 -0.2024 -0.3656
   59MOL   H18122337   1.025   4.899   0.486 -1.6829  0.0801  2.8096
   59MOL   H18222338   0.770   4.779   0.404  3.5723 -3.0504 -0.5970
   59MOL   H18322339   0.773   4.669   0.628 -0.8654  0.7692 -2.0149
   59MOL   H18422340   0.632   4.756   0.599  0.7097 -0.3455 -1.5574
   59MOL   H18522341   0.671   4.688   0.849  0.6880 -1.7549 -2.4679
   59MOL   H18622342   0.901   4.867   0.838  0.7677 -0.5742  2.0418
   59MOL   H18722343   0.852   4.751   0.968 -0.9070 -1.8396  0.6450
   59MOL   H18822344   0.895   4.691   0.816  0.3762 -0.3559  2.5247
   59MOL   H18922345   0.618   4.935   0.959 -1.0964  0.0227  0.3872
   59MOL   H19022346   0.519   4.920   0.829 -0.2933 -2.0290  0.4638
   59MOL   H19122347   0.670   4.993   0.796 -1.4297  0.7707 -0.1312
   59MOL   C19222348   0.775   4.989   0.396  0.7937 -0.0497  0.4964
   59MOL   C19322349   0.628   5.010   0.412 -0.1061  0.0007  0.3367
   59MOL   O19422350   0.575   4.908   0.332 -0.0059 -0.2072 -0.1961
   59MOL   C19522351   0.447   4.856   0.372 -0.1835 -0.0604 -1.2724
   59MOL   C19622352   0.420   4.728   0.294 -0.1935  0.0338  0.1846
   59MOL   C19722353   0.522   4.622   0.328 -0.1323  0.0511  0.1981
   59MOL   C19822354   0.399   4.741   0.143  0.3769  0.0307  1.0018
   59MOL   H19922355   0.799   4.997   0.290  2.6156 -0.9285  0.8339
   59MOL   H20022356   0.818   5.081   0.434  1.2124  0.6949 -1.7194
   59MOL   H20122357   0.591   5.008   0.514  1.4081 -1.0499  0.8875
   59MOL   H20222358   0.365   4.925   0.353 -2.0835 -1.5272  1.1809
   59MOL   H20322359   0.451   4.833   0.479  0.0104  1.4163 -0.9575
   59MOL   H20422360   0.320   4.706   0.331  0.6970  2.0429  3.9529
   59MOL   H20522361   0.624   4.661   0.332 -0.3556  0.4599  2.1986
   59MOL   H20622362   0.500   4.595   0.431 -2.8356 -1.8473 -0.8082
   59MOL   H20722363   0.511   4.534   0.264  0.5929 -0.3515  0.6192
   59MOL   H20822364   0.486   4.795   0.104 -1.2312  1.1917 -1.0956
   59MOL   H20922365   0.385   4.642   0.098  1.0138  0.4254 -0.0951
   59MOL   H21022366   0.315   4.803   0.112  1.2924  0.4621 -0.7434
   59MOL   C21122367   0.586   5.141   0.335  0.2811 -0.5312 -0.1418
   59MOL   C21222368   0.573   5.262   0.438 -0.5788  0.9367 -0.7451
   59MOL   O21322369   0.711   5.297   0.446  0.4489 -0.4630  0.2798
   59MOL   C21422370   0.730   5.375   0.560 -0.5568 -0.0591 -0.2475
   59MOL   C21522371   0.868   5.332   0.609 -0.0206  0.2494 -0.1792
   59MOL   C21622372   0.925   5.444   0.703 -0.3858  0.2671  0.6497
   59MOL   C21722373   0.867   5.209   0.699  0.5815  0.0376  0.0663
   59MOL   H21822374   0.488   5.116   0.293  0.0749 -0.9056  0.5610
   59MOL   H21922375   0.654   5.158   0.251  0.3974 -0.5834 -0.0586
   59MOL   H22022376   0.534   5.222   0.532  1.0346  3.3046  1.0182
   59MOL   H22122377   0.656   5.353   0.637 -0.3794  0.4566  0.0752
   59MOL   H22222378   0.726   5.482   0.540  0.8447  0.1625  0.6292
   59MOL   H22322379   0.933   5.312   0.524  0.6033  3.3443 -0.4974
   59MOL   H22422380   0.937   5.537   0.648 -1.0099  1.4762  2.5224
   59MOL   H22522381   0.864   5.465   0.791 -1.3535  0.3143 -0.0307
   59MOL   H22622382   1.027   5.416   0.729 -0.6752 -0.9734  0.4718
   59MOL   H22722383   0.831   5.125   0.639 -2.1623  0.5082  0.9577
   59MOL   H22822384   0.795   5.223   0.780  0.0163  0.6939 -0.5406
   59MOL   H22922385   0.967   5.188   0.736  0.6101 -0.7135 -0.4339
   59MOL   C23022386   0.506   5.382   0.366  0.4726 -0.1504  0.4840
   59MOL   C23122387   0.380   5.437   0.437 -0.1974  0.5396 -0.0079
   59MOL   O23222388   0.429   5.483   0.564  0.6257  0.0372 -0.4221
   59MOL   C23322389   0.332   5.481   0.666 -0.0519  0.0386  0.4677
   59MOL   C23422390   0.371   5.568   0.786 -0.3600 -0.6874 -0.9378
   59MOL   C23522391   0.508   5.525   0.831 -0.9188  0.2401  0.1543
   59MOL   C23622392   0.378   5.720   0.746  0.1739 -0.0690 -0.9032
   59MOL   H23722393   0.477   5.347   0.267  1.9194  1.2954 -0.4837
   59MOL   H23822394   0.578   5.462   0.352  1.1293 -0.9244 -0.6635
   59MOL   H23922395   0.302   5.363   0.454  0.9965 -0.4907  1.0729
   59MOL   H24022396   0.234   5.507   0.627  0.0429 -0.4431 -0.0934
   59MOL   H24122397   0.324   5.377   0.697  1.9532 -0.3822 -0.3686
   59MOL   H24222398   0.302   5.553   0.869  2.3802 -0.8914  1.3932
   59MOL   H24322399   0.511   5.418   0.852 -1.0153  0.0677 -0.6781
   59MOL   H24422400   0.539   5.580   0.920  2.4258  0.9868 -1.3784
   59MOL   H24522401   0.581   5.546   0.753 -1.5628 -1.4896 -0.9527
   59MOL   H24622402   0.421   5.781   0.825  1.5143 -0.4128 -1.3589
   59MOL   H24722403   0.438   5.732   0.656 -0.6028 -0.6206 -1.5060
   59MOL   H24822404   0.280   5.762   0.724 -0.5215 -0.8443  0.5612
   59MOL   C24922405   0.332   5.570   0.366 -0.1073  0.0908 -0.3248
   59MOL   C25022406   0.208   5.542   0.265 -0.6102 -0.3187 -0.4761
   59MOL   O25122407   0.229   5.440   0.176 -0.1386 -0.5627 -0.9008
   59MOL   C25222408   0.256   5.485   0.043 -0.1018 -0.5945 -0.8208
   59MOL   C25322409   0.283   5.365   7.776  0.2666  0.1862 -0.8144
   59MOL   C25422410   0.136   5.297   7.746 -0.3002 -0.2563 -0.3031
   59MOL   C25522411   0.392   5.281   0.005 -0.3002 -0.1477 -0.2938
   59MOL   H25622412   0.418   5.615   0.316  0.7024 -0.3584  0.6383
   59MOL   H25722413   0.298   5.644   0.439 -1.1265  1.3664 -2.0695
   59MOL   H25822414   0.184   5.636   0.215  2.8377  0.7262 -0.2428
   59MOL   H25922415   0.162   5.536   0.021  0.2096  0.0710 -0.6235
   59MOL   H26022416   0.340   5.553   0.050 -1.0811  0.7747 -2.1057
   59MOL   H26122417   0.307   5.406   7.677  0.1495  1.0497 -0.4864
   59MOL   H26222418   0.064   5.370   7.707 -1.3357 -0.2777  1.4956
   59MOL   H26322419   0.110   5.265   0.022 -0.6394 -0.4500 -0.4534
   59MOL   H26422420   0.130   5.208   7.685 -0.4662 -1.7908  1.8846
   59MOL   H26522421   0.423   5.200   7.762 -0.4668 -1.5951  1.3438
   59MOL   H26622422   0.487   5.327   0.032 -0.8857  1.2970 -0.6449
   59MOL   H26722423   0.357   5.237   0.098 -1.2112  3.8870  1.3566
   59MOL   C26822424   0.077   5.508   0.345  0.3486  0.9362 -0.0116
   59MOL   C26922425   7.784   5.481   0.248  0.0938 -0.3371  0.2395
   59MOL   O27022426   7.771   5.597   0.167 -0.2054 -0.0765  0.1166
   59MOL   C27122427   7.696   5.602   0.041  0.8058 -0.0917 -0.8665
   59MOL   C27222428   7.702   5.751   7.810  1.3025  0.6184 -0.5347
   59MOL   C27322429   7.620   5.839   0.084 -0.6960  0.3855 -0.1585
   59MOL   C27422430   0.010   5.800   7.773 -0.0498  0.0523  0.5772
   59MOL   H27522431   0.048   5.579   0.423 -1.9810 -0.5908  0.5587
   59MOL   H27622432   0.098   5.413   0.394  0.1592 -0.0022 -1.7065
   59MOL   H27722433   7.800   5.403   0.173 -1.7525 -1.1684  0.6800
   59MOL   H27822434   7.732   5.527   7.796  1.5065 -0.8570  0.2942
   59MOL   H27922435   7.591   5.572   0.046  0.5021  0.9163 -1.0168
   59MOL   H28022436   7.651   5.745   7.714  0.4112 -1.3226  0.0321
   59MOL   H28122437   7.671   5.840   0.180  0.2802  0.9155 -0.6840
   59MOL   H28222438   7.517   5.809   0.106 -0.6451 -1.6933 -2.4518
   59MOL   H28322439   7.609   5.942   0.053  0.9348  0.0443 -1.9451
   59MOL   H28422440   0.053   5.729   7.702 -0.1359 -0.3959  0.9685
   59MOL   H28522441   0.073   5.806   0.037  0.0834 -1.0977  0.5668
   59MOL   H28622442   0.006   5.894   7.717 -1.8013 -0.5653 -0.3746
   59MOL   C28722443   7.646   5.462   0.323 -0.2875 -0.0155  0.2842
   59MOL   C28822444   7.625   5.337   0.413 -0.0333  0.7302  0.0096
   59MOL   O28922445   7.674   5.224   0.346  0.5700 -0.1486  0.5522
   59MOL   C29022446   7.726   5.128   0.439  0.5717  0.4381 -0.0661
   59MOL   C29122447   7.819   5.024   0.366 -0.1240 -0.2097 -0.2972
   59MOL   C29222448   0.070   4.929   0.465 -0.0422 -0.4986 -0.3137
   59MOL   C29322449   0.101   5.086   0.282 -0.0706  0.1686 -0.0779
   59MOL   H29422450   7.560   5.473   0.257  0.6516 -1.8326 -1.3167
   59MOL   H29522451   7.641   5.550   0.386  0.8817  0.4553 -0.2581
   59MOL   H29622452   7.700   5.356   0.491  0.3428  0.4322 -0.2787
   59MOL   H29722453   7.782   5.167   0.523  1.2484 -0.1016 -0.2588
   59MOL   H29822454   7.641   5.068   0.472 -0.9252  0.6758 -3.2660
   59MOL   H29922455   7.766   4.957   0.299 -2.1027 -0.3810  1.3649
   59MOL   H30022456   0.119   4.987   0.543  0.1558 -0.9846 -0.0769
   59MOL   H30122457   0.146   4.871   0.413  0.2428 -0.2297 -0.2031
   59MOL   H30222458   0.009   4.866   0.530  0.1858  0.0093  0.4006
   59MOL   H30322459   0.177   5.119   0.352 -0.2397  2.6325 -1.0065
   59MOL   H30422460   0.121   5.003   0.214 -1.8765  0.0090 -0.4378
   59MOL   H30522461   0.065   5.178   0.235 -1.7480  0.2781  1.3734
   59MOL   C30622462   7.481   5.317   0.468  0.0863  0.3348  0.0295
   59MOL   C30722463   7.477   5.304   0.623 -0.3435  0.4987  0.5907
   59MOL   O30822464   7.529   5.429   0.674  0.4215  0.2588  0.1555
   59MOL   C30922465   7.633   5.407   0.768  0.1703 -0.3542  0.3115
   59MOL   C31022466   7.703   5.533   0.817 -0.0359  0.1319  0.3717
   59MOL   C31122467   7.613   5.587   0.928  0.4028 -0.5798  0.8438
   59MOL   C31222468   7.749   5.627   0.703 -0.5466  1.1209  0.8843
   59MOL   H31322469   7.428   5.227   0.435 -0.1835 -0.5945  2.9199
   59MOL   H31422470   7.424   5.405   0.439  1.7955  1.0675 -1.1926
   59MOL   H31522471   7.537   5.222   0.663 -1.0283 -0.8365 -1.0964
   59MOL   H31622472   7.705   5.337   0.725 -1.8597 -2.7975  0.7433
   59MOL   H31722473   7.602   5.349   0.856  0.7745  2.7985  2.6784
   59MOL   H31822474   7.794   5.499   0.867 -0.1895 -1.1047 -0.1800
   59MOL   H31922475   7.622   5.518   1.012  1.1489 -1.1323  0.3201
   59MOL   H32022476   7.506   5.579   0.907  0.5328  0.6718 -0.3836
   59MOL   H32122477   7.649   5.683   0.965  3.6453 -1.9650  1.4579
   59MOL   H32222478   7.780   5.722   0.745  4.8560 -0.1049  0.0246
   59MOL   H32322479   7.674   5.657   0.630 -0.4001  0.4300  0.4393
   59MOL   H32422480   7.824   5.582   0.638  0.7593  2.1818  1.6415
   59MOL   C32522481   7.344   5.295   0.690 -0.7089  0.4791  0.8433
   59MOL   C32622482   7.267   5.165   0.669 -1.1400  0.5394  0.6313
   59MOL   O32722483   7.342   5.058   0.721 -1.0698 -0.3278 -1.1244
   59MOL   C32822484   7.386   4.966   0.625  0.4981  0.2653 -0.2753
   59MOL   C32922485   7.452   4.856   0.699  0.0193 -0.0076 -0.5106
   59MOL   C33022486   7.484   4.742   0.602  0.0420  0.0536  0.0530
   59MOL   C33122487   7.585   4.899   0.778 -0.3236  0.7992  0.3862
   59MOL   H33222488   7.286   5.376   0.645 -2.5498 -2.1194 -1.6763
   59MOL   H33322489   7.367   5.304   0.796  0.3793 -2.2148  0.8843
   59MOL   H33422490   7.246   5.159   0.562 -1.0660  0.3479  0.6264
   59MOL   H33522491   7.298   4.934   0.569  0.7343  0.8006 -0.9750
   59MOL   H33622492   7.437   5.008   0.537 -0.2299 -1.7012 -1.6622
   59MOL   H33722493   7.389   4.822   0.781  0.8593  1.1837  0.6549
   59MOL   H33822494   7.528   4.769   0.506  1.5230 -2.6659 -0.0889
   59MOL   H33922495   7.552   4.671   0.649  1.4762  2.1539  1.2359
   59MOL   H34022496   7.399   4.683   0.568  0.4387 -0.5314  0.0662
   59MOL   H34122497   7.562   4.992   0.831  1.2103  0.5525  1.4825
   59MOL   H34222498   7.617   4.818   0.842  0.7130 -1.4042 -2.8327
   59MOL   H34322499   7.670   4.908   0.710 -0.0554  0.4971  0.6851
   59MOL   C34422500   7.129   5.168   0.739 -0.6030 -0.1000  0.6024
   59MOL   C34522501   7.015   5.225   0.647  0.0108  0.1908  0.0836
   59MOL   O34622502   6.968   5.121   0.570  0.4627 -0.7238 -0.5748
   59MOL   C34722503   7.002   5.117   0.430 -0.5241  0.3782  0.5328
   59MOL   C34822504   6.892   5.053   0.344 -0.0121 -0.2649  0.0107
   59MOL   C34922505   6.765   5.138   0.357  0.1269  0.0401  0.0111
   59MOL   C35022506   6.860   4.909   0.367  0.2702  0.0009  0.5939
   59MOL   H35122507   7.138   5.229   0.828 -0.7222  0.5404  0.1757
   59MOL   H35222508   7.103   5.069   0.777 -2.0420  0.7039  1.7771
   59MOL   H35322509   7.056   5.308   0.590  1.5994  0.6702  1.8772
   59MOL   H35422510   7.095   5.061   0.420 -0.5348  0.2482  1.1565
   59MOL   H35522511   7.012   5.217   0.387  0.2821  0.4881  0.9622
   59MOL   H35622512   6.934   5.049   0.244 -0.9664 -1.6241 -0.3575
   59MOL   H35722513   6.753   5.234   0.307 -0.8959  0.8370  1.7214
   59MOL   H35822514   6.732   5.160   0.459  1.8399  0.1087  0.5618
   59MOL   H35922515   6.685   5.078   0.314  0.6660 -3.4793  3.5586
   59MOL   H36022516   6.946   4.842   0.360  0.6301 -0.1585  5.0721
   59MOL   H36122517   6.830   4.890   0.470  1.5571 -0.4031  0.9074
   59MOL   H36222518   6.789   4.871   0.295 -0.0365  0.2377  0.7719
   59MOL   C36322519   6.883   5.276   0.714 -0.6333 -0.3563  0.3392
   59MOL   C36422520   6.896   5.414   0.786  0.5328  0.3026 -0.1763
   59MOL   O36522521   6.974   5.393   0.897 -0.0219 -0.5617 -0.0061
   59MOL   C36622522   6.944   5.490   1.001  0.0541  0.6740 -0.6065
   59MOL   C36722523   7.028   5.471   1.130  0.1388  0.5234 -0.5891
   59MOL   C36822524   7.006   5.330   1.186 -0.0710 -0.1019 -0.2355
   59MOL   C36922525   7.010   5.579   1.239 -0.3228 -0.1320 -0.1511
   59MOL   H37022526   6.807   5.293   0.638 -0.3810  1.2685  0.4186
   59MOL   H37122527   6.845   5.205   0.788 -0.9347  1.1472  1.6627
   59MOL   H37222528   6.797   5.445   0.819  0.6384  0.1081  0.3115
   59MOL   H37322529   6.978   5.587   0.965 -0.0102  1.0681  0.3966
   59MOL   H37422530   6.838   5.478   1.024  0.4144  0.9992  1.2459
   59MOL   H37522531   7.133   5.476   1.102  0.2087  0.6570 -0.3069
   59MOL   H37622532   7.013   5.252   1.109 -2.1658 -0.4617 -0.0912
   59MOL   H37722533   6.907   5.322   1.230 -0.3485 -0.4640 -0.9029
   59MOL   H37822534   7.070   5.301   1.268 -0.1371 -0.6415 -0.3732
   59MOL   H37922535   7.071   5.555   1.327 -2.4641  0.0726  1.4256
   59MOL   H38022536   6.910   5.582   1.283 -1.2725 -2.9582 -1.9869
   59MOL   H38122537   7.038   5.679   1.207  1.5728  0.1119  2.1146
   59MOL   H38222538   6.935   5.490   0.717  0.7644  0.1430 -0.2224
   60MOL     C122539   1.256   7.665   7.177 -0.1607 -0.8538  0.3918
   60MOL     C222540   1.198   7.763   7.287  0.7367 -0.0240 -0.5499
   60MOL     O322541   1.215   7.692   7.412 -1.1645 -0.4747 -0.4061
   60MOL     C422542   1.122   7.733   7.511  0.2620 -1.0501 -0.5443
   60MOL     C522543   1.206   7.756   7.642  0.0398  0.0364 -0.2367
   60MOL     C622544   1.294   7.642   7.682 -0.5122  0.2910 -0.2133
   60MOL     C722545   1.116   7.805   7.758  0.2072 -0.9338 -0.1030
   60MOL     H822546   1.209   7.567   7.185 -0.9897 -0.5784 -1.0342
   60MOL     H922547   1.226   7.708   7.082 -1.0254 -1.4848  0.3709
   60MOL    H1022548   1.092   7.782   7.267  0.6278 -0.4461 -0.3944
   60MOL    H1122549   1.066   7.643   7.537  0.6217 -1.4522 -1.1686
   60MOL    H1222550   1.061   7.820   7.485  2.1724  0.5223  0.1027
   60MOL    H1322551   1.274   0.012   7.610 -1.6572  1.7925  0.4927
   60MOL    H1422552   1.330   7.593   7.591  0.2843 -1.9930  1.3004
   60MOL    H1522553   1.382   7.670   7.739 -0.2059 -0.8394 -0.1147
   60MOL    H1622554   1.238   7.569   7.741  1.2058 -1.7992 -1.0908
   60MOL    H1722555   1.047   7.725   7.786 -0.8076 -1.8743 -4.8298
   60MOL    H1822556   1.180   7.824   0.019 -1.1349 -2.1452  1.1945
   60MOL    H1922557   1.063   0.070   7.724  0.8601 -0.7133 -0.5507
   60MOL    H2022558   1.363   7.640   7.181 -0.1353 -0.9774 -1.0537
   60MOL    C2122559   1.279   0.070   7.303 -0.3033 -0.2949 -0.4899
   60MOL    C2222560   1.231   0.175   7.193  0.5691  0.2470 -0.5254
   60MOL    O2322561   1.092   0.191   7.216  0.0818 -0.1373 -0.0341
   60MOL    C2422562   1.002   0.164   7.108  0.2693  0.2312  0.1406
   60MOL    C2522563   0.860   0.175   7.157  0.5072 -0.3361 -0.6706
   60MOL    C2622564   0.844   0.298   7.249  0.5048 -0.1555 -0.0742
   60MOL    C2722565   0.767   0.184   7.033 -1.6215  0.2169 -0.3084
   60MOL    H2822566   1.268   0.109   7.404 -2.0536 -0.2259 -0.6860
   60MOL    H2922567   1.381   0.045   7.275  0.2201 -0.3415  1.4141
   60MOL    H3022568   1.255   0.133   7.096  0.3953  1.5072 -1.1207
   60MOL    H3122569   1.019   0.070   7.055  1.0669 -0.3413  1.3909
   60MOL    H3222570   1.022   0.235   7.027  0.2338 -0.1834 -0.2346
   60MOL    H3322571   0.830   0.089   7.218 -1.2562  1.1759  0.6867
   60MOL    H3422572   0.889   0.279   7.346  0.3209 -2.7412 -0.4665
   60MOL    H3522573   0.742   0.320   7.279  0.2753  2.0031 -2.2239
   60MOL    H3622574   0.873   0.396   7.210  0.7156 -0.2572 -0.1783
   60MOL    H3722575   0.779   0.095   6.971  2.8036  0.5295 -0.0295
   60MOL    H3822576   0.661   0.192   7.057 -1.5368 -0.7780  0.3678
   60MOL    H3922577   0.787   0.270   6.968 -0.5125  0.0104 -0.2544
   60MOL    C4022578   1.280   0.321   7.216 -0.0563  0.0316  0.5164
   60MOL    C4122579   1.437   0.332   7.237  0.0386  0.3158  0.2025
   60MOL    O4222580   1.470   0.471   7.240 -0.5223  0.1199  0.5188
   60MOL    C4322581   1.454   0.535   7.365 -0.1393  0.3763  0.2858
   60MOL    C4422582   1.508   0.687   7.351  0.8034  0.6803  0.0237
   60MOL    C4522583   1.663   0.676   7.357  0.2916  0.3898 -0.5983
   60MOL    C4622584   1.472   0.743   7.217 -0.1572  0.0005 -0.0984
   60MOL    H4722585   1.221   0.358   7.300  1.7265  1.0091  1.3737
   60MOL    H4822586   1.259   0.375   7.124 -0.1223  0.1335  0.5924
   60MOL    H4922587   1.456   0.282   7.332 -0.3875 -1.3080 -0.5502
   60MOL    H5022588   1.502   0.483   7.448 -2.0703 -0.7163  0.7408
   60MOL    H5122589   1.348   0.531   7.393 -0.4590  1.9951 -0.6205
   60MOL    H5222590   1.454   0.746   7.425 -0.6777 -1.3939  0.6625
   60MOL    H5322591   1.712   0.774   7.354  0.5014  0.5124  3.6170
   60MOL    H5422592   1.712   0.637   7.446  0.9049  2.4097 -0.0174
   60MOL    H5522593   1.701   0.618   7.273 -1.2745 -0.4605 -0.7356
   60MOL    H5622594   1.534   0.692   7.142 -0.3725  2.2394 -1.8349
   60MOL    H5722595   1.479   0.851   7.216  0.0356 -0.0118 -0.1698
   60MOL    H5822596   1.367   0.716   7.204 -0.0013 -0.8711  0.3548
   60MOL    C5922597   1.536   0.269   7.127  0.3752  0.1135 -0.8526
   60MOL    C6022598   1.675   0.255   7.188  0.3654 -0.0848 -0.4118
   60MOL    O6122599   1.759   0.217   7.072 -0.3174  0.0745 -0.9811
   60MOL    C6222600   1.807   0.321   6.995  0.2317 -0.4745  0.2986
   60MOL    C6322601   1.917   0.278   6.896  0.8209  0.5242  0.5491
   60MOL    C6422602   1.942   0.384   6.790 -0.0190 -0.3427  0.4911
   60MOL    C6522603   2.045   0.225   6.963  0.1097 -0.2102 -0.0859
   60MOL    H6622604   1.543   0.341   7.046 -1.0624 -0.4747 -1.5073
   60MOL    H6722605   1.510   0.171   7.088 -2.2717  0.3121  0.3183
   60MOL    H6822606   1.716   0.344   7.233 -0.9788  0.1820  0.3077
   60MOL    H6922607   1.727   0.374   6.942 -0.4556 -1.0926  0.7089
   60MOL    H7022608   1.848   0.392   7.066 -0.3903  0.6486 -0.4475
   60MOL    H7122609   1.886   0.188   6.843  1.8352  0.3510  0.2332
   60MOL    H7222610   1.987   0.472   6.836 -0.6056  0.6202 -0.7330
   60MOL    H7322611   1.854   0.410   6.731  0.3294 -1.3431 -0.4987
   60MOL    H7422612   2.017   0.361   6.715 -1.1189 -0.1321 -0.6895
   60MOL    H7522613   2.102   0.304   7.012 -0.2768 -0.0211  0.0689
   60MOL    H7622614   2.016   0.154   7.040  0.2560 -1.2221 -0.9645
   60MOL    H7722615   2.112   0.172   6.896 -0.6200 -0.0074 -1.0080
   60MOL    C7822616   1.689   0.133   7.280  0.2467 -0.8032 -0.2514
   60MOL    C7922617   1.717   0.174   7.432 -0.5927 -0.4288 -0.0807
   60MOL    O8022618   1.733   0.046   7.501 -0.1277 -0.3011 -0.1221
   60MOL    C8122619   1.621   7.793   7.528 -0.1085  0.3266 -0.6369
   60MOL    C8222620   1.666   7.679   7.623 -0.3802 -0.1473  0.2755
   60MOL    C8322621   1.686   7.731   7.766  0.2230 -0.3756  0.2198
   60MOL    C8422622   1.788   7.612   7.566 -0.0616  0.5346 -0.1083
   60MOL    H8522623   1.777   0.075   7.252 -0.2359 -0.2654 -3.1049
   60MOL    H8622624   1.607   0.061   7.280 -0.4542 -0.0125  0.9320
   60MOL    H8722625   1.630   0.232   7.464 -2.4299 -2.7001 -0.7167
   60MOL    H8822626   1.556   0.044   7.572 -0.0047  0.6723 -1.0633
   60MOL    H8922627   1.578   7.749   7.438  0.7301 -0.0161 -0.8719
   60MOL    H9022628   1.589   7.602   7.627  2.5050 -3.1274  0.5821
   60MOL    H9122629   1.709   7.642   7.824 -0.0133 -1.9135 -1.9623
   60MOL    H9222630   1.591   7.776   7.798 -0.1952 -0.1637 -1.2695
   60MOL    H9322631   1.759   7.812   7.769  1.4613 -1.5310  1.2393
   60MOL    H9422632   1.772   7.575   7.465 -1.9115  0.0087  0.3627
   60MOL    H9522633   1.813   7.527   7.630 -1.6627 -0.0050 -0.1676
   60MOL    H9622634   1.865   7.688   7.555 -0.7692  1.1401 -0.9878
   60MOL    C9722635   1.841   0.257   7.472 -0.1683 -0.0712  0.5770
   60MOL    C9822636   1.822   0.307   7.617 -0.4400  0.0073 -0.5110
   60MOL    O9922637   1.704   0.379   7.629  0.3509  0.2325  0.3800
   60MOL   C10022638   1.624   0.329   7.732 -0.5869 -0.0783  0.3656
   60MOL   C10122639   1.482   0.395   7.754  0.2268  0.4332 -1.5967
   60MOL   C10222640   1.381   0.331   7.659 -0.1000 -0.2398  0.3490
   60MOL   C10322641   1.428   0.363   0.070  0.9167  0.1282 -0.8048
   60MOL   H10422642   1.864   0.331   7.395  0.7950 -0.4208  0.5215
   60MOL   H10522643   1.925   0.188   7.457 -0.0131  0.0152  1.0381
   60MOL   H10622644   1.822   0.220   7.682  0.3843  1.7417  1.8822
   60MOL   H10722645   1.683   0.315   7.823 -2.5317  0.5876  1.7759
   60MOL   H10822646   1.616   0.223   7.707  2.3412 -0.5264  1.1673
   60MOL   H10922647   1.485   0.503   7.736  1.9039  0.7044  0.1245
   60MOL   H11022648   1.282   0.372   7.678  0.6484  1.3276  0.8935
   60MOL   H11122649   1.414   0.330   7.555 -1.4547 -1.4842 -0.0927
   60MOL   H11222650   1.361   0.225   7.679 -0.9833 -0.0642  0.4036
   60MOL   H11322651   1.495   0.417   0.137 -0.2487  0.7866 -0.1387
   60MOL   H11422652   1.327   0.402   0.091  1.2431 -0.1776  1.5216
   60MOL   H11522653   1.429   0.256   0.091 -2.9205 -0.1500 -1.5538
   60MOL   C11622654   1.943   0.379   7.663  0.1374  0.7455 -0.2747
   60MOL   C11722655   1.933   0.437   7.807  0.7358  0.6305  0.7500
   60MOL   O11822656   1.923   0.319   0.055 -0.1604 -0.4577 -0.3326
   60MOL   C11922657   1.887   0.337   0.198 -0.1321 -0.3533 -0.6955
   60MOL   C12022658   1.859   0.209   0.275  0.6406 -0.7401  0.4121
   60MOL   C12122659   1.722   0.156   0.240 -0.8597 -0.0191 -0.3148
   60MOL   C12222660   1.966   0.100   0.256 -0.3552  1.0120 -0.3276
   60MOL   H12322661   2.033   0.316   7.661 -0.7579 -0.5518 -3.3715
   60MOL   H12422662   1.956   0.462   7.594 -0.8852  0.0509 -1.3356
   60MOL   H12522663   1.841   0.496   7.805  0.3965  0.0882 -0.5593
   60MOL   H12622664   1.800   0.400   0.185  0.5526  0.7880  0.1280
   60MOL   H12722665   1.968   0.391   0.246 -1.4338  0.6500  0.4032
   60MOL   H12822666   1.855   0.239   0.380 -1.2947 -2.5546  0.8862
   60MOL   H12922667   1.704   0.054   0.274  1.7460 -0.9100 -1.5064
   60MOL   H13022668   1.696   0.153   0.135  0.9914 -0.1241 -0.7859
   60MOL   H13122669   1.656   0.227   0.290  0.4335  1.6784 -0.9640
   60MOL   H13222670   1.986   0.082   0.150  1.0168 -0.4539  0.1702
   60MOL   H13322671   2.066   0.111   0.297 -0.5930  0.5183  0.3992
   60MOL   H13422672   1.921   0.006   0.289 -1.6190  2.1783  1.3337
   60MOL   C13522673   2.049   0.523   0.025 -0.0198  0.9206 -0.5621
   60MOL   C13622674   2.061   0.656   7.765  0.5106  0.1558 -0.2673
   60MOL   O13722675   1.950   0.732   7.820 -0.7273  0.2977 -0.4440
   60MOL   C13822676   1.894   0.828   7.735  0.5858  0.5695  0.2497
   60MOL   C13922677   1.771   0.892   7.800 -0.0194 -0.1338  0.2112
   60MOL   C14022678   1.722   1.008   7.704  0.7932 -0.1005  0.0606
   60MOL   C14122679   1.660   0.782   7.808 -0.0312 -0.0994  1.2481
   60MOL   H14222680   2.054   0.543   0.132  3.2779  0.9651 -0.6893
   60MOL   H14322681   2.143   0.472   0.008  0.1597  1.1545 -0.2642
   60MOL   H14422682   2.042   0.633   7.660 -0.8850  0.2821 -0.0619
   60MOL   H14522683   1.865   0.781   7.641  0.5459 -1.9000  1.4801
   60MOL   H14622684   1.967   0.905   7.706 -0.7583  0.6467 -3.1997
   60MOL   H14722685   1.797   0.945   0.068  1.0471  0.9563 -0.6961
   60MOL   H14822686   1.796   1.086   7.690  0.5959 -0.1661 -1.4189
   60MOL   H14922687   1.631   1.053   7.743  1.0979  2.2527 -1.8692
   60MOL   H15022688   1.710   0.956   7.609  1.1316 -0.9790  0.4863
   60MOL   H15122689   1.687   0.702   0.052 -0.0337  1.0824  2.6532
   60MOL   H15222690   1.564   0.819   0.022 -0.1938 -0.7168  1.4518
   60MOL   H15322691   1.632   0.749   7.708  1.1190 -0.3490  0.9992
   60MOL   C15422692   2.189   0.739   7.779 -0.6771 -0.0650 -0.0172
   60MOL   C15522693   2.306   0.691   7.691 -0.1986  0.1823 -0.2361
   60MOL   O15622694   2.259   0.708   7.554 -0.1364 -0.1269  0.2909
   60MOL   C15722695   2.263   0.583   7.489 -0.2650  0.5166 -0.0425
   60MOL   C15822696   2.200   0.586   7.354  0.2336 -0.6803  0.6837
   60MOL   C15922697   2.204   0.442   7.298  0.0170  0.7779  0.3108
   60MOL   C16022698   2.053   0.637   7.355  0.1372  0.3973 -0.0845
   60MOL   H16122699   2.213   0.742   0.061 -0.5217 -0.9954 -0.0235
   60MOL   H16222700   2.169   0.845   7.762  1.4007  0.0987 -1.6599
   60MOL   H16322701   2.336   0.590   7.719  1.2575  0.5687 -0.3652
   60MOL   H16422702   2.206   0.519   7.555 -0.6554  1.1722  0.2619
   60MOL   H16522703   2.369   0.557   7.492  0.1406  2.1032  0.1648
   60MOL   H16622704   2.272   0.644   7.296 -1.9694  1.4978  0.0327
   60MOL   H16722705   2.132   0.380   7.351  2.1391 -1.8103  0.2545
   60MOL   H16822706   2.300   0.390   7.304 -0.8602 -0.9526 -0.5865
   60MOL   H16922707   2.171   0.437   7.194  0.4822 -1.7537  0.2484
   60MOL   H17022708   2.012   0.666   7.258  1.3627  1.4170 -0.3124
   60MOL   H17122709   1.983   0.575   7.411  1.1791 -0.6013  0.1317
   60MOL   H17222710   2.050   0.732   7.409 -0.9884  0.0082  0.5572
   60MOL   C17322711   2.430   0.783   7.727 -0.4694 -0.1840 -0.5548
   60MOL   C17422712   2.549   0.797   7.628  0.5603  0.7263  0.0387
   60MOL   O17522713   2.626   0.910   7.665  0.1312  0.2416 -0.0883
   60MOL   C17622714   2.715   0.970   7.574 -0.5147  0.1835  0.0806
   60MOL   C17722715   2.810   1.074   7.640  0.4929 -1.0118  0.9052
   60MOL   C17822716   2.936   1.081   7.557  0.5199  0.3948 -1.0445
   60MOL   C17922717   2.738   1.213   7.634  0.6898  0.2720  0.5741
   60MOL   H18022718   2.398   0.887   7.734  2.2303  0.7571 -1.8242
   60MOL   H18122719   2.464   0.753   0.002  0.8037  2.7441 -0.0690
   60MOL   H18222720   2.512   0.807   7.526 -0.4174 -1.4816  0.1557
   60MOL   H18322721   2.639   1.020   7.513 -1.9148  0.0189  1.6656
   60MOL   H18422722   2.770   0.897   7.515  1.0165  1.1466  0.3052
   60MOL   H18522723   2.826   1.032   7.739  0.6164 -1.0112  0.8851
   60MOL   H18622724   2.991   0.987   7.559 -0.3444 -0.1010 -0.5649
   60MOL   H18722725   2.909   1.099   7.453  1.4897 -0.3730 -1.4317
   60MOL   H18822726   2.997   1.165   7.589 -1.4069  0.6044  2.3100
   60MOL   H18922727   2.804   1.298   7.646  1.6701 -0.5472  1.0640
   60MOL   H19022728   2.665   1.209   7.715  0.9120 -1.3015  0.7108
   60MOL   H19122729   2.683   1.234   7.542  1.8167  1.7165  0.2267
   60MOL   C19222730   2.638   0.668   7.628  0.3763  0.8588 -0.1211
   60MOL   C19322731   2.729   0.648   7.751  0.5117  0.0995 -1.2159
   60MOL   O19422732   2.859   0.617   7.710  0.3833  0.0268 -0.3524
   60MOL   C19522733   2.950   0.716   7.665 -0.7908  0.5349  0.1262
   60MOL   C19622734   3.095   0.665   7.662 -0.2525  0.2542 -0.0937
   60MOL   C19722735   3.131   0.616   7.524 -0.1634  0.0629  0.8538
   60MOL   C19822736   3.130   0.574   7.781 -0.0985  0.1559 -0.3995
   60MOL   H19922737   2.711   0.686   7.549  0.1849 -1.1883 -0.7961
   60MOL   H20022738   2.586   0.576   7.602  0.2001  1.3466 -1.5632
   60MOL   H20122739   2.732   0.742   7.806  0.1691 -1.3001  1.3069
   60MOL   H20222740   2.964   0.797   7.736  0.5022 -0.4686  1.0487
   60MOL   H20322741   2.916   0.754   7.568 -4.3656 -0.6243  0.8680
   60MOL   H20422742   3.164   0.748   7.675  2.6276 -2.1160  0.4071
   60MOL   H20522743   3.078   0.521   7.516 -0.0185 -0.1420  2.3203
   60MOL   H20622744   3.092   0.684   7.449  0.0712 -0.2631  0.4309
   60MOL   H20722745   3.239   0.599   7.520 -0.2061 -0.1824  0.7382
   60MOL   H20822746   3.067   0.486   7.769 -1.6139  1.1934 -0.2661
   60MOL   H20922747   3.228   0.527   7.773  0.0830  0.5788 -0.7076
   60MOL   H21022748   3.126   0.625   0.053 -1.1674  0.3496 -0.5429
   60MOL   C21122749   2.667   0.544   0.030  0.2679  0.4668  0.5448
   60MOL   C21222750   2.714   0.573   0.178  0.1431  0.5512 -0.4706
   60MOL   O21322751   2.623   0.486   0.249  0.1632 -0.1306  0.2043
   60MOL   C21422752   2.615   0.505   0.390  0.6844 -0.0839 -0.4692
   60MOL   C21522753   2.471   0.476   0.432  0.1301  0.3803  0.2754
   60MOL   C21622754   2.369   0.563   0.352 -1.0087  0.8199 -0.3771
   60MOL   C21722755   2.449   0.321   0.421 -0.7843 -0.3073 -0.1239
   60MOL   H21822756   2.683   0.440   0.003  0.4197  0.8710 -0.9641
   60MOL   H21922757   2.559   0.555   0.035  0.3512  0.7943  2.0098
   60MOL   H22022758   2.687   0.674   0.209  0.5904 -0.1237  2.2582
   60MOL   H22122759   2.646   0.599   0.436 -1.7214 -0.5433  2.2060
   60MOL   H22222760   2.676   0.428   0.437  0.5045  0.3541  0.4917
   60MOL   H22322761   2.449   0.493   0.538  3.2596  3.2849  0.5605
   60MOL   H22422762   2.384   0.552   0.245  1.6975  1.9404 -0.1389
   60MOL   H22522763   2.266   0.547   0.386  0.2947 -1.4102  2.7305
   60MOL   H22622764   2.400   0.663   0.381  0.9460  0.4822 -1.2368
   60MOL   H22722765   2.442   0.289   0.317  1.2496 -1.9131  0.2060
   60MOL   H22822766   2.350   0.304   0.463 -1.5789  2.1854 -0.8804
   60MOL   H22922767   2.513   0.261   0.486 -1.0604  1.2186  1.5926
   60MOL   C23022768   2.861   0.539   0.199 -0.0387 -0.4124  0.3932
   60MOL   C23122769   2.922   0.603   0.328 -0.1102  0.1121 -0.0486
   60MOL   O23222770   3.046   0.546   0.355 -0.2487  0.0564  0.2379
   60MOL   C23322771   3.051   0.411   0.388 -0.5412  0.1397 -0.0159
   60MOL   C23422772   3.189   0.371   0.452 -0.0123  0.1299 -0.0969
   60MOL   C23522773   3.308   0.397   0.360 -0.6185 -0.3284  0.0309
   60MOL   C23622774   3.211   0.445   0.592  0.2795 -0.2204  0.7249
   60MOL   H23722775   2.916   0.586   0.118  0.7975  1.6060  2.0858
   60MOL   H23822776   2.874   0.430   0.203  2.3439 -0.2348 -1.5702
   60MOL   H23922777   2.855   0.592   0.413 -0.0221 -0.0301  0.0027
   60MOL   H24022778   2.977   0.387   0.464 -0.3325  2.6110  1.0068
   60MOL   H24122779   3.035   0.356   0.295  1.3395  0.6202 -0.6579
   60MOL   H24222780   3.172   0.264   0.468 -1.5083  0.5084  0.9571
   60MOL   H24322781   3.398   0.349   0.398 -0.2778  0.5600  0.3576
   60MOL   H24422782   3.312   0.505   0.370  0.8549 -0.5928  2.6651
   60MOL   H24522783   3.290   0.358   0.259 -1.1199  1.4829 -0.5936
   60MOL   H24622784   3.309   0.422   0.634  2.0458  4.5590 -0.5416
   60MOL   H24722785   3.212   0.552   0.572 -2.0637 -0.4078 -0.4925
   60MOL   H24822786   3.132   0.415   0.660  0.8399  0.0848  1.5233
   60MOL   C24922787   2.942   0.755   0.309 -0.3171  0.3642  1.0551
   60MOL   C25022788   2.943   0.846   0.427  0.8870 -0.3367 -0.6231
   60MOL   O25122789   2.825   0.827   0.507 -0.5970 -0.6522  0.0556
   60MOL   C25222790   2.780   0.934   0.587  0.1021 -1.4812 -0.5580
   60MOL   C25322791   2.658   0.895   0.674 -0.0634 -0.2612 -0.0033
   60MOL   C25422792   2.602   1.015   0.748  0.4910  0.0521  0.3476
   60MOL   C25522793   2.693   0.777   0.775  0.3018 -0.0912  0.3480
   60MOL   H25622794   2.857   0.798   0.256 -0.0595  0.9720  1.1343
   60MOL   H25722795   3.031   0.778   0.251  1.8408 -2.3267  3.1536
   60MOL   H25822796   2.936   0.951   0.399 -1.4860 -0.0709  0.7956
   60MOL   H25922797   2.859   0.968   0.654 -0.5817 -1.2420  0.1442
   60MOL   H26022798   2.763   1.024   0.528  1.4922 -1.7549 -1.3947
   60MOL   H26122799   2.581   0.855   0.609  0.7549 -2.0358  0.0916
   60MOL   H26222800   2.523   0.982   0.816 -0.1702 -0.0388 -0.4437
   60MOL   H26322801   2.545   1.086   0.687  0.8011  1.4197  1.6228
   60MOL   H26422802   2.679   1.057   0.811 -2.0409  2.2194  2.1229
   60MOL   H26522803   2.769   0.805   0.848  0.7269  0.2556 -0.2252
   60MOL   H26622804   2.603   0.737   0.821 -0.5449 -0.2611 -1.3990
   60MOL   H26722805   2.736   0.689   0.727  1.6782  0.3331  0.7626
   60MOL   C26822806   3.066   0.822   0.522 -1.0117 -0.0403  0.6470
   60MOL   C26922807   3.144   0.952   0.568  0.4385 -0.3448 -0.0065
   60MOL   O27022808   3.182   1.015   0.444  0.3041  0.2087  0.3171
   60MOL   C27122809   3.148   1.153   0.438  0.0235  1.5085  0.1275
   60MOL   C27222810   3.195   1.224   0.314  0.6724  0.2162  0.1992
   60MOL   C27322811   3.343   1.193   0.294  0.5395  0.1411  0.2696
   60MOL   C27422812   3.103   1.199   0.180 -0.0921 -1.1602  0.7158
   60MOL   H27522813   3.143   0.759   0.479 -1.4127 -0.6442  0.8111
   60MOL   H27622814   3.037   0.773   0.614 -1.1089  0.0136  0.6456
   60MOL   H27722815   3.078   1.011   0.631  0.2250  0.3590 -0.8890
   60MOL   H27822816   3.041   1.172   0.451 -0.0547  0.0743  1.8901
   60MOL   H27922817   3.189   1.207   0.524  0.5638  0.5039  0.5205
   60MOL   H28022818   3.180   1.328   0.341 -2.1919 -0.4273  1.2972
   60MOL   H28122819   3.347   1.088   0.265  2.5869  0.0827  0.6771
   60MOL   H28222820   3.398   1.198   0.388  1.6488  1.2627 -0.4175
   60MOL   H28322821   3.383   1.261   0.218 -1.2951 -0.4179 -1.2275
   60MOL   H28422822   3.132   1.270   0.103 -1.0872 -1.1309  0.3592
   60MOL   H28522823   2.997   1.204   0.207 -0.4405  0.0881 -0.8601
   60MOL   H28622824   3.124   1.098   0.145  0.2227 -0.0041 -2.6389
   60MOL   C28722825   3.272   0.914   0.644 -1.1374  0.0026 -0.5038
   60MOL   C28822826   3.251   0.828   0.770 -0.0278  0.2785 -0.6266
   60MOL   O28922827   3.171   0.902   0.860  0.8016 -0.0228  0.0086
   60MOL   C29022828   3.048   0.835   0.897  0.1966  0.2936  0.1719
   60MOL   C29122829   2.984   0.909   1.012 -0.4767  0.1934  1.2122
   60MOL   C29222830   2.966   1.063   0.993  0.5830 -0.2514 -0.4207
   60MOL   C29322831   3.044   0.865   1.144  0.8859  0.5544  0.1346
   60MOL   H29422832   3.309   1.010   0.681 -0.7825 -0.8989  1.5326
   60MOL   H29522833   3.345   0.868   0.578  1.3245  0.4668  1.7763
   60MOL   H29622834   3.203   0.735   0.740 -0.8534  0.3301  0.5029
   60MOL   H29722835   2.973   0.840   0.819 -0.8015  0.1554  1.1205
   60MOL   H29822836   3.067   0.729   0.917  1.2750  0.0215 -2.1400
   60MOL   H29922837   2.880   0.874   1.013 -0.5807  0.4216 -0.6559
   60MOL   H30022838   2.899   1.111   1.064 -0.5191  0.2330 -1.7785
   60MOL   H30122839   2.933   1.107   0.899  1.5704 -0.2538 -0.7733
   60MOL   H30222840   3.067   1.104   0.999  0.6743 -0.5961  0.4992
   60MOL   H30322841   3.152   0.861   1.152  0.8439  0.2505  0.5662
   60MOL   H30422842   3.021   0.934   1.225  2.8161  1.2239  0.1184
   60MOL   H30522843   3.009   0.764   1.167  3.0491 -0.0835  0.6955
   60MOL   C30622844   3.386   0.803   0.837 -0.5020 -0.0360 -0.3869
   60MOL   C30722845   3.391   0.733   0.976 -0.0753 -0.6132  0.3511
   60MOL   O30822846   3.337   0.609   0.955  0.5050  0.2567  0.4002
   60MOL   C30922847   3.269   0.553   1.068 -0.2133 -1.1872  0.5701
   60MOL   C31022848   3.230   0.414   1.035  0.1949 -0.0632 -0.3384
   60MOL   C31122849   3.154   0.336   1.142  0.3226 -0.2913 -0.2140
   60MOL   C31222850   3.346   0.328   0.989 -0.2003  0.0526  0.1204
   60MOL   H31322851   3.431   0.901   0.823  0.8708 -0.8165 -1.5456
   60MOL   H31422852   3.442   0.746   0.763  0.8190  0.1457  0.4493
   60MOL   H31522853   3.338   0.796   1.048  1.8012 -0.5431  1.7179
   60MOL   H31622854   3.181   0.615   1.081  0.7206  0.4645 -0.7319
   60MOL   H31722855   3.336   0.558   1.154 -0.3574 -0.3464  0.6339
   60MOL   H31822856   3.153   0.416   0.958  0.3121 -0.7012 -0.4786
   60MOL   H31922857   3.063   0.384   1.176  2.3503  1.0017  3.7531
   60MOL   H32022858   3.208   0.336   1.237 -1.4525  0.5001  0.8151
   60MOL   H32122859   3.128   0.232   1.123 -2.9584  0.0709  1.9951
   60MOL   H32222860   3.404   0.367   0.905 -0.5480 -1.4290 -0.8343
   60MOL   H32322861   3.311   0.226   0.971 -0.8059  0.6571 -2.3684
   60MOL   H32422862   3.415   0.327   1.073  0.3665 -1.7647 -0.3456
   60MOL   C32522863   3.538   0.706   1.034 -0.3321 -0.3514  1.1275
   60MOL   C32622864   3.628   0.830   1.064 -0.4293  0.5926  0.3282
   60MOL   O32722865   3.560   0.902   1.168  0.5633  0.5971  0.9260
   60MOL   C32822866   3.577   1.045   1.182 -0.3902  0.1347  0.3664
   60MOL   C32922867   3.450   1.110   1.240 -0.9697 -0.0549  0.7026
   60MOL   C33022868   3.342   1.131   1.131  0.8323  0.3374  0.2824
   60MOL   C33122869   3.396   1.043   1.368  0.4851  0.3343  0.0100
   60MOL   H33222870   3.600   0.650   0.965  0.4156  0.6518  0.9658
   60MOL   H33322871   3.528   0.644   1.123 -1.4790 -1.1204  0.4720
   60MOL   H33422872   3.643   0.892   0.975  0.6286  0.3465  0.3373
   60MOL   H33522873   3.657   1.064   1.253 -1.1996  2.0533  0.8034
   60MOL   H33622874   3.601   1.085   1.084 -2.0355  1.0372  0.3019
   60MOL   H33722875   3.480   1.212   1.266 -0.0901 -0.0586 -0.2359
   60MOL   H33822876   3.271   1.203   1.173  1.6453  0.6962  1.0652
   60MOL   H33922877   3.387   1.186   1.049  1.2520 -1.1849 -0.5254
   60MOL   H34022878   3.292   1.043   1.091 -0.5702  1.1206  0.2671
   60MOL   H34122879   3.481   1.021   1.433  1.6001 -0.3541 -1.6365
   60MOL   H34222880   3.317   1.097   1.421  1.1235  2.0163 -0.7254
   60MOL   H34322881   3.356   0.947   1.335  0.2793 -0.5553  2.7542
   60MOL   C34422882   3.765   0.766   1.120  0.1314  0.2295 -0.4252
   60MOL   C34522883   3.873   0.868   1.152 -0.1789  0.3611 -0.1408
   60MOL   O34622884   3.990   0.785   1.187 -0.1382 -0.0776 -0.2404
   60MOL   C34722885   4.000   0.756   1.320 -0.5762 -0.8046  0.6784
   60MOL   C34822886   4.082   0.618   1.341  0.0511 -1.3731  0.0222
   60MOL   C34922887   4.089   0.594   1.492  0.1880 -0.4702  0.6128
   60MOL   C35022888   4.217   0.605   1.278 -0.0734  0.0617  0.0233
   60MOL   H35122889   3.806   0.701   1.043  0.0287 -0.6585  0.2677
   60MOL   H35222890   3.742   0.703   1.205 -1.1305  1.0205 -0.1645
   60MOL   H35322891   3.841   0.934   1.232  0.6457  0.8501 -0.2144
   60MOL   H35422892   3.900   0.748   1.364 -1.2498 -0.3486 -0.7350
   60MOL   H35522893   4.044   0.838   1.377  1.9161 -0.0941 -2.1756
   60MOL   H35622894   4.023   0.535   1.304 -0.8050 -1.5814  1.7836
   60MOL   H35722895   4.077   0.488   1.515 -2.4615 -0.1109  0.9550
   60MOL   H35822896   4.007   0.647   1.539  1.5801  1.8588  0.5293
   60MOL   H35922897   4.180   0.626   1.543  0.0333  0.6052  0.2244
   60MOL   H36022898   4.287   0.683   1.306  1.4272 -1.4913  0.7335
   60MOL   H36122899   4.266   0.509   1.294  0.0577  0.0093 -0.7180
   60MOL   H36222900   4.209   0.609   1.170  0.0682 -1.5310 -0.0558
   60MOL   C36322901   3.925   0.953   1.031  0.0559  0.0999 -0.3837
   60MOL   C36422902   3.951   1.100   1.066  0.4805 -0.3619  0.0660
   60MOL   O36522903   3.829   1.174   1.059  0.7389  0.2765  0.1052
   60MOL   C36622904   3.856   1.313   1.041  0.2909  0.4067 -0.6623
   60MOL   C36722905   3.718   1.377   1.038  0.3004 -0.4488 -0.1151
   60MOL   C36822906   3.640   1.323   0.912  0.0499  0.0380  0.7207
   60MOL   C36922907   3.728   1.530   1.035 -1.1603  0.5869 -0.3227
   60MOL   H37022908   4.018   0.907   0.998 -0.2635 -1.0871  0.3146
   60MOL   H37122909   3.863   0.953   0.942  0.8605  0.1849 -0.9544
   60MOL   H37222910   4.029   1.133   0.997  0.3022 -0.2930 -0.1015
   60MOL   H37322911   3.929   1.350   1.113 -1.1648  1.0378  0.4856
   60MOL   H37422912   3.911   1.319   0.947  1.2980  1.2695 -0.0310
   60MOL   H37522913   3.674   1.346   1.133  1.5022 -1.2768  0.1822
   60MOL   H37622914   3.537   1.358   0.903  0.4364  1.0778  0.1554
   60MOL   H37722915   3.655   1.216   0.899 -0.2961  0.4512 -4.1030
   60MOL   H37822916   3.687   1.355   0.818  2.6019 -1.1349  1.5696
   60MOL   H37922917   3.810   1.558   1.102 -0.6535 -2.4165  0.3869
   60MOL   H38022918   3.636   1.573   1.073 -2.2524 -1.6749 -0.2991
   60MOL   H38122919   3.758   1.567   0.937 -1.6086 -2.6284 -1.7226
   60MOL   H38222920   3.997   1.087   1.164  0.9723  0.0333 -0.1117
   61MOL     C122921   2.836   5.748   3.481  0.7724  0.2141  0.0853
   61MOL     C222922   2.895   5.623   3.423  0.1579 -0.8373  0.5683
   61MOL     O322923   2.812   5.591   3.317 -0.6152 -0.1817 -0.1294
   61MOL     C422924   2.771   5.452   3.313 -0.5455 -0.4762  1.1475
   61MOL     C522925   2.728   5.393   3.174  0.0443  0.1465 -0.0584
   61MOL     C622926   2.681   5.253   3.216  0.1993 -0.5862 -0.3900
   61MOL     C722927   2.835   5.398   3.066 -0.2165 -0.1904  0.2028
   61MOL     H822928   2.811   5.826   3.409  1.1180 -0.5104 -0.8340
   61MOL     H922929   2.742   5.723   3.530  0.2302 -0.0583 -1.0880
   61MOL    H1022930   2.902   5.541   3.495 -0.7216  0.0608  1.6949
   61MOL    H1122931   2.695   5.438   3.390 -0.2989  0.3682  1.5452
   61MOL    H1222932   2.858   5.394   3.343 -0.8119 -1.0298  0.8497
   61MOL    H1322933   2.643   5.450   3.134 -0.0112  0.1935  0.1269
   61MOL    H1422934   2.642   5.192   3.135 -0.4174 -2.7520  1.4997
   61MOL    H1522935   2.759   5.190   3.260  1.0561  1.9458  1.8533
   61MOL    H1622936   2.600   5.258   3.289 -0.5780  0.6393 -1.3222
   61MOL    H1722937   2.807   5.355   2.970 -1.8350  0.4129  0.3823
   61MOL    H1822938   2.858   5.504   3.052 -0.2106  0.1931  2.7884
   61MOL    H1922939   2.929   5.355   3.101  0.4339 -0.0596 -1.3473
   61MOL    H2022940   2.900   5.794   3.556  1.0717  1.4822 -0.9259
   61MOL    C2122941   3.034   5.649   3.367 -0.0157  0.3592 -0.2583
   61MOL    C2222942   3.150   5.660   3.467  0.0311  0.2671 -0.5259
   61MOL    O2322943   3.153   5.532   3.537  0.5528 -0.2786 -0.5246
   61MOL    C2422944   3.131   5.555   3.674  0.1424 -0.1540 -0.0175
   61MOL    C2522945   3.112   5.415   3.748 -0.4384 -0.3574 -0.5249
   61MOL    C2622946   2.980   5.352   3.701 -0.1981  0.3629  0.5753
   61MOL    C2722947   3.234   5.318   3.721  0.0698 -0.3544  0.2034
   61MOL    H2822948   3.059   5.573   3.293 -1.8311 -0.7870  0.2844
   61MOL    H2922949   3.034   5.740   3.307  1.1476  0.1724 -0.5579
   61MOL    H3022950   3.125   5.746   3.528 -0.7520 -0.3952  0.1088
   61MOL    H3122951   3.050   5.626   3.688  0.2959  0.1393 -0.6200
   61MOL    H3222952   3.224   5.607   3.701  1.6512 -2.2128 -1.0964
   61MOL    H3322953   3.102   5.429   3.855 -0.3235 -1.4503 -0.3672
   61MOL    H3422954   2.897   5.423   3.706 -1.0680 -0.6224  0.4979
   61MOL    H3522955   2.964   5.252   3.741 -0.9205  0.3993  0.4020
   61MOL    H3622956   2.999   5.325   3.597  0.9048 -0.3537  0.9617
   61MOL    H3722957   3.217   5.215   3.750 -1.1024 -0.0656  0.5689
   61MOL    H3822958   3.268   5.300   3.619  2.2912 -0.1594  0.8819
   61MOL    H3922959   3.317   5.362   3.775  0.3502 -0.0829 -0.4445
   61MOL    C4022960   3.286   5.688   3.395  0.2042  0.2198  0.3792
   61MOL    C4122961   3.402   5.729   3.485 -0.4329  0.1704 -0.0916
   61MOL    O4222962   3.365   5.855   3.544  0.7595  0.0517  0.2170
   61MOL    C4322963   3.449   5.891   3.655  0.6361  0.1651  0.2911
   61MOL    C4422964   3.455   6.040   3.675 -0.3003  0.1768 -0.1313
   61MOL    C4522965   3.509   6.124   3.561  0.0625  0.8147  0.4737
   61MOL    C4622966   3.326   6.094   3.730 -0.1239 -0.0122  0.0723
   61MOL    H4722967   3.267   5.755   3.311  0.5529  1.9292  1.6307
   61MOL    H4822968   3.318   5.596   3.345 -0.4788 -0.1660  0.6455
   61MOL    H4922969   3.414   5.664   3.571  1.5852  2.1941  1.2072
   61MOL    H5022970   3.551   5.853   3.647 -0.1037 -1.2456 -3.3783
   61MOL    H5122971   3.396   5.838   3.734  0.6908 -0.9606 -0.4089
   61MOL    H5222972   3.521   6.064   3.758  1.1232  0.4459 -1.3098
   61MOL    H5322973   3.607   6.099   3.520  0.3762  1.3964  0.8700
   61MOL    H5422974   3.445   6.106   3.474  2.6815 -0.7145 -1.2145
   61MOL    H5522975   3.500   6.229   3.588  0.0193  0.2241  2.8952
   61MOL    H5622976   3.306   6.034   3.819 -0.3493  1.2279  0.8685
   61MOL    H5722977   3.243   6.096   3.660 -0.7900  1.2841  0.8634
   61MOL    H5822978   3.329   6.197   3.766 -2.2343  0.2809 -0.5160
   61MOL    C5922979   3.529   5.745   3.401 -0.6432 -0.5880 -0.4067
   61MOL    C6022980   3.617   5.618   3.376  0.5325 -0.1575 -0.3094
   61MOL    O6122981   3.681   5.563   3.495  0.2362  0.0594  0.6603
   61MOL    C6222982   3.618   5.454   3.570 -0.1424 -0.9327 -0.6834
   61MOL    C6322983   3.704   5.419   3.691  0.3482  0.2958  0.5279
   61MOL    C6422984   3.823   5.330   3.656  0.2092  0.1360 -0.3180
   61MOL    C6522985   3.737   5.545   3.774 -0.0004 -0.2890 -0.0806
   61MOL    H6622986   3.590   5.823   3.447 -0.6925 -0.3725 -0.7071
   61MOL    H6722987   3.493   5.790   3.309  1.3458 -0.3298 -1.0876
   61MOL    H6822988   3.559   5.540   3.328 -1.1701  1.3880 -0.8245
   61MOL    H6922989   3.515   5.483   3.591 -1.1374 -2.5162 -3.1234
   61MOL    H7022990   3.600   5.368   3.505 -0.1008 -0.2899 -1.5575
   61MOL    H7122991   3.635   5.362   3.754  1.2137 -2.2212 -0.7323
   61MOL    H7222992   3.881   5.313   3.746  1.4115 -1.4921 -1.3863
   61MOL    H7322993   3.880   5.390   3.585 -1.0933  0.5693 -1.0187
   61MOL    H7422994   3.789   5.245   3.596  1.1827 -0.3074 -0.2352
   61MOL    H7522995   3.662   5.619   3.747 -0.7526 -1.5461 -1.5342
   61MOL    H7622996   3.734   5.533   3.882 -3.4044 -0.1824 -0.1247
   61MOL    H7722997   3.836   5.578   3.741  0.6269 -1.6255  0.4331
   61MOL    C7822998   3.731   5.653   3.283  0.0855 -0.0338  0.0163
   61MOL    C7922999   3.828   5.537   3.261 -0.5083  0.4133  0.1760
   61MOL    O8023000   3.883   5.542   3.130  0.1744 -0.5096  0.0948
   61MOL    C8123001   3.803   5.484   3.021  0.8064  0.2560 -0.2256
   61MOL    C8223002   3.868   5.521   2.888  0.0961 -0.0239  0.0921
   61MOL    C8323003   3.877   5.672   2.867 -0.7601  0.1743  0.1461
   61MOL    C8423004   3.788   5.450   2.776 -0.9464  0.3445  0.0932
   61MOL    H8523005   3.781   5.738   3.329 -0.8561  0.1171  0.7820
   61MOL    H8623006   3.702   5.693   3.186  0.3981 -0.9081 -0.4495
   61MOL    H8723007   3.776   5.441   3.260  0.8209 -0.3189 -0.7035
   61MOL    H8823008   3.802   5.378   3.044  1.7250  0.3354  0.2003
   61MOL    H8923009   3.699   5.517   3.012  0.3545 -1.1326 -0.1524
   61MOL    H9023010   3.967   5.479   2.872  0.2790  1.3072 -2.6266
   61MOL    H9123011   3.906   5.691   2.764 -0.9228  0.8581  0.2197
   61MOL    H9223012   3.943   5.721   2.939 -1.4958  0.5918  0.5430
   61MOL    H9323013   3.781   5.723   2.879 -1.4460 -1.6120  2.6048
   61MOL    H9423014   3.692   5.500   2.762 -1.2268  0.2088  1.4499
   61MOL    H9523015   3.779   5.346   2.807  1.4630  0.1181  0.1106
   61MOL    H9623016   3.846   5.446   2.684  0.5747 -0.0783  1.0371
   61MOL    C9723017   3.950   5.541   3.359  0.6415 -0.2484 -0.4540
   61MOL    C9823018   4.057   5.438   3.334 -0.5401 -0.1586 -0.0400
   61MOL    O9923019   4.009   5.308   3.364 -0.2952  0.0726 -0.4250
   61MOL   C10023020   4.056   5.202   3.280 -0.0217  0.1204  0.5829
   61MOL   C10123021   3.999   5.069   3.326 -0.2643 -0.6863  0.2521
   61MOL   C10223022   4.036   5.031   3.468  0.8007  0.1133  0.0173
   61MOL   C10323023   3.844   5.066   3.294 -0.1754  0.0473  0.4631
   61MOL   H10423024   3.909   5.545   3.460 -0.4742 -4.2903 -0.6945
   61MOL   H10523025   3.992   5.641   3.347 -0.3508  0.3319  0.8087
   61MOL   H10623026   4.091   5.459   3.233 -0.6815  2.5494  0.4355
   61MOL   H10723027   4.165   5.191   3.277  0.3575  3.2192  0.5505
   61MOL   H10823028   4.033   5.231   3.178  3.3238  0.2670 -0.2152
   61MOL   H10923029   4.054   5.000   3.262  0.5788  0.4427 -0.2447
   61MOL   H11023030   4.029   4.924   3.488 -1.7667  0.5579  1.6800
   61MOL   H11123031   4.141   5.052   3.489  1.8696 -2.8725 -1.9590
   61MOL   H11223032   3.972   5.077   3.542 -0.8570 -0.7394 -0.8503
   61MOL   H11323033   3.801   5.154   3.342 -0.5229 -0.9196  1.9481
   61MOL   H11423034   3.834   5.087   3.188  0.3107 -1.8121  0.0315
   61MOL   H11523035   3.784   4.980   3.323  0.9715 -0.5244  1.2166
   61MOL   C11623036   4.176   5.462   3.434 -0.0418  0.0516  0.1135
   61MOL   C11723037   4.257   5.584   3.390 -0.2172  0.5888 -0.3724
   61MOL   O11823038   4.204   5.711   3.434  0.1913  0.1997  0.2760
   61MOL   C11923039   4.242   5.825   3.364  1.0629 -0.0387  0.0136
   61MOL   C12023040   4.172   5.948   3.423 -0.4681  0.4322 -0.8766
   61MOL   C12123041   4.019   5.948   3.406 -0.4570  0.5316 -0.2315
   61MOL   C12223042   4.205   5.961   3.582  0.3356  0.9698  0.1267
   61MOL   H12323043   4.137   5.475   3.534 -0.3354  3.4805 -0.3952
   61MOL   H12423044   4.250   5.383   3.425 -0.1151 -0.0312  0.2411
   61MOL   H12523045   4.274   5.574   3.283  0.2599  1.2837 -0.3660
   61MOL   H12623046   4.209   5.808   3.262 -0.0468  0.0302  0.3549
   61MOL   H12723047   4.351   5.839   3.363  1.2555 -1.3105  1.0846
   61MOL   H12823048   4.203   6.039   3.372 -2.6939  0.7128 -1.7891
   61MOL   H12923049   3.976   6.046   3.430 -1.5773  0.1638 -0.7034
   61MOL   H13023050   3.968   5.865   3.455 -1.3277 -0.7993 -3.2473
   61MOL   H13123051   3.985   5.941   3.302 -1.0467 -1.3647  0.0637
   61MOL   H13223052   4.149   6.050   3.612  1.7080  1.9236 -0.0520
   61MOL   H13323053   4.156   5.891   3.649  3.1637  1.1078  2.4358
   61MOL   H13423054   4.310   5.972   3.610  0.1067 -1.4642  2.0872
   61MOL   C13523055   4.396   5.574   3.456  0.6005 -0.3102 -0.3088
   61MOL   C13623056   4.505   5.504   3.372  0.0983  0.5052 -0.2249
   61MOL   O13723057   4.507   5.554   3.239  0.8693 -0.1420  0.5607
   61MOL   C13823058   4.540   5.465   3.141 -0.2075  0.1077  0.6415
   61MOL   C13923059   4.540   5.545   3.011 -0.3255 -0.3382  0.3482
   61MOL   C14023060   4.412   5.618   2.984 -0.3075  0.0375 -0.7069
   61MOL   C14123061   4.670   5.638   2.999 -0.2310  0.4366 -0.4949
   61MOL   H14223062   4.442   5.672   3.470  1.2953 -0.9762  2.2989
   61MOL   H14323063   4.382   5.551   3.561 -1.5031  2.2527  0.0120
   61MOL   H14423064   4.481   5.398   3.365  1.0841  0.3523 -1.3064
   61MOL   H14523065   4.475   5.379   3.128  0.2225  0.1029 -1.8616
   61MOL   H14623066   4.641   5.427   3.161  0.1790  0.2345 -0.9172
   61MOL   H14723067   4.551   5.470   2.933 -1.3678 -0.5810  0.4279
   61MOL   H14823068   4.389   5.688   3.064 -0.6617  3.0929 -3.4160
   61MOL   H14923069   4.334   5.542   2.982 -0.3140  0.0725 -2.8039
   61MOL   H15023070   4.416   5.679   2.894 -1.9429  1.2815  0.0315
   61MOL   H15123071   4.657   5.723   3.065  1.2277 -0.9340  1.6553
   61MOL   H15223072   4.761   5.585   3.029 -1.3981 -0.8397  0.9312
   61MOL   H15323073   4.660   5.683   2.901 -0.4001  1.0639 -0.1894
   61MOL   C15423074   4.643   5.520   3.443 -0.6891 -0.0874  0.1568
   61MOL   C15523075   4.697   5.380   3.461  0.7926  0.0066 -0.3653
   61MOL   O15623076   4.845   5.394   3.471 -0.1863 -0.2876  0.4356
   61MOL   C15723077   4.913   5.383   3.349 -0.6231  0.2689  0.3381
   61MOL   C15823078   5.056   5.427   3.362  0.3685  0.0367 -0.4266
   61MOL   C15923079   5.062   5.557   3.446 -0.1963 -0.4368 -0.0035
   61MOL   C16023080   5.144   5.317   3.432  0.7077 -0.2298  0.2632
   61MOL   H16123081   4.652   5.574   3.537  1.5147 -0.6941  0.3220
   61MOL   H16223082   4.702   5.579   3.373 -0.0990  0.3964  1.0540
   61MOL   H16323083   4.680   5.308   3.381  2.4229 -0.3753 -0.3799
   61MOL   H16423084   4.868   5.449   3.275 -2.1465 -0.7733  0.3284
   61MOL   H16523085   4.920   5.281   3.313 -1.0616  1.6147 -3.7829
   61MOL   H16623086   5.097   5.445   3.263  1.2545  0.9543  0.1083
   61MOL   H16723087   5.019   5.547   3.546  0.5832 -1.3690  0.2418
   61MOL   H16823088   5.006   5.641   3.404  0.4221  0.1000  0.2340
   61MOL   H16923089   5.168   5.578   3.460  0.0687 -0.7946 -1.3948
   61MOL   H17023090   5.107   5.294   3.531 -0.7286 -0.3920 -0.2931
   61MOL   H17123091   5.156   5.226   3.373 -1.4973  0.6441 -1.6370
   61MOL   H17223092   5.244   5.359   3.434  0.1127  1.3713 -1.4364
   61MOL   C17323093   4.657   5.315   3.592 -0.4172 -0.1753  0.0257
   61MOL   C17423094   4.534   5.225   3.583  0.0275  0.4124 -0.0737
   61MOL   O17523095   4.556   5.125   3.486  0.4544 -0.1789 -0.2408
   61MOL   C17623096   4.441   5.042   3.453 -0.1624  0.4458 -0.4449
   61MOL   C17723097   4.470   4.963   3.323  0.0251  0.5549  0.0985
   61MOL   C17823098   4.347   4.877   3.290 -0.2055  0.6330  0.9981
   61MOL   C17923099   4.511   5.059   3.216  0.6849 -0.5222  0.1416
   61MOL   H18023100   4.740   5.249   3.617 -0.7870 -0.7075 -0.1498
   61MOL   H18123101   4.651   5.388   3.672 -2.6654  1.2455 -1.4024
   61MOL   H18223102   4.450   5.284   3.547 -0.9247  0.0310  1.4810
   61MOL   H18323103   4.356   5.109   3.443 -2.0358 -1.2190  3.4793
   61MOL   H18423104   4.402   4.975   3.529 -0.6827 -1.4895 -2.3445
   61MOL   H18523105   4.551   4.896   3.349 -1.2163 -0.7787  0.6015
   61MOL   H18623106   4.309   4.809   3.367 -3.0366  1.0551  0.0378
   61MOL   H18723107   4.267   4.945   3.262  0.2446  0.5304 -0.5735
   61MOL   H18823108   4.371   4.823   3.199  0.7022  2.1933  0.3142
   61MOL   H18923109   4.466   5.023   3.124 -0.7102  0.1014  0.5705
   61MOL   H19023110   4.620   5.066   3.220  0.6208  0.5066  0.2895
   61MOL   H19123111   4.463   5.156   3.232 -3.1076 -2.1584 -0.8321
   61MOL   C19223112   4.499   5.178   3.724  0.0814  0.1108  0.3348
   61MOL   C19323113   4.455   5.282   3.830 -0.4225 -0.3457 -0.4937
   61MOL   O19423114   4.451   5.215   3.957  0.6438 -0.9099 -0.1203
   61MOL   C19523115   4.569   5.206   4.025  0.0623 -0.5391 -0.0146
   61MOL   C19623116   4.567   5.111   4.144 -0.7286 -0.2064 -0.0222
   61MOL   C19723117   4.462   5.152   4.253 -0.1387  0.0297  0.1521
   61MOL   C19823118   4.700   5.079   4.208 -0.0167  0.4540 -0.3277
   61MOL   H19923119   4.595   5.133   3.752 -0.7553 -2.3043 -0.5366
   61MOL   H20023120   4.422   5.102   3.717 -0.0450  0.3146 -0.5414
   61MOL   H20123121   4.536   5.355   3.828  0.1789 -0.9520  1.2647
   61MOL   H20223122   4.601   5.305   4.057 -0.4859 -0.2421 -0.3906
   61MOL   H20323123   4.649   5.169   3.959 -1.2928 -1.4867 -1.1565
   61MOL   H20423124   4.530   5.015   4.107  1.8827 -1.2592  0.0046
   61MOL   H20523125   4.366   5.173   4.206 -0.8904  0.5095  1.8762
   61MOL   H20623126   4.438   5.069   4.318  0.5374 -1.8702 -1.9738
   61MOL   H20723127   4.491   5.238   4.313 -2.1216  2.2088 -1.8737
   61MOL   H20823128   4.701   4.986   4.264  0.9865  0.5346 -0.2001
   61MOL   H20923129   4.780   5.061   4.136  0.0986  0.9558 -0.3301
   61MOL   H21023130   4.737   5.157   4.273 -2.6475  0.6209  1.0282
   61MOL   C21123131   4.314   5.345   3.813 -0.7433  0.1939 -0.8334
   61MOL   C21223132   4.284   5.457   3.913 -0.1556  0.2328  0.9080
   61MOL   O21323133   4.355   5.572   3.873 -0.0035 -0.4630 -0.0522
   61MOL   C21423134   4.437   5.629   3.967 -0.2706  0.0687 -0.4323
   61MOL   C21523135   4.493   5.749   3.895  0.7225  0.2994 -0.8519
   61MOL   C21623136   4.383   5.857   3.885  0.3666 -0.1533  0.2989
   61MOL   C21723137   4.623   5.816   3.942 -0.5389 -0.5525  0.1350
   61MOL   H21823138   4.236   5.270   3.827 -1.5173  1.2032  0.4476
   61MOL   H21923139   4.309   5.390   3.714  0.1128 -0.8829 -1.3663
   61MOL   H22023140   4.311   5.419   4.011  0.7766  0.5325  0.7663
   61MOL   H22123141   4.507   5.549   3.992  1.0626  1.3514  0.0409
   61MOL   H22223142   4.376   5.654   4.054  0.0952 -1.4296  0.2821
   61MOL   H22323143   4.522   5.723   3.793  2.4922  0.3597 -0.3732
   61MOL   H22423144   4.340   5.888   3.980  0.7904  1.0152  0.1207
   61MOL   H22523145   4.419   5.948   3.837  1.8857 -0.3301  1.0728
   61MOL   H22623146   4.297   5.820   3.829 -1.7799 -0.7945  3.8120
   61MOL   H22723147   4.634   5.912   3.892 -1.1611 -0.5364  0.0273
   61MOL   H22823148   4.708   5.750   3.921  0.6257  1.1324 -0.5002
   61MOL   H22923149   4.629   5.831   4.050 -2.9827 -1.2580  0.4050
   61MOL   C23023150   4.132   5.496   3.903 -0.0723 -0.0902  0.4308
   61MOL   C23123151   4.093   5.602   4.017 -0.0191 -0.0776 -0.1181
   61MOL   O23223152   3.973   5.675   3.982 -0.2736  0.2410  0.7097
   61MOL   C23323153   3.994   5.774   3.880  0.0991  0.6452  0.2765
   61MOL   C23423154   3.878   5.871   3.903  0.4937  0.1340 -0.2414
   61MOL   C23523155   3.904   5.948   4.031  0.4275 -0.5063 -0.4903
   61MOL   C23623156   3.859   5.968   3.787  0.0809  0.4437 -0.5572
   61MOL   H23723157   4.071   5.406   3.906 -0.1444 -0.2794 -3.3763
   61MOL   H23823158   4.115   5.545   3.806 -0.1061 -0.6885  0.1312
   61MOL   H23923159   4.174   5.675   4.024 -0.3885  0.3703 -0.4833
   61MOL   H24023160   4.083   5.836   3.885  0.5728 -0.0031 -0.1175
   61MOL   H24123161   3.986   5.737   3.778 -0.7836  0.3817  0.4380
   61MOL   H24223162   3.787   5.811   3.909  1.4461 -1.0768  2.6751
   61MOL   H24323163   3.833   6.019   4.074  1.3854  0.1107  0.1157
   61MOL   H24423164   3.998   6.003   4.019 -0.4271  1.4019  1.2609
   61MOL   H24523165   3.915   5.875   4.110  1.8164  0.6690  0.4342
   61MOL   H24623166   3.803   5.916   3.709  0.0485 -0.3199 -0.0264
   61MOL   H24723167   3.810   6.060   3.818  0.5597  0.4609  0.1669
   61MOL   H24823168   3.961   5.996   3.760 -0.1210 -0.0823 -1.9055
   61MOL   C24923169   4.076   5.538   4.153 -0.4362  0.2434  1.0622
   61MOL   C25023170   3.955   5.454   4.199  0.9110  0.7176  0.6051
   61MOL   O25123171   3.988   5.379   4.313 -0.1833 -0.1703 -0.1496
   61MOL   C25223172   4.026   5.239   4.295 -0.5697  0.5074  0.2273
   61MOL   C25323173   4.072   5.168   4.438 -0.4971 -0.9642 -0.1031
   61MOL   C25423174   4.193   5.245   4.509  0.6512 -0.2543  0.1313
   61MOL   C25523175   4.094   5.021   4.427 -0.2614  0.4634  0.3078
   61MOL   H25623176   4.085   5.612   4.233 -0.4863  1.3204  0.0856
   61MOL   H25723177   4.160   5.469   4.161 -0.3064  0.3462  0.6046
   61MOL   H25823178   3.928   5.383   4.121 -1.7347 -0.3526  2.4319
   61MOL   H25923179   3.940   5.184   4.255 -0.3150 -0.1282  0.5368
   61MOL   H26023180   4.096   5.237   4.212  2.5939  0.7656  2.8093
   61MOL   H26123181   3.991   5.195   4.506  1.7640  0.1609  2.2320
   61MOL   H26223182   4.283   5.220   4.453  0.4995  0.5808 -0.4846
   61MOL   H26323183   4.207   5.199   4.607  1.1813  2.2961  1.2677
   61MOL   H26423184   4.178   5.353   4.511  0.6355 -0.2224 -1.4461
   61MOL   H26523185   4.086   4.956   4.514  1.3155 -0.7845 -0.4461
   61MOL   H26623186   4.021   4.970   4.365  1.2401  0.0415 -1.1589
   61MOL   H26723187   4.189   5.000   4.377 -1.3993 -2.2682 -0.7959
   61MOL   C26823188   3.834   5.537   4.237  0.3126 -0.1663  0.1086
   61MOL   C26923189   3.698   5.466   4.254  0.1060 -0.6163 -0.2895
   61MOL   O27023190   3.610   5.537   4.168 -0.1365  0.5657 -0.1033
   61MOL   C27123191   3.511   5.450   4.111  0.0337 -0.4075 -0.8762
   61MOL   C27223192   3.384   5.528   4.067  0.0795 -0.6638 -0.3761
   61MOL   C27323193   3.302   5.568   4.193 -0.0239 -0.3379 -0.3392
   61MOL   C27423194   3.431   5.651   3.979  0.3162 -0.8394 -0.2221
   61MOL   H27523195   3.826   5.611   4.157 -0.1085  2.6874  2.6530
   61MOL   H27623196   3.873   5.586   4.326  3.7123 -0.5307 -1.1279
   61MOL   H27723197   3.713   5.366   4.212  1.7912  0.4899 -2.4586
   61MOL   H27823198   3.562   5.391   4.035 -0.7842 -1.6677 -0.4700
   61MOL   H27923199   3.476   5.388   4.193  0.0388  0.8107  0.0700
   61MOL   H28023200   3.339   5.453   4.001  0.2133  0.1205 -1.3634
   61MOL   H28123201   3.215   5.628   4.165 -0.2472  0.1805  1.3941
   61MOL   H28223202   3.359   5.630   4.262  2.5136  0.0257 -2.6516
   61MOL   H28323203   3.280   5.479   4.251  3.9155 -0.7798  0.6400
   61MOL   H28423204   3.486   5.712   4.050 -1.1949  0.4080 -0.1164
   61MOL   H28523205   3.351   5.699   3.924  2.5898  1.7795 -1.3286
   61MOL   H28623206   3.507   5.622   3.905 -0.2429  0.1114 -1.1729
   61MOL   C28723207   3.650   5.478   4.401 -0.0864  0.1421 -0.3251
   61MOL   C28823208   3.668   5.350   4.479 -0.1305 -0.4712 -0.4715
   61MOL   O28923209   3.584   5.252   4.424  0.1592 -0.7267 -0.4737
   61MOL   C29023210   3.639   5.119   4.435  0.4211 -0.2906 -0.3619
   61MOL   C29123211   3.530   5.029   4.383  0.2366  0.7794  0.6062
   61MOL   C29223212   3.481   5.065   4.237 -0.2038  0.0294  0.7265
   61MOL   C29323213   3.409   5.011   4.479 -0.6107  0.3743 -0.0636
   61MOL   H29423214   3.544   5.500   4.401 -0.0810  0.2146 -1.6618
   61MOL   H29523215   3.701   5.562   4.449  1.1443 -0.4123 -0.6210
   61MOL   H29623216   3.771   5.314   4.481  0.2652  0.6420 -0.0974
   61MOL   H29723217   3.738   5.110   4.390  0.2288  0.0215 -0.8491
   61MOL   H29823218   3.642   5.084   4.538 -1.6793 -1.6967 -0.7424
   61MOL   H29923219   3.573   4.929   4.382 -1.0823  0.1659  2.3700
   61MOL   H30023220   3.414   4.988   4.199  0.2714 -0.0011 -0.0645
   61MOL   H30123221   3.564   5.071   4.166 -1.2151  0.0291 -0.4702
   61MOL   H30223222   3.422   5.156   4.235  0.9722  0.7955  0.0127
   61MOL   H30323223   3.362   5.109   4.485  1.4924  1.4258 -0.0694
   61MOL   H30423224   3.331   4.943   4.446  0.9005 -1.2677 -0.3556
   61MOL   H30523225   3.441   4.981   4.579  2.0043 -3.5296 -1.9117
   61MOL   C30623226   3.632   5.358   4.635  1.2575  0.5665 -0.2490
   61MOL   C30723227   3.725   5.433   4.725  0.0291  0.2582 -0.1003
   61MOL   O30823228   3.666   5.431   4.861  0.2452 -0.8076  0.6126
   61MOL   C30923229   3.618   5.563   4.898 -0.2650 -0.2802 -0.0213
   61MOL   C31023230   3.566   5.558   5.035 -0.6097  0.4134 -1.0954
   61MOL   C31123231   3.507   5.698   5.071 -0.1882  0.1142 -0.0154
   61MOL   C31223232   3.662   5.515   5.153  0.3033 -0.0749  0.2536
   61MOL   H31323233   3.644   5.260   4.682  0.8744 -0.7718 -2.8360
   61MOL   H31423234   3.528   5.390   4.645  0.1540 -3.3716  2.1578
   61MOL   H31523235   3.740   5.537   4.696  0.5106  0.2625  0.1729
   61MOL   H31623236   3.540   5.598   4.831  0.1890 -1.3926 -1.1393
   61MOL   H31723237   3.697   5.638   4.892 -1.1467  0.7542  1.1607
   61MOL   H31823238   3.487   5.484   5.041  0.5927 -0.8203 -0.0105
   61MOL   H31923239   3.581   5.778   5.066 -0.6289  0.4621 -0.9272
   61MOL   H32023240   3.461   5.711   5.169 -1.4701  4.2363 -1.0618
   61MOL   H32123241   3.434   5.721   4.994 -1.0640  2.9325  1.6023
   61MOL   H32223242   3.692   5.413   5.129 -1.8677 -0.7485  0.2716
   61MOL   H32323243   3.600   5.501   5.242 -0.0530 -1.0919 -0.1422
   61MOL   H32423244   3.741   5.582   5.187 -1.1607  1.3359  0.9448
   61MOL   C32523245   3.861   5.367   4.743  0.3082  0.3561 -0.9127
   61MOL   C32623246   3.949   5.457   4.839 -0.1137 -0.7323  0.0104
   61MOL   O32723247   4.072   5.385   4.872 -0.2097  0.3992  0.0194
   61MOL   C32823248   4.061   5.290   4.981  0.0534 -0.1515 -0.3126
   61MOL   C32923249   4.190   5.231   5.012  0.3037 -0.5988 -0.6608
   61MOL   C33023250   4.178   5.145   5.137 -0.0088  0.7372 -0.2072
   61MOL   C33123251   4.225   5.139   4.895  1.1061  0.6732 -0.6944
   61MOL   H33223252   3.918   5.382   4.652  2.8360  0.3296  0.6046
   61MOL   H33323253   3.855   5.264   4.779 -3.1804  0.6580 -0.4828
   61MOL   H33423254   3.892   5.479   4.929 -1.1300  3.4145 -1.5347
   61MOL   H33523255   4.021   5.336   5.071 -0.5911 -2.3071  0.5478
   61MOL   H33623256   3.980   5.219   4.962 -1.3249  1.1334  0.6767
   61MOL   H33723257   4.266   5.307   5.026 -1.6571  1.6508 -1.8784
   61MOL   H33823258   4.180   5.194   5.234  2.7072 -2.8929  1.6846
   61MOL   H33923259   4.098   5.071   5.128  0.5935  0.2305 -1.6383
   61MOL   H34023260   4.267   5.083   5.143 -0.5788 -0.2463 -1.6451
   61MOL   H34123261   4.303   5.069   4.922  0.9465  0.1961 -1.4514
   61MOL   H34223262   4.134   5.083   4.870  0.4654  0.7148  1.4435
   61MOL   H34323263   4.251   5.194   4.805 -0.5190  3.5757  0.5370
   61MOL   C34423264   4.000   5.589   4.788 -0.1362 -0.4192  0.0014
   61MOL   C34523265   4.074   5.678   4.890 -0.7408 -0.4193  0.4025
   61MOL   O34623266   4.092   5.804   4.824  0.7692 -0.0284  0.3074
   61MOL   C34723267   4.217   5.830   4.752 -0.1057  0.1353 -0.2007
   61MOL   C34823268   4.208   5.946   4.648 -0.6537  0.1245  0.4551
   61MOL   C34923269   4.181   6.084   4.715  0.0761  0.6211  0.0510
   61MOL   C35023270   4.116   5.904   4.534 -0.1540  0.6385  0.5497
   61MOL   H35123271   3.919   5.648   4.746  1.3769  1.9983  0.3879
   61MOL   H35223272   4.064   5.562   4.705 -1.4197 -2.3979 -0.3850
   61MOL   H35323273   4.169   5.627   4.908 -0.5181 -0.2000 -0.1376
   61MOL   H35423274   4.248   5.737   4.705 -0.8195 -0.5384  0.6398
   61MOL   H35523275   4.293   5.828   4.830  1.3982 -0.7981 -1.6622
   61MOL   H35623276   4.309   5.946   4.607 -0.4643 -1.7256  0.8715
   61MOL   H35723277   4.184   6.178   4.660  0.9454 -0.0603 -1.0886
   61MOL   H35823278   4.260   6.098   4.790  0.3442 -0.8859  0.0532
   61MOL   H35923279   4.091   6.086   4.777  0.6033 -0.1747  0.8573
   61MOL   H36023280   4.164   5.921   4.438  0.8178 -1.2579  0.6612
   61MOL   H36123281   4.091   5.798   4.541  2.6190 -0.0556  0.5363
   61MOL   H36223282   4.019   5.947   4.557 -1.5629 -1.8138 -0.5670
   61MOL   C36323283   4.008   5.702   5.026  0.1586 -0.4298 -0.0142
   61MOL   C36423284   4.107   5.753   5.131 -0.2864 -0.4321  0.5111
   61MOL   O36523285   4.189   5.642   5.166  0.2082 -1.0072  0.4960
   61MOL   C36623286   4.311   5.684   5.226 -0.7331 -0.4926  0.2641
   61MOL   C36723287   4.371   5.568   5.315  0.3601  0.6032  0.3596
   61MOL   C36823288   4.285   5.524   5.432  0.4688  0.6147 -0.2831
   61MOL   C36923289   4.504   5.612   5.379  0.5871 -0.1385 -0.3320
   61MOL   H37023290   3.938   5.785   5.012  1.0529  0.2728 -0.3132
   61MOL   H37123291   3.953   5.618   5.068 -0.7388  0.5068  0.7269
   61MOL   H37223292   4.061   5.800   5.218  0.5144  2.0885 -0.3879
   61MOL   H37323293   4.382   5.715   5.149 -0.0148  1.4276  1.6361
   61MOL   H37423294   4.290   5.763   5.299 -2.9052 -0.6701 -0.1584
   61MOL   H37523295   4.383   5.481   5.250 -1.1669 -0.3857  1.3657
   61MOL   H37623296   4.267   5.604   5.504  0.3856  1.2749 -1.0271
   61MOL   H37723297   4.323   5.436   5.484 -1.8926 -0.1696  0.1837
   61MOL   H37823298   4.195   5.480   5.388  0.1973  1.9346 -1.0634
   61MOL   H37923299   4.565   5.533   5.422  1.4671  0.5156 -0.3527
   61MOL   H38023300   4.494   5.699   5.445 -0.5187 -0.8382  0.4462
   61MOL   H38123301   4.574   5.651   5.305  0.4630  0.9181  0.0919
   61MOL   H38223302   4.164   5.836   5.091 -1.1958 -1.4384 -2.9978
   62MOL     C123303   4.397   3.977   7.763 -0.0042  0.4679 -0.0713
   62MOL     C223304   4.371   3.996   7.608 -0.1467  1.0721  0.0661
   62MOL     O323305   4.233   3.998   7.574 -0.2696  1.1780 -0.1527
   62MOL     C423306   4.161   3.877   7.608 -0.5248 -0.1136  0.5134
   62MOL     C523307   4.019   3.885   7.543 -0.1375  0.4118  0.3780
   62MOL     C623308   4.023   3.894   7.389 -0.1338  0.0078 -0.2729
   62MOL     C723309   3.947   4.008   7.599  0.1877  0.8375 -0.1674
   62MOL     H823310   4.351   3.888   7.806  2.8768 -0.7964  0.5143
   62MOL     H923311   4.500   3.946   7.783 -0.5554 -0.4623  1.3694
   62MOL    H1023312   4.408   3.907   7.557 -2.9125 -2.0013  3.2617
   62MOL    H1123313   4.152   3.869   7.716  0.2501 -1.2169  0.5007
   62MOL    H1223314   4.210   3.791   7.563  0.0883  0.1705  0.6402
   62MOL    H1323315   3.974   3.789   7.569 -0.0437 -0.1706 -1.5310
   62MOL    H1423316   4.111   3.955   7.364  0.5760 -0.6953  0.4673
   62MOL    H1523317   4.033   3.798   7.338 -0.4816 -0.0967 -0.1420
   62MOL    H1623318   3.927   3.933   7.357 -1.6086 -1.3105  2.3893
   62MOL    H1723319   3.950   4.011   7.708 -0.4516 -0.5165 -0.1121
   62MOL    H1823320   3.987   4.099   7.553 -0.1516  0.9024 -0.3313
   62MOL    H1923321   3.843   3.998   7.570 -0.2863  0.4231  1.6388
   62MOL    H2023322   4.372   4.060   0.005 -0.4947 -1.0852  1.7185
   62MOL    C2123323   4.432   4.123   7.546  0.8599 -0.1962 -0.0916
   62MOL    C2223324   4.585   4.130   7.552 -0.7858  0.0366  0.4973
   62MOL    O2323325   4.640   4.052   7.445 -0.3192  0.2397  0.1581
   62MOL    C2423326   4.742   3.962   7.477 -0.5455  0.0963  0.6791
   62MOL    C2523327   4.819   3.948   7.343 -0.1494  0.7269  0.1757
   62MOL    C2623328   4.953   3.887   7.365  0.4008 -0.6331 -0.4429
   62MOL    C2723329   4.736   3.877   7.236 -0.3952  0.6567 -0.0507
   62MOL    H2823330   4.396   4.143   7.445  1.7511  1.0693 -0.1583
   62MOL    H2923331   4.393   4.211   7.596  1.9249  0.1311  0.1673
   62MOL    H3023332   4.614   4.105   7.654  0.0286  2.7953  0.9914
   62MOL    H3123333   4.695   3.877   7.527  0.9445 -1.5107 -0.5767
   62MOL    H3223334   4.813   4.007   7.547 -1.2161  0.1987  1.2994
   62MOL    H3323335   4.828   4.051   7.311  1.1167  0.5291 -0.1181
   62MOL    H3423336   4.987   3.927   7.460 -0.8688  0.9786 -0.6530
   62MOL    H3523337   5.025   3.920   7.291 -0.4943  0.5669 -0.7806
   62MOL    H3623338   4.956   3.779   7.379  2.3480 -0.6687 -0.9794
   62MOL    H3723339   4.779   3.907   7.141  0.9216  0.6607  0.5304
   62MOL    H3823340   4.749   3.769   7.246 -0.0485  0.5004 -2.1343
   62MOL    H3923341   4.630   3.896   7.251 -0.1254  1.0149  1.6212
   62MOL    C4023342   4.636   4.279   7.518 -0.0389  0.7870  0.7545
   62MOL    C4123343   4.609   4.405   7.611  0.1969  0.3299  0.6958
   62MOL    O4223344   4.464   4.439   7.630 -0.1673 -0.1136  0.1984
   62MOL    C4323345   4.394   4.486   7.513 -0.1994 -0.0258 -0.4663
   62MOL    C4423346   4.271   4.576   7.552  0.4369  0.1411  0.8472
   62MOL    C4523347   4.165   4.499   7.631  0.4265  0.3821  0.4187
   62MOL    C4623348   4.310   4.702   7.626 -0.2669  0.5797 -0.3541
   62MOL    H4723349   4.610   4.296   7.413 -0.0657  1.0184  0.7989
   62MOL    H4823350   4.744   4.264   7.511 -0.1191  0.9677 -1.1445
   62MOL    H4923351   4.641   4.370   7.709  2.3932 -0.8748 -0.4119
   62MOL    H5023352   4.376   4.401   7.448 -1.4381  0.1672 -0.3981
   62MOL    H5123353   4.452   4.555   7.452 -0.7771  1.3633  0.5042
   62MOL    H5223354   4.229   4.618   7.461 -2.5262 -1.4764  1.4066
   62MOL    H5323355   4.086   4.571   7.653  0.3383  1.0726 -1.9665
   62MOL    H5423356   4.130   4.419   7.565  1.4197  0.1546  0.1612
   62MOL    H5523357   4.209   4.451   7.718 -0.8417 -3.9021 -1.1603
   62MOL    H5623358   4.387   4.661   7.691 -1.5096 -0.8721  0.2431
   62MOL    H5723359   4.221   4.748   7.667 -0.1983 -0.4004  0.9268
   62MOL    H5823360   4.356   4.776   7.561 -0.9930  3.2450  2.1113
   62MOL    C5923361   4.698   4.517   7.567 -0.0749 -0.2787  0.1670
   62MOL    C6023362   4.693   4.637   7.657 -0.5481 -0.3097 -0.3649
   62MOL    O6123363   4.737   4.748   7.580 -0.3493 -0.0784  0.4609
   62MOL    C6223364   4.630   4.824   7.521 -0.4739  0.1161 -0.2370
   62MOL    C6323365   4.688   4.932   7.423 -0.0233 -0.2085 -0.7394
   62MOL    C6423366   4.577   5.013   7.353  0.1392  0.3174 -0.6638
   62MOL    C6523367   4.789   5.017   7.501 -0.6131  0.1304  0.0314
   62MOL    H6623368   4.681   4.535   7.461  0.6591 -0.1762  0.0613
   62MOL    H6723369   4.801   4.482   7.573  0.5879  1.7011  1.0185
   62MOL    H6823370   4.596   4.662   7.700 -1.1191 -1.7003 -0.8247
   62MOL    H6923371   4.559   4.760   7.469  0.6158 -2.6201  1.4932
   62MOL    H7023372   4.577   4.874   7.602  2.1047 -0.1548  1.6826
   62MOL    H7123373   4.744   4.888   7.340  0.2601  1.4102 -1.4251
   62MOL    H7223374   4.616   5.065   7.266  2.2823  1.4394  0.9202
   62MOL    H7323375   4.534   5.082   7.426 -1.9288 -0.0798 -1.4656
   62MOL    H7423376   4.502   4.946   7.312  1.3032 -0.1759 -2.0007
   62MOL    H7523377   4.863   4.957   7.554 -2.2098 -0.4957  1.6174
   62MOL    H7623378   4.837   5.078   7.425 -1.7380  0.3244 -0.5242
   62MOL    H7723379   4.757   5.083   7.581 -1.9244 -0.7838  0.2733
   62MOL    C7823380   4.781   4.634   7.785 -0.1426 -0.5309 -0.0775
   62MOL    C7923381   4.769   4.758   0.055 -0.3565 -0.4877  0.8038
   62MOL    O8023382   4.638   4.756   0.115  0.6396 -0.2893 -0.6631
   62MOL    C8123383   4.587   4.876   0.160 -0.1670 -0.2042 -0.1809
   62MOL    C8223384   4.439   4.879   0.144  0.7479  0.4534  0.0481
   62MOL    C8323385   4.377   5.016   0.156 -0.3233  0.7058  0.1038
   62MOL    C8423386   4.363   4.779   0.227 -0.2509  0.2131  0.2484
   62MOL    H8523387   4.885   4.617   7.757  0.3999  2.0071  0.2858
   62MOL    H8623388   4.754   4.546   0.018 -0.3073  0.5050  1.4639
   62MOL    H8723389   4.763   4.847   7.817  0.7609 -0.5876  0.5488
   62MOL    H8823390   4.618   4.902   0.261  0.0354 -3.7530  0.7484
   62MOL    H8923391   4.621   4.955   0.093  0.4003 -0.5137 -0.2638
   62MOL    H9023392   4.426   4.831   0.046  1.6839 -3.9591  1.9585
   62MOL    H9123393   4.281   5.021   0.104 -1.5998 -0.5313  2.2889
   62MOL    H9223394   4.436   5.094   0.107  0.3188 -0.0353 -0.3005
   62MOL    H9323395   4.353   5.049   0.257  1.2634  1.5476  0.2271
   62MOL    H9423396   4.260   4.812   0.234  0.0710  2.1226 -2.8950
   62MOL    H9523397   4.411   4.758   0.323  0.2105 -0.2948 -0.0860
   62MOL    H9623398   4.361   4.686   0.170  1.5233  0.2502  0.0919
   62MOL    C9723399   4.884   4.777   0.159 -0.1721 -0.1243 -0.2873
   62MOL    C9823400   5.026   4.805   0.112 -0.7018 -0.2753  0.1112
   62MOL    O9923401   5.123   4.791   0.215  0.0939 -0.3156  0.1132
   62MOL   C10023402   5.138   4.656   0.257 -0.2609 -0.2016  0.1403
   62MOL   C10123403   5.272   4.627   0.318  0.6563 -0.0209  0.7196
   62MOL   C10223404   5.366   4.576   0.216 -0.2095  0.1092 -0.5019
   62MOL   C10323405   5.322   4.748   0.401 -0.2969 -0.3959  0.7409
   62MOL   H10423406   4.881   4.685   0.218  0.4007 -1.0604 -1.6804
   62MOL   H10523407   4.857   4.862   0.222 -0.1091  0.9474 -1.6902
   62MOL   H10623408   5.049   4.739   0.028  1.4636 -0.0646  0.4918
   62MOL   H10723409   5.126   4.596   0.167  0.6500  1.5051 -1.1391
   62MOL   H10823410   5.062   4.637   0.334  0.6488 -0.6605  0.9386
   62MOL   H10923411   5.251   4.549   0.391  2.7576 -0.0168  1.3617
   62MOL   H11023412   5.335   4.479   0.177 -3.3773 -0.7483  3.8160
   62MOL   H11123413   5.382   4.657   0.144 -2.2858  3.5100  2.6740
   62MOL   H11223414   5.463   4.560   0.262 -0.3147 -0.7507 -0.5830
   62MOL   H11323415   5.421   4.724   0.439  0.9218  2.4699 -0.4526
   62MOL   H11423416   5.314   4.843   0.349  0.2503  0.0738  1.4948
   62MOL   H11523417   5.262   4.772   0.490  0.0460  0.6826  0.6862
   62MOL   C11623418   5.043   4.944   0.050  0.1920 -0.0954  0.2165
   62MOL   C11723419   5.180   4.949   7.793  0.3056  0.4682 -0.2654
   62MOL   O11823420   5.178   4.856   7.690 -0.2883  0.0020  0.2277
   62MOL   C11923421   5.316   4.804   7.664 -0.0824 -0.1166  0.1743
   62MOL   C12023422   5.337   4.724   7.535 -0.1785 -0.1945 -0.4776
   62MOL   C12123423   5.294   4.576   7.536  0.0194 -0.1800  0.6999
   62MOL   C12223424   5.274   4.794   7.410 -0.4529  0.4093  0.3127
   62MOL   H12323425   4.956   4.968   7.812 -1.3575  0.5974  2.5432
   62MOL   H12423426   5.065   5.016   0.129  2.0926  0.4894 -0.8291
   62MOL   H12523427   5.269   4.928   0.027 -0.4080  0.4987  0.8441
   62MOL   H12623428   5.333   4.732   7.745  1.1344 -0.6000 -0.4966
   62MOL   H12723429   5.390   4.884   7.663  0.3531 -0.5134 -0.6519
   62MOL   H12823430   5.445   4.721   7.521  0.3695 -1.7446  3.4994
   62MOL   H12923431   5.307   4.528   7.439 -1.3259  2.6051 -0.9093
   62MOL   H13023432   5.190   4.562   7.566 -0.8515 -0.9598 -2.4690
   62MOL   H13123433   5.349   4.529   7.617  0.6705  0.7739  0.8205
   62MOL   H13223434   5.290   4.902   7.414  1.8280  0.1329 -0.6421
   62MOL   H13323435   5.319   4.751   7.320 -0.1812 -1.4726  1.3249
   62MOL   H13423436   5.166   4.781   7.412 -0.3987 -0.4488 -1.1894
   62MOL   C13523437   5.196   5.091   7.729 -0.3648 -0.4080 -0.3735
   62MOL   C13623438   5.236   5.207   0.002 -0.2846  0.1993  0.2897
   62MOL   O13723439   5.377   5.188   0.012  0.3475  0.2063  0.3887
   62MOL   C13823440   5.445   5.217   0.127  0.5257 -0.0790  0.4444
   62MOL   C13923441   5.575   5.135   0.123 -0.1758  0.4613 -0.2787
   62MOL   C14023442   5.672   5.176   0.236  0.4019 -0.4142  0.1029
   62MOL   C14123443   5.570   4.981   0.113  0.2495  0.1168 -0.2821
   62MOL   H14223444   5.273   5.082   7.652 -0.7338 -1.0322 -0.6701
   62MOL   H14323445   5.097   5.108   7.687 -0.6023  1.6642  0.9599
   62MOL   H14423446   5.191   5.201   0.101 -1.2775 -0.3552 -0.1838
   62MOL   H14523447   5.382   5.210   0.215  0.0470 -0.3796  0.0760
   62MOL   H14623448   5.457   5.325   0.116 -1.3273  0.2162  1.2108
   62MOL   H14723449   5.629   5.156   0.031  0.4899  0.0011 -0.0019
   62MOL   H14823450   5.768   5.130   0.213  0.6660  1.4728 -2.7204
   62MOL   H14923451   5.647   5.152   0.340  0.0111  1.3377  0.4267
   62MOL   H15023452   5.675   5.284   0.220  0.6997 -0.4386 -0.0018
   62MOL   H15123453   5.670   4.941   0.093  0.6114  1.3666 -1.0982
   62MOL   H15223454   5.519   4.946   0.202  1.2062 -1.4360 -0.3172
   62MOL   H15323455   5.506   4.946   0.032 -0.7391  1.4215 -0.0732
   62MOL   C15423456   5.222   5.343   7.757 -0.0858  0.2947  0.4664
   62MOL   C15523457   5.072   5.395   7.725 -0.6560  0.8694  0.8095
   62MOL   O15623458   4.987   5.396   0.013  0.4632 -0.1319 -0.2138
   62MOL   C15723459   4.853   5.370   7.814  1.1652  0.1449 -0.1444
   62MOL   C15823460   4.788   5.326   0.124  0.3664  0.0237 -0.2024
   62MOL   C15923461   4.770   5.437   0.228  0.3998  0.5922 -0.3109
   62MOL   C16023462   4.657   5.252   0.121 -0.0094 -0.0490  0.5269
   62MOL   H16123463   5.282   5.331   7.667 -0.0339 -0.1441  0.5582
   62MOL   H16223464   5.261   5.415   0.004  2.5708 -2.2011  1.6554
   62MOL   H16323465   5.040   5.322   7.650 -0.2177  1.0558  0.4413
   62MOL   H16423466   4.857   5.288   7.743 -1.4501  0.7660 -1.0528
   62MOL   H16523467   4.813   5.459   7.765 -0.5509 -1.2038 -1.2268
   62MOL   H16623468   4.863   5.260   0.166  0.9397  0.1079 -1.0732
   62MOL   H16723469   4.724   5.391   0.316  1.7944 -1.3365 -0.5550
   62MOL   H16823470   4.699   5.508   0.185 -1.0739  0.2197  1.4347
   62MOL   H16923471   4.863   5.484   0.256  0.0695  2.3283 -2.0260
   62MOL   H17023472   4.659   5.167   0.052 -0.3827  1.5828 -1.5252
   62MOL   H17123473   4.616   5.211   0.213 -0.7052  0.0156  0.2425
   62MOL   H17223474   4.582   5.316   0.075 -0.7667 -0.2197  1.5170
   62MOL   C17323475   5.074   5.535   7.661  0.9416 -0.3752  0.2658
   62MOL   C17423476   5.112   5.529   7.518 -1.1574  0.9922 -0.9472
   62MOL   O17523477   4.996   5.521   7.442  0.1338 -0.2787 -0.0229
   62MOL   C17623478   4.964   5.415   7.358 -0.5213 -0.0054  0.2937
   62MOL   C17723479   4.818   5.424   7.311 -0.3608 -0.6343  0.7723
   62MOL   C17823480   4.769   5.329   7.197 -0.6504 -1.1722  0.0841
   62MOL   C17923481   4.735   5.401   7.441  0.2624  0.9376  0.2065
   62MOL   H18023482   4.972   5.572   7.656  0.6700 -0.8557  1.9820
   62MOL   H18123483   5.128   5.614   7.712 -0.6197  2.4261 -2.2208
   62MOL   H18223484   5.162   5.433   7.503  0.1391  1.3531  0.8710
   62MOL   H18323485   4.979   5.323   7.413 -0.0021 -0.3676 -0.4348
   62MOL   H18423486   5.031   5.404   7.273 -0.9959 -1.1050  0.0598
   62MOL   H18523487   4.811   5.528   7.279 -1.8414 -0.6849  0.9234
   62MOL   H18623488   4.661   5.331   7.183 -0.6425  0.2581  0.1776
   62MOL   H18723489   4.812   5.373   7.107  2.4988 -0.1550  2.0080
   62MOL   H18823490   4.803   5.226   7.207 -0.2111 -1.0982 -0.5789
   62MOL   H18923491   4.762   5.466   7.524  1.5049  0.3394  0.2854
   62MOL   H19023492   4.740   5.299   7.480  0.2610  0.5736 -0.7280
   62MOL   H19123493   4.631   5.425   7.421 -0.2801 -2.0408 -0.7654
   62MOL   C19223494   5.199   5.641   7.476  0.0227 -0.4341 -0.2899
   62MOL   C19323495   5.349   5.634   7.526  0.6558  0.0172 -0.3594
   62MOL   O19423496   5.402   5.767   7.529 -0.1030 -0.1184 -0.2960
   62MOL   C19523497   5.428   5.830   7.401 -0.0203 -1.3252 -0.0695
   62MOL   C19623498   5.420   5.989   7.412  0.3214  0.5595  0.4279
   62MOL   C19723499   5.287   6.022   7.460 -0.0592 -0.3972 -0.0454
   62MOL   C19823500   5.460   6.052   7.275 -0.0912  0.2401 -0.3475
   62MOL   H19923501   5.147   5.732   7.504  0.5749 -0.5313  1.1043
   62MOL   H20023502   5.196   5.658   7.368 -0.2934  2.3252  0.1346
   62MOL   H20123503   5.343   5.615   7.633 -2.0757  0.9450 -0.3042
   62MOL   H20223504   5.357   5.795   7.327 -0.7782  0.1665 -0.0793
   62MOL   H20323505   5.528   5.803   7.368  0.5303  0.4872  0.0241
   62MOL   H20423506   5.493   6.027   7.483  0.9649 -1.0540  0.6467
   62MOL   H20523507   5.211   5.962   7.410  0.0826 -0.3645 -0.2980
   62MOL   H20623508   5.278   5.993   7.565  0.8004  0.6189  0.3185
   62MOL   H20723509   5.268   6.128   7.444 -0.3276 -0.8188 -2.7474
   62MOL   H20823510   5.406   6.023   7.185  1.2682 -1.5052 -0.6128
   62MOL   H20923511   5.436   6.158   7.285  2.9258  0.8244  1.3851
   62MOL   H21023512   5.567   6.044   7.257 -0.1640 -1.1792 -0.1736
   62MOL   C21123513   5.438   5.524   7.465 -0.2673 -0.5066  0.2263
   62MOL   C21223514   5.544   5.461   7.562 -0.5591 -0.5613 -0.3033
   62MOL   O21323515   5.589   5.358   7.481  0.0736 -0.0936  0.4129
   62MOL   C21423516   5.633   5.238   7.553 -0.0461 -0.2480  0.3409
   62MOL   C21523517   5.628   5.124   7.454 -0.1458 -0.6288 -0.3635
   62MOL   C21623518   5.667   4.996   7.525 -0.8995  0.0640 -0.8042
   62MOL   C21723519   5.483   5.113   7.398  0.5886 -0.3495  0.0524
   62MOL   H21823520   5.487   5.563   7.375 -2.1823 -0.5731 -0.8735
   62MOL   H21923521   5.377   5.441   7.430  0.5036 -0.4784 -1.2590
   62MOL   H22023522   5.497   5.422   7.653  2.3353 -1.2261  0.9660
   62MOL   H22123523   5.567   5.210   7.635 -0.7252 -0.3685 -0.2484
   62MOL   H22223524   5.733   5.253   7.595  0.7160  0.9203 -1.8181
   62MOL   H22323525   5.704   5.147   7.379 -0.6836 -1.7102 -1.2585
   62MOL   H22423526   5.651   4.911   7.460 -0.1564 -1.9588  1.5950
   62MOL   H22523527   5.771   4.984   7.556 -0.8396  0.1163 -0.9856
   62MOL   H22623528   5.606   4.984   7.615  2.3435 -0.0032  1.4682
   62MOL   H22723529   5.450   5.209   7.359  0.0352 -0.0411  1.2660
   62MOL   H22823530   5.413   5.093   7.479 -0.8657 -0.1299 -1.1382
   62MOL   H22923531   5.475   5.036   7.322 -1.8443  0.7118 -0.7975
   62MOL   C23023532   5.657   5.545   7.617  0.9188  0.1758 -0.3295
   62MOL   C23123533   5.721   5.516   7.752  0.4666 -0.0974 -0.6706
   62MOL   O23223534   5.846   5.584   7.774 -0.0989  0.4731 -0.3430
   62MOL   C23323535   5.963   5.529   7.716 -0.1850  0.5478  0.0716
   62MOL   C23423536   6.053   5.455   0.000  0.4078 -0.8063 -0.3148
   62MOL   C23523537   6.111   5.565   0.100  0.1944  0.0790 -0.5097
   62MOL   C23623538   5.984   5.341   0.074 -0.0909 -0.0061 -0.3550
   62MOL   H23723539   5.632   5.651   7.622  1.7158  0.3358  0.6136
   62MOL   H23823540   5.741   5.550   7.547  0.1271 -1.8768 -1.4587
   62MOL   H23923541   5.739   5.410   7.769 -0.4696 -0.4940 -2.0201
   62MOL   H24023542   5.934   5.469   7.630 -0.4380  1.1629 -0.2709
   62MOL   H24123543   6.029   5.604   7.673 -0.0675  0.3037 -0.1788
   62MOL   H24223544   6.134   5.415   7.764  1.2294 -0.1893  0.3572
   62MOL   H24323545   6.154   5.527   0.193  3.5372  1.3262 -1.4934
   62MOL   H24423546   6.028   5.633   0.120 -1.5321 -2.0900 -0.1063
   62MOL   H24523547   6.188   5.618   0.045 -0.3381 -0.0172 -1.3494
   62MOL   H24623548   6.052   5.273   0.125  2.1509  1.9646 -0.6259
   62MOL   H24723549   5.899   5.365   0.137  1.5922  3.6747  0.6028
   62MOL   H24823550   5.942   5.278   7.820  0.5539 -0.7161 -0.1363
   62MOL   C24923551   5.632   5.557   0.053  0.5682 -0.3056  0.1906
   62MOL   C25023552   5.596   5.708   0.068 -0.3102  0.3727 -0.7792
   62MOL   O25123553   5.475   5.719   0.141  0.0358 -0.0211 -0.1024
   62MOL   C25223554   5.387   5.822   0.099  0.7321 -0.2365 -0.1149
   62MOL   C25323555   5.267   5.836   0.197 -0.4626 -0.4941  0.0721
   62MOL   C25423556   5.192   5.708   0.225  0.1864 -0.0849  0.6005
   62MOL   C25523557   5.169   5.945   0.148 -0.1061  0.6017 -0.1290
   62MOL   H25623558   5.682   5.531   0.146  0.1803  0.8852  0.7420
   62MOL   H25723559   5.536   5.508   0.047  0.3086  0.3887 -1.8471
   62MOL   H25823560   5.576   5.748   7.793 -0.1202 -0.8224 -1.3011
   62MOL   H25923561   5.445   5.910   0.072  1.1133 -1.1730 -2.4247
   62MOL   H26023562   5.350   5.792   0.001 -0.5638  1.5811 -0.2192
   62MOL   H26123563   5.321   5.875   0.283 -0.4935 -0.3269  0.0169
   62MOL   H26223564   5.120   5.714   0.306  0.2121 -3.1208  0.8883
   62MOL   H26323565   5.265   5.631   0.252  0.2630 -0.0161  0.5888
   62MOL   H26423566   5.139   5.663   0.141 -2.7245  1.0987  1.7595
   62MOL   H26523567   5.184   5.961   0.041  1.6585  0.2558  0.0522
   62MOL   H26623568   5.066   5.910   0.151 -0.2208  0.9636  0.2828
   62MOL   H26723569   5.185   6.031   0.213  1.9118 -0.0029  0.2142
   62MOL   C26823570   5.703   5.804   0.137 -0.5718  0.1268 -0.3588
   62MOL   C26923571   5.796   5.888   0.048 -0.3622  0.4112 -0.5209
   62MOL   O27023572   5.862   5.968   0.145  0.1355 -0.5534 -0.0761
   62MOL   C27123573   6.005   5.976   0.144 -0.2477  0.1637 -0.2961
   62MOL   C27223574   6.042   6.038   0.282 -0.8905 -0.5452 -0.1944
   62MOL   C27323575   6.195   6.025   0.308  0.6766  0.0200 -0.1644
   62MOL   C27423576   5.992   6.184   0.287  0.0557 -0.1858  0.1643
   62MOL   H27523577   5.762   5.740   0.204 -3.1762 -2.8337 -0.7485
   62MOL   H27623578   5.642   5.857   0.210 -0.2684  1.3559 -0.9883
   62MOL   H27723579   5.877   5.828   0.008 -0.2670  0.9901 -1.2082
   62MOL   H27823580   6.049   5.877   0.128  0.0414  0.1013  0.8520
   62MOL   H27923581   6.040   6.031   0.056  1.0495 -2.6839 -1.6308
   62MOL   H28023582   5.993   5.982   0.362 -1.2231  1.5073  1.0595
   62MOL   H28123583   6.258   6.039   0.220 -0.1199  1.9938 -0.4528
   62MOL   H28223584   6.219   5.925   0.345  1.0433  0.1776  0.0260
   62MOL   H28323585   6.216   6.104   0.380  0.5389  0.4742 -0.6231
   62MOL   H28423586   5.884   6.191   0.273 -0.0863 -2.8305 -0.3396
   62MOL   H28523587   6.039   6.254   0.217 -1.8139  0.4987 -0.4207
   62MOL   H28623588   6.021   6.220   0.385 -0.5861  1.1430 -0.1228
   62MOL   C28723589   5.728   5.973   7.768  0.3187  0.3057 -0.4821
   62MOL   C28823590   5.825   6.069   7.693 -0.5392 -0.2315  0.3063
   62MOL   O28923591   5.734   6.130   7.601  0.3308  0.2294  0.4212
   62MOL   C29023592   5.681   6.247   7.653  0.5362 -0.6279 -0.2290
   62MOL   C29123593   5.594   6.325   7.551 -0.4649  0.8857 -0.5973
   62MOL   C29223594   5.668   6.375   7.437  0.2694 -0.1875 -0.1385
   62MOL   C29323595   5.506   6.431   7.613  0.3239 -0.1644  0.5234
   62MOL   H29423596   5.652   6.031   7.820  0.0503  0.1172 -0.6605
   62MOL   H29523597   5.678   5.906   7.698 -1.8948 -0.1698  1.4987
   62MOL   H29623598   5.871   6.139   7.762  0.3986 -0.8411  0.3103
   62MOL   H29723599   5.608   6.209   7.724  0.1852 -3.5587 -2.0697
   62MOL   H29823600   5.752   6.312   7.703 -1.1113  1.2342 -0.2048
   62MOL   H29923601   5.523   6.251   7.516 -2.3192  2.6137 -0.5784
   62MOL   H30023602   5.605   6.442   7.378  0.1861  0.6471  0.8894
   62MOL   H30123603   5.709   6.297   7.373 -2.0568 -1.9494  0.4743
   62MOL   H30223604   5.756   6.422   7.481 -0.0348  1.7757 -1.5889
   62MOL   H30323605   5.476   6.503   7.538 -2.3938 -0.6534  1.0705
   62MOL   H30423606   5.416   6.388   7.657 -1.7952  2.0477 -1.5416
   62MOL   H30523607   5.545   6.491   7.696 -0.5852  1.3674 -0.1318
   62MOL   C30623608   5.933   5.994   7.605 -0.5363 -0.4408 -0.9607
   62MOL   C30723609   6.055   6.080   7.577 -0.2106 -0.4116 -0.7228
   62MOL   O30823610   6.158   6.001   7.535  0.0053 -0.1343 -0.0562
   62MOL   C30923611   6.265   5.980   7.631  0.3018 -0.5995  0.6651
   62MOL   C31023612   6.373   5.875   7.576 -0.3317  0.2861  0.9411
   62MOL   C31123613   6.389   5.882   7.423 -0.4183 -0.2762 -0.3827
   62MOL   C31223614   6.329   5.739   7.610 -0.3210 -0.2044 -0.7647
   62MOL   H31323615   5.884   5.945   7.522 -1.0209 -1.4647 -0.0883
   62MOL   H31423616   5.971   5.913   7.667  0.0049  1.2115  0.9235
   62MOL   H31523617   6.082   6.127   7.671  3.0270 -1.6091 -1.0039
   62MOL   H31623618   6.226   5.949   7.728 -1.0421 -1.1167 -0.0301
   62MOL   H31723619   6.308   6.079   7.646 -1.2566 -0.0385  1.6688
   62MOL   H31823620   6.466   5.890   7.629  0.0911  0.0429  0.2787
   62MOL   H31923621   6.424   5.980   7.392 -2.6858  0.6287 -0.1423
   62MOL   H32023622   6.303   5.882   7.357 -2.0873  0.9794  1.7544
   62MOL   H32123623   6.463   5.825   7.366 -0.2047 -0.8258  0.4287
   62MOL   H32223624   6.240   5.707   7.555 -0.7580  1.0715 -0.8193
   62MOL   H32323625   6.290   5.739   7.712 -2.8618  0.0479 -1.6918
   62MOL   H32423626   6.399   5.656   7.612 -1.7053 -1.3806 -0.9183
   62MOL   C32523627   6.013   6.191   7.475  0.7372 -0.0840 -0.1559
   62MOL   C32623628   6.107   6.307   7.455  0.4416 -0.4759  0.3259
   62MOL   O32723629   6.113   6.398   7.559  0.0378  0.5871  0.2071
   62MOL   C32823630   6.040   6.526   7.543 -0.4988 -0.3619 -0.2762
   62MOL   C32923631   6.127   6.626   7.626  0.6409  0.9082  0.9839
   62MOL   C33023632   6.121   6.771   7.595 -0.5752  0.9323 -0.1458
   62MOL   C33123633   6.082   6.608   7.769  0.5959  0.1225 -0.7152
   62MOL   H33223634   5.925   6.238   7.517  0.8349  0.1105 -0.1670
   62MOL   H33323635   5.992   6.146   7.378  2.1733  1.6357 -1.2989
   62MOL   H33423636   6.068   6.355   7.365  0.9535  2.1412  1.4418
   62MOL   H33523637   6.035   6.558   7.438  1.6254  3.2619  0.6390
   62MOL   H33623638   5.939   6.515   7.582  0.0055 -4.1034  0.2321
   62MOL   H33723639   6.230   6.590   7.614  0.6105  0.6733  1.4176
   62MOL   H33823640   6.144   6.782   7.489 -0.0946  0.8416 -0.0553
   62MOL   H33923641   6.038   6.832   7.628  0.3670  2.0934  0.1065
   62MOL   H34023642   6.199   6.824   7.649 -0.4404  1.2300 -0.6314
   62MOL   H34123643   6.117   6.511   7.806  1.1091  0.1984 -0.9928
   62MOL   H34223644   6.128   6.679   0.012  1.4402 -0.4344 -0.6985
   62MOL   H34323645   5.974   6.617   7.777  0.5909  0.1483 -0.8110
   62MOL   C34423646   6.253   6.264   7.419  0.8457  0.0827 -0.1765
   62MOL   C34523647   6.342   6.381   7.390 -0.7226 -0.0242  0.5640
   62MOL   O34623648   6.480   6.356   7.435 -0.1722  0.4702 -0.3132
   62MOL   C34723649   6.492   6.383   7.570 -0.0673 -0.4703  0.2159
   62MOL   C34823650   6.639   6.354   7.618  0.0759 -0.3691  0.3742
   62MOL   C34923651   6.742   6.418   7.527  0.7697 -0.4064  0.2733
   62MOL   C35023652   6.660   6.201   7.624 -0.1114  0.6952 -0.3025
   62MOL   H35123653   6.247   6.197   7.334 -1.0749  0.5668 -0.4517
   62MOL   H35223654   6.286   6.207   7.506  1.9964  1.2930  0.2092
   62MOL   H35323655   6.310   6.476   7.433 -1.2478  0.2269 -0.3682
   62MOL   H35423656   6.411   6.332   7.622  1.0694 -0.9956  1.4816
   62MOL   H35523657   6.481   6.488   7.594  2.0220 -0.3838  0.8914
   62MOL   H35623658   6.636   6.395   7.719  0.4978  0.2444  0.1417
   62MOL   H35723659   6.747   6.368   7.430  0.7754  0.2531 -0.0650
   62MOL   H35823660   6.839   6.397   7.571  0.2546 -1.2030  1.0467
   62MOL   H35923661   6.732   6.525   7.512  1.5910 -0.2867  0.5835
   62MOL   H36023662   6.582   6.152   7.683  1.3430  0.7737  1.7300
   62MOL   H36123663   6.682   6.161   7.525 -1.6123 -4.1553  1.1673
   62MOL   H36223664   6.744   6.177   7.688  0.4837  2.0476 -0.5803
   62MOL   C36323665   6.359   6.413   7.240 -0.1631  0.0020 -1.0570
   62MOL   C36423666   6.233   6.451   7.161  0.5621  0.4706  0.6117
   62MOL   O36523667   6.167   6.328   7.128  0.0278  0.5083 -0.5038
   62MOL   C36623668   6.043   6.351   7.055  0.5792 -0.5392 -0.2393
   62MOL   C36723669   5.981   6.214   7.014  0.1736  0.6186  0.4790
   62MOL   C36823670   6.052   6.151   6.897  0.2927  0.0902 -0.2253
   62MOL   C36923671   5.827   6.226   6.988 -0.3256 -0.4448 -0.2733
   62MOL   H37023672   6.436   6.490   7.231 -0.6246  0.8131  1.4984
   62MOL   H37123673   6.406   6.331   7.186  0.1007  0.1958 -1.1251
   62MOL   H37223674   6.260   6.500   7.068  3.3202 -0.5835  0.8029
   62MOL   H37323675   5.972   6.407   7.116  0.5995  1.9516 -2.4089
   62MOL   H37423676   6.061   6.410   6.965 -2.8758 -0.4140 -0.8937
   62MOL   H37523677   5.993   6.148   7.100 -0.2690 -0.2791 -0.1548
   62MOL   H37623678   6.048   6.217   6.810 -0.4422  2.7275  1.7687
   62MOL   H37723679   6.011   6.054   6.867  0.5517  0.3117 -1.3243
   62MOL   H37823680   6.157   6.149   6.923  0.4803  4.0644 -0.4594
   62MOL   H37923681   5.791   6.291   6.908 -2.8564 -0.2982  0.9427
   62MOL   H38023682   5.792   6.260   7.086  1.5919 -1.5170  0.8052
   62MOL   H38123683   5.800   6.122   6.967 -1.1132 -0.2041 -0.4883
   62MOL   H38223684   6.170   6.517   7.221  2.4457  2.4336  0.5388
   63MOL     C123685   4.649   5.880   1.808  0.2459  0.5380 -0.3257
   63MOL     C223686   4.657   5.897   1.958  0.0328 -0.1379  0.3979
   63MOL     O323687   4.740   5.798   2.018  0.1112 -0.1581  0.5181
   63MOL     C423688   4.675   5.677   2.035 -0.1491 -0.0152  0.6069
   63MOL     C523689   4.761   5.575   2.111  0.3965 -0.3169  0.0595
   63MOL     C623690   4.897   5.545   2.047 -0.1472 -0.0760 -0.1914
   63MOL     C723691   4.666   5.454   2.131 -0.1238  0.0111  0.1301
   63MOL     H823692   4.607   5.967   1.758  1.0352  0.9483 -0.2722
   63MOL     H923693   4.746   5.866   1.762 -0.2167 -1.3540 -0.7663
   63MOL    H1023694   4.554   5.896   1.992  0.0311  1.5414  0.4556
   63MOL    H1123695   4.647   5.641   1.936 -1.9664  0.0487  1.0657
   63MOL    H1223696   4.576   5.689   2.079 -1.7043  1.3968 -3.1086
   63MOL    H1323697   4.791   5.602   2.212  1.6186 -0.5593 -0.2391
   63MOL    H1423698   4.930   5.642   2.010  1.0043 -1.7265 -3.7853
   63MOL    H1523699   4.967   5.499   2.117  1.2046  0.5357 -1.1038
   63MOL    H1623700   4.893   5.474   1.964  0.8884  0.1079 -0.4050
   63MOL    H1723701   4.623   5.408   2.042  0.6691 -1.1789  0.3471
   63MOL    H1823702   4.729   5.373   2.169 -1.4367 -1.3074 -0.4697
   63MOL    H1923703   4.591   5.479   2.206 -1.5064  1.0556 -1.5858
   63MOL    H2023704   4.584   5.801   1.770  0.6207  0.6254 -1.1542
   63MOL    C2123705   4.727   6.030   2.004  0.2578  0.2789 -0.3676
   63MOL    C2223706   4.718   6.062   2.162  0.3295  0.3997  0.1243
   63MOL    O2323707   4.842   6.096   2.218  0.1818  1.1730  0.0148
   63MOL    C2423708   4.948   5.995   2.229  0.5333 -0.0807  0.3873
   63MOL    C2523709   4.927   5.866   2.319  0.5514  0.4698 -0.0562
   63MOL    C2623710   5.053   5.772   2.325  0.2659  0.3623  1.1651
   63MOL    C2723711   4.868   5.900   2.450 -0.4585  0.4594 -0.4073
   63MOL    H2823712   4.831   6.038   1.970  0.9204 -0.1395  1.4663
   63MOL    H2923713   4.669   6.106   1.952  0.9907  1.8265  1.0465
   63MOL    H3023714   4.686   5.971   2.215  1.4676  0.4193  0.8638
   63MOL    H3123715   5.026   6.054   2.274  1.0752  2.0832 -3.1827
   63MOL    H3223716   4.975   5.967   2.127  3.5640 -0.5608  1.2886
   63MOL    H3323717   4.839   5.818   2.276 -0.2975  2.3731 -0.4839
   63MOL    H3423718   5.145   5.814   2.366 -0.5266  1.9037  1.3922
   63MOL    H3523719   5.076   5.736   2.224 -1.1532 -1.0842  1.3455
   63MOL    H3623720   5.024   5.687   2.387  0.2967 -0.8703 -0.4643
   63MOL    H3723721   4.765   5.933   2.437 -0.4297  1.2193  1.2435
   63MOL    H3823722   4.880   5.812   2.514 -2.5342  0.2484 -0.2835
   63MOL    H3923723   4.928   5.976   2.499 -0.4537  0.6008 -0.6320
   63MOL    C4023724   4.629   6.180   2.210 -0.6591 -0.8054  0.4113
   63MOL    C4123725   4.480   6.158   2.199  0.6586 -0.2659 -0.0478
   63MOL    O4223726   4.406   6.283   2.210 -0.0849  0.2389  0.8946
   63MOL    C4323727   4.374   6.335   2.087 -0.2787  0.8735 -0.4390
   63MOL    C4423728   4.290   6.455   2.138 -0.5276  0.0815 -0.7303
   63MOL    C4523729   4.260   6.563   2.035 -0.4909 -0.1748  0.0892
   63MOL    C4623730   4.168   6.411   2.217  0.2266 -0.1274 -1.1786
   63MOL    H4723731   4.660   6.271   2.159  0.5129 -2.5098 -2.0502
   63MOL    H4823732   4.656   6.206   2.312  2.1565 -0.3049 -0.4019
   63MOL    H4923733   4.465   6.118   2.099 -1.3716  1.9107 -0.6548
   63MOL    H5023734   4.308   6.270   2.030 -1.7114  1.7559  0.1736
   63MOL    H5123735   4.451   6.368   2.016 -0.4207  1.0645 -0.5056
   63MOL    H5223736   4.354   6.515   2.203 -1.8815 -0.6669  1.3473
   63MOL    H5323737   4.198   6.644   2.071 -0.9846 -0.3891 -0.2780
   63MOL    H5423738   4.357   6.602   2.003 -1.4489  1.0046 -1.4015
   63MOL    H5523739   4.203   6.527   1.950  1.4437 -0.5868 -1.0799
   63MOL    H5623740   4.198   6.349   2.301 -1.1235 -0.7227 -1.1373
   63MOL    H5723741   4.107   6.350   2.150  1.4405 -0.7204 -1.7604
   63MOL    H5823742   4.124   6.501   2.259 -2.0526 -1.1732 -1.2341
   63MOL    C5923743   4.428   6.078   2.317  0.3457 -0.1515 -0.6022
   63MOL    C6023744   4.298   6.013   2.287 -0.6845  0.4697  0.5828
   63MOL    O6123745   4.239   5.964   2.408  0.3849  0.2529 -0.0338
   63MOL    C6223746   4.177   6.055   2.491 -0.0465  0.5809  0.1859
   63MOL    C6323747   4.097   5.990   2.609 -0.2306  0.1648  0.6235
   63MOL    C6423748   3.974   5.909   2.551  0.0651  0.4426 -0.2475
   63MOL    C6523749   4.175   5.902   2.706  0.2879  0.2292 -0.1540
   63MOL    H6623750   4.423   6.150   2.399 -2.4503  0.1930 -1.0261
   63MOL    H6723751   4.504   6.008   2.352 -0.4664 -0.0899  1.3417
   63MOL    H6823752   4.238   6.086   2.234  0.4991  1.8385  1.0803
   63MOL    H6923753   4.246   6.126   2.536  0.0074 -0.1950  1.3498
   63MOL    H7023754   4.116   6.122   2.430  2.0769  2.2182 -0.1988
   63MOL    H7123755   4.065   6.076   2.667  0.9687  0.9444  0.1696
   63MOL    H7223756   4.004   5.813   2.508 -0.2251 -0.4631  1.5237
   63MOL    H7323757   3.924   5.969   2.475 -0.3311 -1.3341 -1.4303
   63MOL    H7423758   3.903   5.874   2.625 -1.2127  1.3360 -1.0426
   63MOL    H7523759   4.169   5.798   2.672  1.3103 -0.8017  2.7165
   63MOL    H7623760   4.281   5.925   2.709  0.4027  0.0639 -1.9395
   63MOL    H7723761   4.144   5.911   2.810  0.1772  0.2515 -0.1887
   63MOL    C7823762   4.311   5.885   2.214 -0.2082 -0.4296  0.7837
   63MOL    C7923763   4.186   5.798   2.177 -0.6014  0.5949  0.0505
   63MOL    O8023764   4.092   5.864   2.094  0.0411  0.1367  0.7108
   63MOL    C8123765   3.957   5.848   2.138 -0.7983 -0.2802  0.8400
   63MOL    C8223766   3.866   5.946   2.077  0.4365  0.0743 -0.4095
   63MOL    C8323767   3.871   5.915   1.928  0.2815 -0.2274  0.1556
   63MOL    C8423768   3.904   6.081   2.125  0.6853 -0.2265 -0.0139
   63MOL    H8523769   4.380   5.827   2.274 -1.4060  0.5053  3.1183
   63MOL    H8623770   4.357   5.909   2.118  0.2734 -0.4021  1.0188
   63MOL    H8723771   4.143   5.786   2.277  0.0116  1.4349  0.4348
   63MOL    H8823772   3.911   5.754   2.107  0.0866 -0.0540 -1.1698
   63MOL    H8923773   3.951   5.860   2.247 -0.5116  1.3131  0.6829
   63MOL    H9023774   3.767   5.919   2.114  0.1542 -0.6210 -1.6672
   63MOL    H9123775   3.834   5.813   1.912  0.6331 -0.3820  0.3272
   63MOL    H9223776   3.971   5.930   1.890  0.7463 -1.4970  0.8426
   63MOL    H9323777   3.798   5.975   1.874  0.3661 -1.5173 -1.4377
   63MOL    H9423778   3.821   6.149   2.104  1.2342  0.6528  0.6065
   63MOL    H9523779   3.994   6.123   2.079  0.6228  1.0969  1.0403
   63MOL    H9623780   3.913   6.104   2.231 -1.7575  0.8852  0.0020
   63MOL    C9723781   4.220   5.656   2.125 -0.0013  0.5096  0.4865
   63MOL    C9823782   4.227   5.547   2.226 -0.0573 -0.6693 -0.2815
   63MOL    O9923783   4.341   5.561   2.314  0.2036 -0.1972 -0.1392
   63MOL   C10023784   4.314   5.599   2.450  0.2034  0.0842 -0.2064
   63MOL   C10123785   4.429   5.624   2.547  0.0951  0.4246  0.2056
   63MOL   C10223786   4.506   5.494   2.586  0.1177  0.8058  0.0180
   63MOL   C10323787   4.523   5.732   2.493 -0.2920 -0.6493  0.2050
   63MOL   H10423788   4.313   5.661   2.068  0.4953 -0.0587  1.2350
   63MOL   H10523789   4.146   5.626   2.051 -0.4993 -0.6715  1.4279
   63MOL   H10623790   4.134   5.544   2.283 -1.1036  0.2510 -1.9212
   63MOL   H10723791   4.240   5.530   2.492  0.4871  0.0815  0.2933
   63MOL   H10823792   4.257   5.692   2.452 -0.7302 -0.4865  0.3836
   63MOL   H10923793   4.376   5.661   2.634  1.2108 -1.3054  1.6479
   63MOL   H11023794   4.588   5.503   2.657  1.5808  1.0368 -1.6646
   63MOL   H11123795   4.437   5.426   2.638  0.3656  0.4544 -0.1100
   63MOL   H11223796   4.535   5.436   2.499 -1.5769  0.3840 -0.2978
   63MOL   H11323797   4.475   5.830   2.489 -0.7521 -0.7488  2.6679
   63MOL   H11423798   4.608   5.740   2.560  0.5458 -2.0457 -0.6778
   63MOL   H11523799   4.568   5.709   2.397  0.8400  1.4173  0.2179
   63MOL   C11623800   4.254   5.414   2.150 -0.4606 -0.1263 -0.6977
   63MOL   C11723801   4.150   5.354   2.053 -0.4416 -0.3272  0.1809
   63MOL   O11823802   4.182   5.226   1.998 -0.1039  0.1005  0.0602
   63MOL   C11923803   4.291   5.217   1.910 -0.1327  0.0313 -0.3500
   63MOL   C12023804   4.288   5.073   1.853 -0.9845 -0.3063  0.3831
   63MOL   C12123805   4.292   4.961   1.961  0.4031 -0.8190 -0.3876
   63MOL   C12223806   4.164   5.066   1.757  0.7488 -0.1307  0.1345
   63MOL   H12323807   4.342   5.436   2.089 -0.3792 -0.2059 -0.6101
   63MOL   H12423808   4.283   5.332   2.216 -0.8365 -1.2685 -1.9265
   63MOL   H12523809   4.138   5.424   1.970  0.4219 -2.0938 -1.4808
   63MOL   H12623810   4.386   5.241   1.958  0.3337 -0.5637 -0.9478
   63MOL   H12723811   4.280   5.288   1.827 -0.1157  2.0077  1.3003
   63MOL   H12823812   4.384   5.056   1.805 -1.4458  0.5180 -0.8443
   63MOL   H12923813   4.204   4.963   2.025  0.2441 -0.3095 -0.6241
   63MOL   H13023814   4.388   4.971   2.012  1.1576  1.4203 -2.1763
   63MOL   H13123815   4.292   4.864   1.910  0.0642 -0.4397 -1.1130
   63MOL   H13223816   4.098   5.152   1.763 -0.8510 -1.1238 -2.2624
   63MOL   H13323817   4.206   5.059   1.656  2.0013 -0.1941  0.6523
   63MOL   H13423818   4.099   4.982   1.783  0.4543  0.2729  0.6903
   63MOL   C13523819   4.013   5.341   2.120 -0.8266  0.4400 -0.2605
   63MOL   C13623820   3.904   5.265   2.049  0.4928 -0.0578  0.6411
   63MOL   O13723821   3.799   5.239   2.138  0.4843 -0.7052 -0.2823
   63MOL   C13823822   3.813   5.138   2.237 -0.3008  0.2926 -0.4483
   63MOL   C13923823   3.672   5.112   2.290  0.9592  0.7984 -0.6255
   63MOL   C14023824   3.671   4.964   2.356  0.8616 -0.4642  0.2665
   63MOL   C14123825   3.615   5.223   2.380  0.3941 -0.1038  0.1830
   63MOL   H14223826   4.021   5.301   2.222 -2.8299 -1.7333 -0.9167
   63MOL   H14323827   3.976   5.442   2.132 -0.2421  0.6444 -0.1683
   63MOL   H14423828   3.926   5.170   2.002 -1.0580 -0.8133  1.4028
   63MOL   H14523829   3.871   5.167   2.325 -0.4026 -0.7983 -0.0071
   63MOL   H14623830   3.862   5.050   2.196  1.2344  0.1125  1.6764
   63MOL   H14723831   3.598   5.113   2.211 -0.3585  1.5773  0.5865
   63MOL   H14823832   3.746   4.974   2.434  0.6333  1.2175  0.2975
   63MOL   H14923833   3.700   4.884   2.288  0.7398  0.2557 -0.6513
   63MOL   H15023834   3.574   4.940   2.399  0.2320 -0.8147 -1.3030
   63MOL   H15123835   3.545   5.283   2.321  1.7124  0.4149 -0.8806
   63MOL   H15223836   3.556   5.192   2.466  1.1851  0.5622  0.9846
   63MOL   H15323837   3.691   5.293   2.415 -2.1734  1.3480  3.2007
   63MOL   C15423838   3.829   5.355   1.944 -0.5849  0.0124  0.1878
   63MOL   C15523839   3.726   5.293   1.845 -0.1463 -0.3694  0.1439
   63MOL   O15623840   3.648   5.401   1.784 -0.1150  0.5648 -0.2939
   63MOL   C15723841   3.507   5.386   1.772 -0.2429 -0.4407  0.1845
   63MOL   C15823842   3.436   5.517   1.746  0.2778 -0.6037 -0.6680
   63MOL   C15923843   3.458   5.624   1.852  0.3668  0.6992  0.1170
   63MOL   C16023844   3.472   5.568   1.598 -0.0526  0.0498 -0.1166
   63MOL   H16123845   3.908   5.396   1.881  0.2233  1.9098  2.3546
   63MOL   H16223846   3.791   5.437   2.005  1.2555 -0.3577  1.8737
   63MOL   H16323847   3.668   5.250   1.926 -1.6138 -0.8493 -1.1478
   63MOL   H16423848   3.467   5.338   1.861  0.0821  2.0174  1.7088
   63MOL   H16523849   3.472   5.319   1.694 -2.4100  2.9234 -1.8412
   63MOL   H16623850   3.327   5.505   1.740  0.2453 -0.7966  0.3641
   63MOL   H16723851   3.563   5.653   1.854  0.4384  0.3318  1.6570
   63MOL   H16823852   3.426   5.595   1.952  2.0573 -0.3328  0.3691
   63MOL   H16923853   3.409   5.711   1.807 -0.2976  1.3828  2.1104
   63MOL   H17023854   3.414   5.657   1.572  1.4044  1.3792  1.1016
   63MOL   H17123855   3.576   5.599   1.598 -0.7630  2.6460  2.5212
   63MOL   H17223856   3.451   5.490   1.524  0.4294 -1.2891  1.1527
   63MOL   C17323857   3.784   5.187   1.750  0.1109 -0.6290 -0.2072
   63MOL   C17423858   3.682   5.096   1.683  0.5523  0.1671  0.6653
   63MOL   O17523859   3.761   5.000   1.608 -0.5308 -0.3017  0.7994
   63MOL   C17623860   3.778   5.025   1.472 -0.0638  0.4471  1.1341
   63MOL   C17723861   3.844   4.907   1.401  0.5650 -0.0374 -0.0134
   63MOL   C17823862   3.852   4.931   1.249 -0.4088 -0.2447 -0.2401
   63MOL   C17923863   3.990   4.890   1.444 -0.7763 -0.0577 -0.4207
   63MOL   H18023864   3.845   5.242   1.677  0.1432 -1.7297 -1.0282
   63MOL   H18123865   3.861   5.128   1.799  0.0733 -0.7146 -0.2512
   63MOL   H18223866   3.619   5.150   1.612  2.2582  0.0479 -0.9814
   63MOL   H18323867   3.834   5.117   1.451  1.9341 -0.6358  1.5695
   63MOL   H18423868   3.682   5.058   1.432  0.8050 -0.9077 -2.2330
   63MOL   H18523869   3.795   4.813   1.429 -1.6181  0.9484 -0.4684
   63MOL   H18623870   3.755   4.910   1.203  0.0772  1.4834 -2.0955
   63MOL   H18723871   3.893   5.026   1.218 -0.5379  0.2731  1.1616
   63MOL   H18823872   3.924   4.858   1.211 -1.1101 -0.9070 -0.3229
   63MOL   H18923873   3.998   4.849   1.544  0.3692  1.6079  0.1982
   63MOL   H19023874   4.051   4.980   1.432 -0.1216  0.0192  2.9131
   63MOL   H19123875   4.046   4.824   1.379  0.9249 -0.1032  1.0802
   63MOL   C19223876   3.585   5.014   1.782 -0.2920  0.4399 -0.0797
   63MOL   C19323877   3.488   4.928   1.711  0.3460  0.1811 -0.3228
   63MOL   O19423878   3.395   5.024   1.661  0.9557  0.1474 -0.0114
   63MOL   C19523879   3.367   4.999   1.526  0.0228  0.3362  0.4809
   63MOL   C19623880   3.279   5.107   1.465 -0.0314 -0.1938 -0.0164
   63MOL   C19723881   3.147   5.137   1.544 -0.4148  0.1319  0.3876
   63MOL   C19823882   3.261   5.079   1.317 -0.3898  0.1915 -0.2772
   63MOL   H19923883   3.534   5.087   1.846 -0.4321  0.3323 -0.0698
   63MOL   H20023884   3.644   4.963   1.858 -1.3889 -0.7707 -0.0390
   63MOL   H20123885   3.548   4.873   1.638 -2.1512  0.6305 -2.8218
   63MOL   H20223886   3.324   4.900   1.506 -0.5540  0.7298 -0.2622
   63MOL   H20323887   3.456   4.995   1.463 -2.1568  2.0271 -2.8627
   63MOL   H20423888   3.336   5.199   1.480  1.2118 -0.5286 -2.4526
   63MOL   H20523889   3.062   5.069   1.543  0.4110 -0.9034 -0.2030
   63MOL   H20623890   3.175   5.122   1.648 -1.5592  2.1186  1.0274
   63MOL   H20723891   3.112   5.240   1.534 -2.9900 -0.5808  1.5998
   63MOL   H20823892   3.218   5.169   1.273 -0.2679  0.4009  0.0236
   63MOL   H20923893   3.355   5.065   1.264 -0.5672  1.5267 -0.9743
   63MOL   H21023894   3.189   4.999   1.302 -1.7896  1.5039 -0.6248
   63MOL   C21123895   3.412   4.819   1.803 -0.8218 -0.5492  0.0749
   63MOL   C21223896   3.491   4.692   1.820  0.0465 -0.1590  0.8189
   63MOL   O21323897   3.605   4.732   1.900 -0.3335 -0.1782  0.0233
   63MOL   C21423898   3.725   4.677   1.850 -0.7635  0.0816  0.0822
   63MOL   C21523899   3.840   4.707   1.942  0.1342 -0.1312 -0.4361
   63MOL   C21623900   3.884   4.854   1.973 -0.0239 -0.5579  0.0600
   63MOL   C21723901   3.824   4.624   2.070 -0.8602  0.2641 -0.4241
   63MOL   H21823902   3.320   4.807   1.746 -1.4495  2.7625  0.2762
   63MOL   H21923903   3.392   4.862   1.901  2.4469 -0.0047  0.5648
   63MOL   H22023904   3.516   4.658   1.720 -0.5473 -0.8320  0.8996
   63MOL   H22123905   3.754   4.713   1.751  2.8854  0.6075  1.2724
   63MOL   H22223906   3.715   4.570   1.836 -2.5771 -0.0803  2.3837
   63MOL   H22323907   3.925   4.657   1.895  0.0357 -0.3774 -0.3556
   63MOL   H22423908   3.799   4.895   2.027 -2.0383 -3.0933 -1.0952
   63MOL   H22523909   3.970   4.866   2.040 -0.5718  0.8318  0.5281
   63MOL   H22623910   3.888   4.900   1.875  3.0026 -3.5626 -1.3415
   63MOL   H22723911   3.919   4.634   2.123 -0.8110  1.2238 -0.6889
   63MOL   H22823912   3.811   4.520   2.042 -2.0344  0.2806  0.0336
   63MOL   H22923913   3.732   4.642   2.126  0.0576 -0.9574  1.5347
   63MOL   C23023914   3.409   4.581   1.885 -0.1342 -0.2814 -0.0071
   63MOL   C23123915   3.328   4.626   2.003 -0.3518  0.3617 -0.1637
   63MOL   O23223916   3.239   4.518   2.040  0.3021 -0.2899  0.5168
   63MOL   C23323917   3.109   4.541   1.994  0.3358 -0.8239  0.5083
   63MOL   C23423918   3.019   4.417   2.030 -0.3324  0.2407  0.3986
   63MOL   C23523919   2.871   4.449   2.034 -0.6338  0.1457 -0.0040
   63MOL   C23623920   3.044   4.291   1.937  0.8379  0.0042 -0.2892
   63MOL   H23723921   3.464   4.495   1.923 -1.5849 -0.3023  2.1540
   63MOL   H23823922   3.337   4.535   1.817  0.3934 -0.7545 -0.2481
   63MOL   H23923923   3.267   4.715   1.986  1.5725  1.5752 -0.8858
   63MOL   H24023924   3.069   4.639   2.021  3.7492  0.7802  0.0316
   63MOL   H24123925   3.110   4.543   1.885 -1.1192 -2.6580  0.4391
   63MOL   H24223926   3.040   4.392   2.134 -1.9946  0.4460  0.8123
   63MOL   H24323927   2.828   4.349   2.045 -3.5780  1.1863 -1.5675
   63MOL   H24423928   2.823   4.489   1.945  0.0642  0.1192 -0.3871
   63MOL   H24523929   2.853   4.524   2.111 -1.5638 -0.5556  0.4811
   63MOL   H24623930   3.015   4.302   1.832 -1.9185 -0.0328  0.4201
   63MOL   H24723931   3.152   4.277   1.944  0.8960  1.0592  1.3244
   63MOL   H24823932   2.991   4.204   1.975  0.0297  0.7696  0.3567
   63MOL   C24923933   3.417   4.636   2.137 -0.7938  0.7043  0.1418
   63MOL   C25023934   3.337   4.699   2.257  0.4567 -0.2111  0.0474
   63MOL   O25123935   3.421   4.688   2.375  0.0901 -0.0432 -0.6049
   63MOL   C25223936   3.369   4.579   2.460  0.1792  0.2881  0.3873
   63MOL   C25323937   3.466   4.558   2.579 -0.5239 -0.2360  0.2682
   63MOL   C25423938   3.602   4.517   2.526 -0.5178 -0.4063 -0.2566
   63MOL   C25523939   3.401   4.458   2.677 -0.5814  0.3026 -0.2816
   63MOL   H25623940   3.502   4.702   2.120 -1.0011  0.8110 -0.5026
   63MOL   H25723941   3.455   4.535   2.155  1.0470  0.8434 -2.6031
   63MOL   H25823942   3.243   4.647   2.275  0.7759 -0.1245  2.0395
   63MOL   H25923943   3.269   4.591   2.502 -0.1826  3.0096 -1.1622
   63MOL   H26023944   3.358   4.493   2.394 -0.6626  0.3264  0.4821
   63MOL   H26123945   3.456   4.653   2.630 -1.6197 -1.6766  2.8058
   63MOL   H26223946   3.590   4.413   2.495  2.3778 -1.4449  1.8939
   63MOL   H26323947   3.680   4.534   2.601  1.2307 -0.8251 -1.9436
   63MOL   H26423948   3.627   4.578   2.440 -0.9546  0.2090  0.0452
   63MOL   H26523949   3.453   4.456   2.773  2.0039 -1.4437 -1.6709
   63MOL   H26623950   3.297   4.481   2.699 -0.4019  3.2783 -2.2271
   63MOL   H26723951   3.408   4.356   2.639  1.9173  0.7171 -1.0371
   63MOL   C26823952   3.327   4.846   2.238 -0.1480  0.0737  0.2516
   63MOL   C26923953   3.270   4.923   2.363  0.0570  0.3781 -0.3364
   63MOL   O27023954   3.138   4.865   2.383  0.4385 -0.5680 -0.1392
   63MOL   C27123955   3.098   4.818   2.508 -0.4273  0.2669  0.9983
   63MOL   C27223956   2.974   4.730   2.497  0.2432 -0.4106 -0.3033
   63MOL   C27323957   2.986   4.611   2.398 -0.5575 -0.2903 -0.5062
   63MOL   C27423958   2.926   4.683   2.631 -0.6109  0.1749 -1.3836
   63MOL   H27523959   3.264   4.874   2.153  1.3450  1.3942 -0.4623
   63MOL   H27623960   3.430   4.875   2.216 -0.3231 -0.4625 -1.3509
   63MOL   H27723961   3.335   4.899   2.447 -0.1797 -2.8394 -1.0079
   63MOL   H27823962   3.179   4.769   2.561  1.9719  0.1128 -2.5882
   63MOL   H27923963   3.084   4.899   2.579 -2.0095  0.2247  0.7571
   63MOL   H28023964   2.894   4.781   2.443 -0.7971 -1.7270 -0.0119
   63MOL   H28123965   3.068   4.545   2.428 -0.0892  0.4054 -0.2319
   63MOL   H28223966   3.008   4.644   2.296 -0.3768  0.2532 -0.2940
   63MOL   H28323967   2.892   4.556   2.393 -0.8316  0.1802 -0.5462
   63MOL   H28423968   2.834   4.625   2.637 -2.4303  3.0386 -0.3713
   63MOL   H28523969   2.901   4.772   2.688  1.4153  0.0089 -0.1885
   63MOL   H28623970   3.001   4.629   2.689 -0.3809  0.4188 -1.4544
   63MOL   C28723971   3.266   5.069   2.344  0.2089  0.2663  0.4367
   63MOL   C28823972   3.207   5.162   2.456 -0.0023 -0.1294 -0.0238
   63MOL   O28923973   3.204   5.291   2.398  0.0206  0.3023 -0.1677
   63MOL   C29023974   3.092   5.322   2.317 -0.4923  0.2603  0.2011
   63MOL   C29123975   3.111   5.456   2.246  0.0836  0.3456 -0.3565
   63MOL   C29223976   3.217   5.427   2.137 -0.1728 -0.2543  0.1894
   63MOL   C29323977   3.142   5.571   2.329 -0.9045  0.0484 -0.6169
   63MOL   H29423978   3.209   5.082   2.252  0.6808 -0.7258  0.0016
   63MOL   H29523979   3.367   5.097   2.314  0.3881 -1.8862 -1.1351
   63MOL   H29623980   3.105   5.126   2.466  0.3640 -1.1963  0.0469
   63MOL   H29723981   3.067   5.240   2.250 -3.0251  1.8026 -0.8139
   63MOL   H29823982   3.002   5.331   2.379 -0.4379 -1.5155  0.5704
   63MOL   H29923983   3.024   5.484   2.186  0.4631 -2.2777 -2.2153
   63MOL   H30023984   3.302   5.378   2.184  0.2614  1.3426  1.1145
   63MOL   H30123985   3.238   5.516   2.077  3.5794  0.6256  2.7055
   63MOL   H30223986   3.186   5.350   2.066 -0.4438 -1.4982  1.6364
   63MOL   H30323987   3.231   5.566   2.392 -1.4942 -0.4373  0.2012
   63MOL   H30423988   3.170   5.655   2.266 -2.2357  0.6553 -0.4303
   63MOL   H30523989   3.054   5.590   2.391  0.0564  0.2938  0.7078
   63MOL   C30623990   3.279   5.167   2.596 -0.1145 -0.4727  0.2431
   63MOL   C30723991   3.182   5.225   2.703 -1.0106  0.0301 -0.0115
   63MOL   O30823992   3.075   5.135   2.698 -0.0401  0.1865  0.6423
   63MOL   C30923993   2.947   5.190   2.715 -1.0049 -0.1131 -0.3004
   63MOL   C31023994   2.849   5.074   2.698 -0.5246 -0.5740 -0.1603
   63MOL   C31123995   2.821   5.046   2.548 -0.3875 -0.8072 -0.2580
   63MOL   C31223996   2.718   5.104   2.771 -0.5291  0.2750 -0.2177
   63MOL   H31323997   3.375   5.219   2.599 -0.5787  0.6344 -2.4139
   63MOL   H31423998   3.301   5.062   2.618  1.1467 -0.6729 -1.7977
   63MOL   H31523999   3.162   5.328   2.673  4.4061  1.3655  0.3254
   63MOL   H31624000   2.935   5.272   2.645  0.3599  1.1548  0.9198
   63MOL   H31724001   2.950   5.241   2.811  3.2865  2.1855 -1.5469
   63MOL   H31824002   2.891   4.986   2.747  1.1906 -1.0545 -2.4280
   63MOL   H31924003   2.756   4.961   2.524 -0.9488 -0.7941  1.1354
   63MOL   H32024004   2.911   5.026   2.490 -0.5329  2.7492 -1.8336
   63MOL   H32124005   2.779   5.141   2.515  2.3599  0.9893  1.2566
   63MOL   H32224006   2.727   5.106   2.880 -0.2020 -0.0820 -0.2381
   63MOL   H32324007   2.634   5.048   2.730 -0.2316 -0.2881 -0.0616
   63MOL   H32424008   2.688   5.207   2.751  0.0834  0.6444  0.7036
   63MOL   C32524009   3.229   5.211   2.850 -0.6073 -0.6370 -0.6074
   63MOL   C32624010   3.338   5.317   2.880  0.5127  0.3213 -0.0680
   63MOL   O32724011   3.270   5.439   2.875 -0.1919 -0.4063  0.2099
   63MOL   C32824012   3.355   5.550   2.871 -0.0200 -0.1445  0.4178
   63MOL   C32924013   3.262   5.675   2.844  0.0933 -0.7031  0.0714
   63MOL   C33024014   3.176   5.668   2.714 -0.2697  0.4175  0.1889
   63MOL   C33124015   3.173   5.713   2.963  0.6942  0.5614 -0.4200
   63MOL   H33224016   3.281   5.116   2.856 -1.4658 -1.1492 -1.2931
   63MOL   H33324017   3.148   5.221   2.922  2.0061 -1.0973  2.5088
   63MOL   H33424018   3.418   5.318   2.806  0.1493 -0.6087 -0.4798
   63MOL   H33524019   3.407   5.571   2.965  1.8441  1.3300 -0.9106
   63MOL   H33624020   3.437   5.544   2.799  1.3843  0.4127  1.9369
   63MOL   H33724021   3.329   5.761   2.835 -0.9710 -0.0705 -1.9787
   63MOL   H33824022   3.094   5.739   2.719 -2.7044 -2.3656  1.0913
   63MOL   H33924023   3.238   5.686   2.627  1.3703 -2.3620  0.7179
   63MOL   H34024024   3.136   5.567   2.704  1.7899 -0.4894  0.6761
   63MOL   H34124025   3.240   5.720   3.049  0.1578  1.2285 -0.0529
   63MOL   H34224026   3.127   5.810   2.947 -0.7736  0.1791  1.2273
   63MOL   H34324027   3.092   5.641   2.974  1.7785 -1.1601 -3.2560
   63MOL   C34424028   3.392   5.308   3.019 -0.3663  0.7328  0.4717
   63MOL   C34524029   3.455   5.174   3.067 -0.4502  0.3717  0.0583
   63MOL   O34624030   3.570   5.145   2.994  0.1385  0.0421 -0.1499
   63MOL   C34724031   3.604   5.009   2.976  0.2643 -0.0008 -0.7034
   63MOL   C34824032   3.728   4.987   2.888 -0.1999 -0.0087  0.3235
   63MOL   C34924033   3.716   5.038   2.744  0.6020  0.6338  0.3023
   63MOL   C35024034   3.749   4.834   2.886 -0.1008  0.2061 -0.3604
   63MOL   H35124035   3.311   5.339   3.085  0.1119  0.0964  1.3720
   63MOL   H35224036   3.468   5.383   3.041 -0.4839  0.3566  2.2707
   63MOL   H35324037   3.377   5.099   3.053  1.2732 -1.0860 -1.9329
   63MOL   H35424038   3.516   4.952   2.950 -0.1934  0.7146 -0.7348
   63MOL   H35524039   3.639   4.979   3.075 -0.9388 -0.2415 -0.3418
   63MOL   H35624040   3.815   5.027   2.940  1.8899 -2.9530 -0.7710
   63MOL   H35724041   3.684   4.959   2.676  1.3788 -0.5270  1.2585
   63MOL   H35824042   3.813   5.070   2.705  1.0350  0.1021  0.9188
   63MOL   H35924043   3.640   5.115   2.733  2.2122  1.7848 -3.3467
   63MOL   H36024044   3.675   4.786   2.823 -2.2992  0.6162  1.8446
   63MOL   H36124045   3.851   4.819   2.851 -0.2582  2.9514 -2.1712
   63MOL   H36224046   3.740   4.787   2.984  0.3685 -0.8863 -0.8281
   63MOL   C36324047   3.494   5.186   3.210  0.1411  0.0043  1.2273
   63MOL   C36424048   3.385   5.229   3.305 -0.0270  0.3557 -0.2098
   63MOL   O36524049   3.277   5.141   3.289 -0.3279  0.0472 -0.3569
   63MOL   C36624050   3.167   5.162   3.376 -0.1383 -0.4367 -0.5826
   63MOL   C36724051   3.046   5.072   3.346  0.1731  0.1469  0.0866
   63MOL   C36824052   2.941   5.101   3.448 -0.1824 -0.6126  0.6839
   63MOL   C36924053   3.079   4.924   3.358 -0.2074  0.4676 -0.1461
   63MOL   H37024054   3.525   5.086   3.240 -0.2569 -1.1316 -1.9758
   63MOL   H37124055   3.582   5.250   3.220 -1.1625  1.9798  0.3111
   63MOL   H37224056   3.344   5.327   3.284  0.8665  1.1439  1.5478
   63MOL   H37324057   3.209   5.146   3.476 -0.9882  0.6089 -0.0545
   63MOL   H37424058   3.140   5.267   3.372  2.0355  0.2071  0.8371
   63MOL   H37524059   3.011   5.089   3.244 -3.6748 -1.3397  1.0650
   63MOL   H37624060   2.917   5.207   3.445 -0.5714 -0.7054  0.3371
   63MOL   H37724061   2.973   5.064   3.545 -1.4199 -0.5111  1.1384
   63MOL   H37824062   2.852   5.039   3.433 -1.1768  0.6818  1.1266
   63MOL   H37924063   3.143   4.891   3.276 -1.4298 -2.0529 -0.1397
   63MOL   H38024064   2.994   4.856   3.366  2.0109 -2.1526  2.2634
   63MOL   H38124065   3.140   4.901   3.446 -0.0125 -1.9787 -0.8574
   63MOL   H38224066   3.420   5.228   3.408 -1.9288 -1.5061  0.4453
   64MOL     C124067   1.264   7.527   2.317  0.0101  0.2711 -0.4774
   64MOL     C224068   1.290   7.420   2.430  0.0443  0.2493 -0.2157
   64MOL     O324069   1.393   7.327   2.384  0.4644  0.3526  0.0046
   64MOL     C424070   1.383   7.189   2.420 -0.6126  0.0974 -0.5094
   64MOL     C524071   1.372   7.100   2.291  0.6673 -0.0057 -0.7446
   64MOL     C624072   1.235   7.108   2.230 -0.1893 -0.1454 -1.1685
   64MOL     C724073   1.428   6.954   2.296 -0.8621  0.0034 -0.0112
   64MOL     H824074   1.351   7.592   2.305  0.8966 -0.6557  0.7211
   64MOL     H924075   1.255   7.476   2.221  1.2138 -1.6290  0.3811
   64MOL    H1024076   1.200   7.359   2.435 -0.0505  0.4933  1.1564
   64MOL    H1124077   1.307   7.170   2.496 -0.9326  2.4409 -0.2160
   64MOL    H1224078   1.476   7.168   2.473 -1.6002 -1.1282  0.8045
   64MOL    H1324079   1.436   7.146   2.216  0.6931  1.3659  0.1133
   64MOL    H1424080   1.228   7.049   2.138  0.5893 -2.7423  0.3974
   64MOL    H1524081   1.164   7.058   2.296 -0.4766 -0.5790 -1.7890
   64MOL    H1624082   1.203   7.209   2.205 -2.5944 -0.7067 -0.5102
   64MOL    H1724083   1.528   6.937   2.338 -1.5563  1.1684  2.1995
   64MOL    H1824084   1.377   6.896   2.373  0.9333  2.0644  2.8396
   64MOL    H1924085   1.410   6.906   2.200  2.1305  1.1968 -1.2406
   64MOL    H2024086   1.169   7.573   2.344  0.7690  0.5664  1.8610
   64MOL    C2124087   1.349   7.471   2.561  1.0728 -1.0459  0.3416
   64MOL    C2224088   1.250   7.538   2.648 -1.1557 -0.6840  0.7155
   64MOL    O2324089   1.125   7.468   2.665 -0.4191 -0.0740  0.0194
   64MOL    C2424090   1.111   7.359   2.755  0.3090 -0.1293 -0.2614
   64MOL    C2524091   0.980   7.295   2.710  0.0847 -0.0290 -0.0267
   64MOL    C2624092   0.950   7.155   2.780  0.4095  0.3062  0.8558
   64MOL    C2724093   0.857   7.390   2.732  0.2751 -0.1211 -0.2088
   64MOL    H2824094   1.392   7.392   2.622 -0.1677 -3.5083 -1.8859
   64MOL    H2924095   1.432   7.539   2.542 -1.3675  2.5084  1.8576
   64MOL    H3024096   1.226   7.633   2.599  1.0953 -0.1410  0.6161
   64MOL    H3124097   1.108   7.398   2.857  0.8603 -0.2491 -0.2010
   64MOL    H3224098   1.183   7.279   2.739  0.8394  0.3810 -0.4142
   64MOL    H3324099   0.978   7.286   2.601 -2.1018  2.2523 -0.2288
   64MOL    H3424100   0.851   7.118   2.755  1.3173 -0.4033 -1.8649
   64MOL    H3524101   0.938   7.163   2.888  1.4498 -0.7335  1.0515
   64MOL    H3624102   1.017   7.077   2.744  1.0459  0.0580  2.5759
   64MOL    H3724103   0.886   7.479   2.677  2.7128  0.5437  2.0368
   64MOL    H3824104   0.766   7.356   2.684 -2.7640  2.6424  3.3077
   64MOL    H3924105   0.832   7.414   2.836  0.7287  2.2061 -0.6111
   64MOL    C4024106   1.311   7.579   2.783 -0.9696  0.5282 -0.1423
   64MOL    C4124107   1.225   7.675   2.862  0.2122  0.1046 -0.7917
   64MOL    O4224108   1.218   7.794   2.790 -0.2696  0.3574  0.0827
   64MOL    C4324109   1.094   0.034   2.784  0.1017 -0.9812  0.5883
   64MOL    C4424110   1.093   0.139   2.668  0.6306 -0.5664  0.0604
   64MOL    C4524111   1.067   0.066   2.531 -0.7374 -0.5791 -0.4070
   64MOL    C4624112   0.995   0.249   2.689 -0.7980 -0.4645  0.5244
   64MOL    H4724113   1.410   7.617   2.756 -0.5186 -0.1273  0.5615
   64MOL    H4824114   1.316   7.486   2.839 -1.1667 -0.8077 -2.2997
   64MOL    H4924115   1.121   7.652   2.885 -0.1398  1.9529 -0.4204
   64MOL    H5024116   1.088   0.094   2.875  1.7852 -1.0466  0.7537
   64MOL    H5124117   1.003   7.800   2.767 -0.3047 -0.2294  0.1418
   64MOL    H5224118   1.191   0.186   2.680 -1.2956  3.7469 -0.2553
   64MOL    H5324119   1.072   0.143   2.454 -1.8165 -0.5326 -0.4392
   64MOL    H5424120   1.141   7.811   2.521  0.2388  0.3630 -0.7550
   64MOL    H5524121   0.971   0.015   2.540 -1.8980  1.5093 -0.5713
   64MOL    H5624122   0.893   0.215   2.673  0.1444 -3.1043 -0.2606
   64MOL    H5724123   1.009   0.332   2.620 -1.1872 -1.2419 -0.4971
   64MOL    H5824124   1.017   0.286   2.789  1.5536 -1.8941  0.5931
   64MOL    C5924125   1.292   7.724   2.996  0.6945 -0.0328 -0.5663
   64MOL    C6024126   1.322   7.609   3.095  0.2893  0.4699 -0.0719
   64MOL    O6124127   1.196   7.562   3.140  0.1107 -0.2126  0.2662
   64MOL    C6224128   1.196   7.444   3.221 -0.2462 -0.1832  0.5978
   64MOL    C6324129   1.052   7.387   3.239 -0.3001  0.1098  0.1786
   64MOL    C6424130   0.968   7.486   3.315  1.4399 -0.2318 -0.0811
   64MOL    C6524131   0.994   7.333   3.104  0.1055 -0.2368  0.3306
   64MOL    H6624132   1.209   7.784   3.035 -1.7880 -1.6339 -3.1521
   64MOL    H6724133   1.384   7.779   2.977  2.0862 -2.1035  0.1245
   64MOL    H6824134   1.363   7.519   3.050 -0.2648 -0.4910  1.3032
   64MOL    H6924135   1.264   7.366   3.189 -0.5177 -0.1858  0.0159
   64MOL    H7024136   1.235   7.468   3.320  2.3018  1.1110 -0.6815
   64MOL    H7124137   1.066   7.302   3.306  1.4503  2.0970  2.4205
   64MOL    H7224138   0.939   7.574   3.258 -2.3042  0.2814  2.4326
   64MOL    H7324139   0.999   7.530   3.410 -1.6652  0.2276  0.7654
   64MOL    H7424140   0.869   7.445   3.335  0.7217  0.6555 -1.7232
   64MOL    H7524141   0.909   7.266   3.112 -0.1079  0.0645  0.6095
   64MOL    H7624142   0.984   7.417   3.035 -3.1589 -0.1111  0.8954
   64MOL    H7724143   1.071   7.264   3.069 -0.9655 -1.3946  0.2057
   64MOL    C7824144   1.402   7.655   3.217 -0.1673 -0.3090  0.6123
   64MOL    C7924145   1.546   7.711   3.187 -0.1572  0.4615 -0.2424
   64MOL    O8024146   1.613   7.718   3.317 -0.1916 -0.3362  0.1779
   64MOL    C8124147   1.577   7.818   3.418  0.2766 -0.3952 -0.0299
   64MOL    C8224148   1.640   7.757   3.552  0.1783  0.0311  0.0948
   64MOL    C8324149   1.610   0.028   3.671 -0.3742  0.8150  0.1150
   64MOL    C8424150   1.789   7.725   3.536 -0.2725  0.7621 -0.9026
   64MOL    H8524151   1.425   7.565   3.276 -1.4911 -1.1896 -0.2022
   64MOL    H8624152   1.356   7.739   3.269 -0.4040  1.7944 -2.8757
   64MOL    H8724153   1.550   7.814   3.153  0.2408  0.6806  0.4618
   64MOL    H8824154   1.623   0.089   3.394 -0.6805 -0.1177 -0.7856
   64MOL    H8924155   1.468   0.005   3.420  0.3524  0.1846  1.7505
   64MOL    H9024156   1.588   7.662   3.564 -1.3809  1.0775  1.9730
   64MOL    H9124157   1.664   0.123   3.665  0.7947  0.0448 -1.9496
   64MOL    H9224158   1.623   7.799   3.765 -3.6464 -2.2139 -1.0425
   64MOL    H9324159   1.503   0.048   3.678 -0.5756 -0.5810  1.3536
   64MOL    H9424160   1.792   7.650   3.458 -0.2128  0.8941 -1.0267
   64MOL    H9524161   1.832   7.690   3.630 -2.5331  0.1921 -0.0480
   64MOL    H9624162   1.846   7.813   3.507 -0.0148  1.8938  2.7232
   64MOL    C9724163   1.632   7.623   3.098  0.2938  0.2985 -0.0456
   64MOL    C9824164   1.767   7.686   3.056  0.1544  0.0204 -0.2529
   64MOL    O9924165   1.795   7.654   2.924 -0.2137  0.0151  0.1807
   64MOL   C10024166   1.716   7.713   2.817  0.1210  0.5097 -0.6139
   64MOL   C10124167   1.772   7.673   2.673 -0.3460 -0.3139  0.4445
   64MOL   C10224168   1.689   7.703   2.550 -1.0606 -0.0893 -0.6281
   64MOL   C10324169   1.902   7.740   2.652 -0.0327 -0.1113  0.5898
   64MOL   H10424170   1.577   7.611   3.005  0.9453 -0.6184 -0.3152
   64MOL   H10524171   1.639   7.519   3.129  1.9654  0.0776 -1.0977
   64MOL   H10624172   1.756   7.794   3.060 -1.4494  0.0293 -3.5206
   64MOL   H10724173   1.709   7.822   2.823  1.2663  0.5423  0.6029
   64MOL   H10824174   1.614   7.675   2.827 -0.5943  3.0297  3.1651
   64MOL   H10924175   1.775   7.564   2.683  0.0966 -0.0532  3.5261
   64MOL   H11024176   1.596   7.648   2.566  0.5552 -2.4655  0.9901
   64MOL   H11124177   1.658   7.807   2.540 -1.0146 -0.1877 -1.8404
   64MOL   H11224178   1.744   7.664   2.464  0.9591 -0.0754  0.6228
   64MOL   H11324179   1.958   7.701   2.567 -2.3845 -1.2620 -0.4849
   64MOL   H11424180   1.868   0.016   2.626 -1.2111 -0.3923  1.0154
   64MOL   H11524181   1.968   7.751   2.739  1.8584  0.5897 -0.8915
   64MOL   C11624182   1.880   7.639   3.147  0.2918 -0.2806 -0.3902
   64MOL   C11724183   2.016   7.704   3.103 -1.0727  0.5617  0.3380
   64MOL   O11824184   2.022   0.025   3.124 -1.0174 -0.1920  0.2820
   64MOL   C11924185   2.007   0.100   3.004 -0.6360 -0.3869  0.4135
   64MOL   C12024186   1.971   0.244   3.041  0.8898  0.5680  0.4786
   64MOL   C12124187   1.963   0.327   2.914  0.8894 -0.4827  0.0176
   64MOL   C12224188   1.836   0.260   3.117 -0.0136 -0.2040 -0.4682
   64MOL   H12324189   1.866   7.671   3.250  2.4518 -1.4419  0.3108
   64MOL   H12424190   1.893   7.531   3.158  1.7683 -0.0481  0.3227
   64MOL   H12524191   2.034   7.677   2.999 -2.1423 -0.2729  0.3579
   64MOL   H12624192   1.931   0.069   2.932 -0.3394  1.6043 -0.7833
   64MOL   H12724193   2.103   0.087   2.954 -0.6843  0.0447  0.2063
   64MOL   H12824194   2.051   0.291   3.100  0.2462  1.1154  0.9226
   64MOL   H12924195   1.949   0.431   2.945  1.5315 -0.5490  0.5604
   64MOL   H13024196   1.875   0.298   2.857 -3.5881  3.1501  4.5728
   64MOL   H13124197   2.054   0.317   2.855  0.3128 -1.7950 -0.6745
   64MOL   H13224198   1.810   0.361   3.148 -1.8601 -0.1845 -2.0447
   64MOL   H13324199   1.754   0.216   3.061 -1.9784 -0.5795  2.5893
   64MOL   H13424200   1.821   0.196   3.204  2.7081 -0.6207 -0.2500
   64MOL   C13524201   2.136   7.626   3.168  0.4717 -0.1094  0.3928
   64MOL   C13624202   2.175   7.487   3.108  1.0726 -0.5331 -0.0407
   64MOL   O13724203   2.312   7.479   3.113 -0.4208 -0.2882 -0.5474
   64MOL   C13824204   2.388   7.513   2.999  0.2348 -0.4300 -0.8454
   64MOL   C13924205   2.535   7.502   3.050 -0.5126  0.1067  0.1676
   64MOL   C14024206   2.552   7.605   3.164  0.4410 -0.0437 -0.2186
   64MOL   C14124207   2.584   7.365   3.092  0.0629 -0.2303 -0.1919
   64MOL   H14224208   2.225   7.689   3.179  1.2831 -1.4041  1.4093
   64MOL   H14324209   2.109   7.612   3.273  0.4138  0.3083  0.4369
   64MOL   H14424210   2.149   7.485   3.002  2.4480 -2.2872 -0.3741
   64MOL   H14524211   2.363   7.612   2.960  1.5618  0.8435  1.3831
   64MOL   H14624212   2.364   7.447   2.916 -1.1287 -1.0427  0.0339
   64MOL   H14724213   2.600   7.536   2.970 -1.5564 -0.5876 -0.9997
   64MOL   H14824214   2.657   7.607   3.194  0.1312  0.1457  0.8856
   64MOL   H14924215   2.490   7.571   3.247  0.3550 -0.9615 -0.6514
   64MOL   H15024216   2.513   7.705   3.146 -2.0763 -0.8913  0.2932
   64MOL   H15124217   2.571   7.299   3.006  2.3344  0.8221 -1.3927
   64MOL   H15224218   2.690   7.383   3.106 -0.1343  0.6011  0.3023
   64MOL   H15324219   2.536   7.325   3.181 -1.2498 -0.7895 -1.1270
   64MOL   C15424220   2.105   7.370   3.177  0.1486  0.9551  0.4491
   64MOL   C15524221   2.057   7.254   3.082  0.2659  0.5061 -0.0846
   64MOL   O15624222   2.040   7.137   3.156 -0.1042 -0.4265  0.0068
   64MOL   C15724223   2.160   7.062   3.174  0.1711 -0.1823 -0.0570
   64MOL   C15824224   2.146   6.933   3.244  0.1290 -0.5018  0.2685
   64MOL   C15924225   2.071   6.965   3.373  0.1838  0.3041  0.8555
   64MOL   C16024226   2.066   6.828   3.159  0.0456  0.8213 -0.2231
   64MOL   H16124227   2.014   7.390   3.234 -2.9409 -1.6061 -3.3160
   64MOL   H16224228   2.180   7.328   3.244  1.3520 -0.4577 -1.7002
   64MOL   H16324229   2.129   7.234   3.002  0.2817  1.5282 -0.3245
   64MOL   H16424230   2.238   7.110   3.233  0.3778  0.3743 -0.7728
   64MOL   H16524231   2.208   7.035   3.080  0.1120 -0.6085  0.0354
   64MOL   H16624232   2.250   6.900   3.250 -0.5212 -2.5047  0.6530
   64MOL   H16724233   1.979   7.022   3.363  0.5405  0.5490 -1.2552
   64MOL   H16824234   2.133   7.023   3.442 -1.4025  0.1471  2.4337
   64MOL   H16924235   2.041   6.869   3.414  0.9474  0.0136  0.7432
   64MOL   H17024236   2.079   6.732   3.210 -1.1270 -0.3220 -2.0181
   64MOL   H17124237   1.959   6.846   3.156  0.0893  0.9592 -1.1081
   64MOL   H17224238   2.098   6.829   3.055 -1.8288  1.0502 -0.8151
   64MOL   C17324239   1.915   7.286   3.024 -0.7250  0.5449 -1.0042
   64MOL   C17424240   1.866   7.197   2.910 -0.4707 -1.1144  0.5155
   64MOL   O17524241   1.956   7.229   2.810  0.1428 -0.0539  0.4766
   64MOL   C17624242   1.911   7.325   2.714  0.0207 -0.4311 -0.1937
   64MOL   C17724243   2.030   7.354   2.622  0.2243  0.0707 -0.0676
   64MOL   C17824244   2.148   7.405   2.712  0.9480  0.3457 -0.1063
   64MOL   C17924245   2.060   7.230   2.535 -0.5080 -0.3109  0.2041
   64MOL   H18024246   1.845   7.292   3.107  1.9267  2.0518  1.2286
   64MOL   H18124247   1.909   7.385   2.980 -1.4177  0.9110 -0.1149
   64MOL   H18224248   1.762   7.218   2.884 -0.8471 -3.1928  0.2091
   64MOL   H18324249   1.882   7.415   2.770 -0.7016 -0.0777 -1.1193
   64MOL   H18424250   1.822   7.286   2.665  0.1867 -0.1391 -0.7277
   64MOL   H18524251   2.025   7.440   2.555 -3.1118  0.6527  0.8363
   64MOL   H18624252   2.116   7.490   2.773 -2.3392 -0.1808 -1.0238
   64MOL   H18724253   2.200   7.333   2.776  0.1457  0.4823  0.7135
   64MOL   H18824254   2.228   7.440   2.647  0.9040  0.0374 -0.3256
   64MOL   H18924255   1.996   7.225   2.447  1.2265  1.4064 -1.1989
   64MOL   H19024256   2.041   7.137   2.589  0.8546 -1.8142 -1.8276
   64MOL   H19124257   2.162   7.222   2.497  0.3653  0.8493  2.2057
   64MOL   C19224258   1.864   7.049   2.940 -0.2125  0.0688  0.0784
   64MOL   C19324259   1.800   6.960   2.822  0.0595 -0.5551 -0.3739
   64MOL   O19424260   1.657   6.967   2.812 -0.3231 -0.2776 -0.0906
   64MOL   C19524261   1.603   6.974   2.683 -0.0052 -0.5091  0.1160
   64MOL   C19624262   1.452   6.972   2.675 -0.2890 -0.0692 -0.6985
   64MOL   C19724263   1.397   7.097   2.750 -0.3502 -0.2924 -0.4123
   64MOL   C19824264   1.392   6.856   2.745 -0.0222  0.4148  0.1934
   64MOL   H19924265   1.815   7.033   3.037 -0.5524  1.1885  0.1012
   64MOL   H20024266   1.965   7.012   2.955  0.0206  0.6197 -0.1484
   64MOL   H20124267   1.851   6.991   2.731  0.6106  2.3625  0.8834
   64MOL   H20224268   1.644   6.902   2.612 -0.6057  0.3603 -1.1231
   64MOL   H20324269   1.640   7.069   2.645  0.4943 -0.5791  0.4330
   64MOL   H20424270   1.412   6.972   2.573  1.6514 -0.3553 -1.4873
   64MOL   H20524271   1.291   7.090   2.772  0.1914 -1.4840  2.0182
   64MOL   H20624272   1.447   7.096   2.847 -2.5463  1.6532  0.7589
   64MOL   H20724273   1.416   7.191   2.698  2.8051 -1.1620 -0.9980
   64MOL   H20824274   1.284   6.859   2.732 -0.2481 -1.0586  1.5953
   64MOL   H20924275   1.431   6.765   2.699 -1.0243  0.1131 -0.0880
   64MOL   H21024276   1.410   6.850   2.852  2.0939 -1.2699 -0.2196
   64MOL   C21124277   1.840   6.811   2.853  0.2319  0.2339  0.6245
   64MOL   C21224278   1.818   6.709   2.743 -0.4193  0.9663  0.5750
   64MOL   O21324279   1.889   6.753   2.633  0.0754 -0.3122  0.2502
   64MOL   C21424280   1.851   6.696   2.509 -0.4679 -0.1987 -0.8414
   64MOL   C21524281   1.934   6.769   2.404  0.6789 -1.0847 -0.0789
   64MOL   C21624282   1.920   6.923   2.402  0.2219  0.6729  0.8707
   64MOL   C21724283   2.079   6.732   2.417  0.2787  0.2725  0.0415
   64MOL   H21824284   1.772   6.774   2.929 -3.3852  1.9525 -1.6570
   64MOL   H21924285   1.948   6.805   2.868  0.1936 -0.5546  0.6360
   64MOL   H22024286   1.711   6.700   2.725 -0.3629  1.0467  0.1979
   64MOL   H22124287   1.744   6.716   2.498 -0.8661 -1.4461  0.6396
   64MOL   H22224288   1.868   6.588   2.506  0.1257 -0.1256 -0.1801
   64MOL   H22324289   1.908   6.728   2.307 -1.0058 -0.3601  0.0399
   64MOL   H22424290   1.934   6.964   2.503 -2.2168  0.7589  1.1973
   64MOL   H22524291   1.985   6.974   2.331 -0.6854  0.4863 -0.0892
   64MOL   H22624292   1.825   6.962   2.367  0.1007  0.3215  0.8094
   64MOL   H22724293   2.128   6.778   2.502  0.1300  2.7443 -1.1402
   64MOL   H22824294   2.124   6.788   2.335  0.0025 -0.8287 -0.8877
   64MOL   H22924295   2.099   6.625   2.408  0.6735  0.4147 -0.8114
   64MOL   C23024296   1.855   6.568   2.780  0.6706 -0.8258 -0.7171
   64MOL   C23124297   1.752   6.481   2.847  0.1678 -0.0254  0.2888
   64MOL   O23224298   1.659   6.463   2.748 -0.2588  0.0783 -0.9313
   64MOL   C23324299   1.525   6.452   2.787  0.0359  0.4282  0.5747
   64MOL   C23424300   1.435   6.393   2.668  0.0495  0.6346  0.8174
   64MOL   C23524301   1.435   6.498   2.552 -0.4007  0.1503  0.3213
   64MOL   C23624302   1.491   6.255   2.630 -0.8692 -0.3523  0.3660
   64MOL   H23724303   1.946   6.569   2.840  0.2885  1.2084 -0.1282
   64MOL   H23824304   1.897   6.515   2.694  1.4411  1.5186 -1.8242
   64MOL   H23924305   1.714   6.543   2.928  1.5275  2.8453 -1.2070
   64MOL   H24024306   1.523   6.393   2.879  0.9645 -0.0802  0.2787
   64MOL   H24124307   1.475   6.545   2.816 -1.6268 -0.1984 -0.2968
   64MOL   H24224308   1.330   6.377   2.695  0.2177 -0.7222  0.7123
   64MOL   H24324309   1.363   6.578   2.566 -0.9043  0.0136 -1.3478
   64MOL   H24424310   1.417   6.448   2.456  1.3080 -1.2676  0.7088
   64MOL   H24524311   1.534   6.545   2.554  0.0851 -0.5124 -3.2671
   64MOL   H24624312   1.599   6.238   2.633 -0.7741  0.4166  1.9624
   64MOL   H24724313   1.454   6.173   2.691 -0.1357 -0.9997 -0.0634
   64MOL   H24824314   1.461   6.240   2.526 -0.5583  3.2023 -0.3208
   64MOL   C24924315   1.802   6.347   2.905 -0.1631  0.6112  0.2574
   64MOL   C25024316   1.881   6.350   3.030  0.5984  0.0607 -0.6827
   64MOL   O25124317   1.787   6.400   3.130 -0.7779  0.5171  0.1113
   64MOL   C25224318   1.841   6.498   3.214  0.3120 -0.1235 -0.0122
   64MOL   C25324319   1.729   6.536   3.313  0.2423 -0.4159 -0.1531
   64MOL   C25424320   1.627   6.623   3.233 -0.3436 -0.1111 -0.7728
   64MOL   C25524321   1.789   6.617   3.427  0.5632 -0.8865 -0.5421
   64MOL   H25624322   1.857   6.299   2.823 -0.6029 -0.8456  0.8016
   64MOL   H25724323   1.712   6.287   2.919 -1.0639  1.8379 -0.2375
   64MOL   H25824324   1.962   6.420   3.010  2.4826 -2.5957 -2.8114
   64MOL   H25924325   1.927   6.459   3.269  0.9718  0.6376 -0.5036
   64MOL   H26024326   1.877   6.584   3.158 -1.8705  1.3924  0.8427
   64MOL   H26124327   1.689   6.443   3.354  2.3469 -1.9238 -1.4044
   64MOL   H26224328   1.566   6.559   3.168  1.7133 -1.9955 -0.9513
   64MOL   H26324329   1.659   6.713   3.180  0.3215  0.4987  0.6599
   64MOL   H26424330   1.565   6.664   3.312  0.6678 -0.1879  0.0753
   64MOL   H26524331   1.715   6.643   3.503 -0.3392  1.2418 -2.0872
   64MOL   H26624332   1.855   6.556   3.488  2.6409  2.6261  0.8835
   64MOL   H26724333   1.830   6.711   3.389  0.3933 -1.9172 -3.4373
   64MOL   C26824334   1.938   6.211   3.071 -0.1508 -0.5778  0.0185
   64MOL   C26924335   2.075   6.216   3.139  0.7012  0.0216 -0.2903
   64MOL   O27024336   2.158   6.286   3.051  0.2968  0.4996 -0.9043
   64MOL   C27124337   2.221   6.400   3.108 -0.1361 -0.3020 -0.2378
   64MOL   C27224338   2.291   6.472   2.994 -0.1848 -0.8225  0.1481
   64MOL   C27324339   2.376   6.378   2.904  0.2772 -0.0253 -1.1247
   64MOL   C27424340   2.198   6.556   2.903 -0.7249  0.1044 -0.1531
   64MOL   H27524341   1.937   6.139   2.990  0.9789  0.1664 -0.6650
   64MOL   H27624342   1.869   6.177   3.149  1.5215 -0.6904  1.4761
   64MOL   H27724343   2.072   6.266   3.236  0.2401 -1.7633  0.6221
   64MOL   H27824344   2.147   6.460   3.161 -0.1575 -1.9480  1.6728
   64MOL   H27924345   2.295   6.364   3.181  1.6249  2.2567 -0.7014
   64MOL   H28024346   2.371   6.530   3.039 -1.0706  0.8336 -0.3625
   64MOL   H28124347   2.421   6.431   2.820  0.4837  0.5154 -0.6776
   64MOL   H28224348   2.316   6.303   2.852 -2.5138  0.2040  1.6319
   64MOL   H28324349   2.443   6.315   2.963  0.4610  0.3917 -0.8890
   64MOL   H28424350   2.126   6.609   2.966  0.6629  1.5372  0.2640
   64MOL   H28524351   2.149   6.509   2.818 -0.8559  0.4621 -0.2783
   64MOL   H28624352   2.253   6.636   2.853 -0.0251 -0.1804  0.1569
   64MOL   C28724353   2.133   6.080   3.185  0.5557  0.2258 -0.4676
   64MOL   C28824354   2.060   6.019   3.309 -0.2711  0.2302 -0.1241
   64MOL   O28924355   2.089   6.102   3.423 -0.1957  0.0377 -0.7288
   64MOL   C29024356   1.978   6.137   3.504  0.3385  0.1619  0.7420
   64MOL   C29124357   2.030   6.209   3.632 -0.1855 -0.2684 -0.1214
   64MOL   C29224358   2.131   6.315   3.605 -0.3870 -0.0876  0.0020
   64MOL   C29324359   2.090   6.102   3.730 -0.9863 -0.0498 -0.1397
   64MOL   H29424360   2.234   6.110   3.213  1.0493 -0.1036 -1.8616
   64MOL   H29524361   2.139   6.010   3.101 -0.7504 -1.0328  0.4684
   64MOL   H29624362   1.952   6.030   3.294 -0.6480  0.6702  2.5946
   64MOL   H29724363   1.902   6.196   3.452 -1.3222 -1.6761  1.0026
   64MOL   H29824364   1.927   6.047   3.539 -2.2949  1.6201  0.8029
   64MOL   H29924365   1.947   6.261   3.682 -1.8503 -1.9554 -1.0546
   64MOL   H30024366   2.169   6.343   3.703  1.4335 -1.9439 -0.1336
   64MOL   H30124367   2.092   6.405   3.557 -1.5758 -0.4338  0.2953
   64MOL   H30224368   2.216   6.283   3.545  1.1955  1.9346  1.1423
   64MOL   H30324369   2.125   6.154   3.820 -0.7768 -1.4620  0.6109
   64MOL   H30424370   2.013   6.033   3.767 -0.0464  0.0868  2.1411
   64MOL   H30524371   2.170   6.039   3.692 -0.9282  0.2753 -0.5586
   64MOL   C30624372   2.108   5.871   3.342  0.5330  0.1024  0.1857
   64MOL   C30724373   2.023   5.776   3.424 -0.0739  0.2652  0.2029
   64MOL   O30824374   1.895   5.766   3.368 -0.3547 -0.0548  0.2309
   64MOL   C30924375   1.794   5.746   3.454  0.1867  0.0534 -0.0681
   64MOL   C31024376   1.665   5.748   3.381 -0.0286 -0.3278  0.2450
   64MOL   C31124377   1.633   5.893   3.318  0.1381 -0.3290  1.1119
   64MOL   C31224378   1.555   5.689   3.469  0.4962  0.2002  0.6435
   64MOL   H31324379   2.210   5.871   3.379  0.0556 -1.1593  1.5672
   64MOL   H31424380   2.103   5.813   3.250  1.9333 -0.1350  0.2589
   64MOL   H31524381   2.011   5.809   3.528 -0.2888 -0.4087  0.3956
   64MOL   H31624382   1.783   5.824   3.529 -0.1144  1.0724 -1.1623
   64MOL   H31724383   1.797   5.651   3.507 -0.9570  0.9200  1.6031
   64MOL   H31824384   1.666   5.683   3.294 -1.1226  1.4641 -1.1402
   64MOL   H31924385   1.722   5.927   3.264  1.5215 -0.4427  3.2458
   64MOL   H32024386   1.604   5.951   3.406 -0.2022 -1.0263  1.4634
   64MOL   H32124387   1.550   5.874   3.250 -0.7933 -0.2011  2.2066
   64MOL   H32224388   1.573   5.596   3.523 -1.4741 -0.4864  0.1768
   64MOL   H32324389   1.464   5.658   3.416  0.0264  1.5672  0.6257
   64MOL   H32424390   1.520   5.764   3.540 -2.2291 -1.1277  0.7634
   64MOL   C32524391   2.068   5.629   3.404 -0.0883  0.1758 -0.8138
   64MOL   C32624392   2.155   5.586   3.527 -0.0642  0.2501 -0.0705
   64MOL   O32724393   2.073   5.571   3.639  0.0667 -0.1892  0.2382
   64MOL   C32824394   2.110   5.650   3.743 -0.3013  0.0754  0.0010
   64MOL   C32924395   2.020   5.616   3.872  0.1243  0.3992 -0.3096
   64MOL   C33024396   2.066   5.474   3.927  0.2291 -0.6347 -0.3307
   64MOL   C33124397   2.022   5.730   3.977 -0.0552  0.1711 -0.4832
   64MOL   H33224398   2.137   5.618   3.320 -1.2341  0.1026 -1.7546
   64MOL   H33324399   1.992   5.552   3.393  0.0184  0.3045 -2.7230
   64MOL   H33424400   2.239   5.655   3.544 -2.6490  3.6497 -0.6112
   64MOL   H33524401   2.216   5.644   3.771  0.0563 -0.2608 -1.4188
   64MOL   H33624402   2.091   5.754   3.716  2.4327  1.1147  1.8038
   64MOL   H33724403   1.916   5.600   3.842 -0.0229  1.4465 -0.3528
   64MOL   H33824404   1.999   5.399   3.884 -0.8366 -0.0389  0.2581
   64MOL   H33924405   2.168   5.441   3.907  1.3373  2.0556  0.5447
   64MOL   H34024406   2.058   5.472   4.036  1.6475  0.0151 -0.2044
   64MOL   H34124407   1.985   5.823   3.933  0.4313 -0.2071 -1.7148
   64MOL   H34224408   1.944   5.719   4.052  3.3007 -0.7181  3.0143
   64MOL   H34324409   2.123   5.736   4.018 -0.4895 -0.0553  0.6249
   64MOL   C34424410   2.219   5.450   3.504  0.9432 -0.0491  0.6190
   64MOL   C34524411   2.335   5.410   3.605 -0.6648  0.1816  0.2386
   64MOL   O34624412   2.393   5.286   3.570 -0.0965  0.4989 -0.1224
   64MOL   C34724413   2.318   5.185   3.636 -0.0221 -0.0806 -0.5218
   64MOL   C34824414   2.387   5.053   3.583 -0.1845 -0.8910  0.1495
   64MOL   C34924415   2.302   4.929   3.614  0.3316  0.2735 -0.2065
   64MOL   C35024416   2.536   5.032   3.622  0.3218  0.4028 -0.3871
   64MOL   H35124417   2.267   5.452   3.406 -0.5894  2.5337 -0.1375
   64MOL   H35224418   2.146   5.369   3.500  1.4373 -0.4616 -0.2378
   64MOL   H35324419   2.299   5.430   3.706 -0.7839  1.3258 -0.0308
   64MOL   H35424420   2.215   5.179   3.600  0.3941  0.6080 -1.8558
   64MOL   H35524421   2.336   5.190   3.743 -1.6556  1.2527 -0.2986
   64MOL   H35624422   2.389   5.055   3.474  0.8833 -0.4728  0.1711
   64MOL   H35724423   2.307   4.907   3.721 -1.6745 -1.0131 -0.3351
   64MOL   H35824424   2.340   4.840   3.565  1.5175 -0.2384  1.5817
   64MOL   H35924425   2.197   4.947   3.592  0.5866  2.1309  0.0226
   64MOL   H36024426   2.598   5.120   3.606 -0.2978  0.8513 -0.3439
   64MOL   H36124427   2.542   5.014   3.730 -1.5818  2.0726  0.0298
   64MOL   H36224428   2.585   4.950   3.570 -0.3139 -0.1783 -0.0881
   64MOL   C36324429   2.456   5.511   3.591  0.0635 -0.4257  1.0917
   64MOL   C36424430   2.578   5.480   3.680  0.1675 -0.5916  0.3907
   64MOL   O36524431   2.539   5.448   3.814 -0.1495  0.4373 -0.1295
   64MOL   C36624432   2.655   5.406   3.895 -0.1724 -0.1862 -0.1041
   64MOL   C36724433   2.614   5.367   4.037  0.3337 -0.6897  0.6249
   64MOL   C36824434   2.515   5.250   4.042  0.2228 -0.7301  0.4120
   64MOL   C36924435   2.559   5.483   4.118  0.2229  0.6282  0.2665
   64MOL   H37024436   2.478   5.531   3.486  0.5265 -0.5620  1.1650
   64MOL   H37124437   2.430   5.604   3.642 -0.6824  0.5931 -1.0884
   64MOL   H37224438   2.645   5.566   3.684  1.2958 -1.4942  0.8062
   64MOL   H37324439   2.701   5.313   3.861  0.9726  0.5274 -0.5177
   64MOL   H37424440   2.726   5.488   3.884  2.2262 -2.3789 -1.9628
   64MOL   H37524441   2.705   5.339   4.089  2.0038  0.7419 -1.4451
   64MOL   H37624442   2.503   5.210   4.142  1.6691 -1.8340  0.1525
   64MOL   H37724443   2.540   5.175   3.967 -1.8125  1.2224 -2.3847
   64MOL   H37824444   2.415   5.290   4.022  0.8402 -0.5133 -2.4341
   64MOL   H37924445   2.485   5.526   4.050  1.4467  1.8655 -0.3053
   64MOL   H38024446   2.636   5.559   4.135  0.5962  0.7271 -1.6963
   64MOL   H38124447   2.509   5.452   4.209 -0.2934 -2.0252 -0.8956
   64MOL   H38224448   2.628   5.394   3.637  1.6113  2.3632 -4.2610
   65MOL     C124449   7.701   6.281   0.173 -0.8635  0.1088  0.2319
   65MOL     C224450   7.767   6.336   0.041  0.4936  0.0715 -0.2185
   65MOL     O324451   0.066   6.404   0.066 -0.5171  0.3725 -0.3296
   65MOL     C424452   0.073   6.507   0.165 -0.1345 -0.2796  0.2961
   65MOL     C524453   0.206   6.585   0.146  0.1435 -0.1035 -0.2094
   65MOL     C624454   0.339   6.505   0.162 -0.1761 -0.8895  0.1370
   65MOL     C724455   0.222   6.707   0.238 -0.9367  0.5072  0.1702
   65MOL     H824456   7.613   6.219   0.161  1.1825 -2.3445 -2.9764
   65MOL     H924457   7.766   6.224   0.239 -2.0570 -1.2699  0.2358
   65MOL    H1024458   7.708   6.418   0.000 -1.4859  0.4660  3.2663
   65MOL    H1124459   0.052   6.473   0.266 -1.2534  1.2291  0.5865
   65MOL    H1224460   7.818   6.573   0.132 -2.3921 -2.9867  0.1185
   65MOL    H1324461   0.208   6.626   0.045  0.7444  1.4679  0.4263
   65MOL    H1424462   0.333   6.437   0.247 -1.3823 -1.7508 -0.6053
   65MOL    H1524463   0.378   6.444   0.080  1.0442  0.3791 -0.2392
   65MOL    H1624464   0.423   6.573   0.176 -2.3861  1.3984  2.9727
   65MOL    H1724465   0.307   6.764   0.199 -0.2715  0.2382  1.2061
   65MOL    H1824466   0.144   6.781   0.220 -0.9704 -0.1084 -2.4814
   65MOL    H1924467   0.235   6.690   0.345  1.5052 -0.0560 -0.1773
   65MOL    H2024468   7.669   6.371   0.227 -0.9914 -0.7548  1.6158
   65MOL    C2124469   7.800   6.215   7.766 -0.0669 -0.0989  0.2826
   65MOL    C2224470   0.063   6.247   7.641  0.7779 -0.5778  0.2107
   65MOL    O2324471   0.123   6.125   7.597  0.1035 -0.5999 -0.4638
   65MOL    C2424472   0.252   6.100   7.647 -0.5188 -0.3512  1.4169
   65MOL    C2524473   0.311   5.981   7.563  0.2825 -0.5175  0.5582
   65MOL    C2624474   0.303   6.005   7.414 -0.3975  0.3257  0.3291
   65MOL    C2724475   0.463   5.952   7.603  0.4907 -0.2838 -0.4441
   65MOL    H2824476   0.045   6.154   7.824 -0.0032  0.2800  0.6062
   65MOL    H2924477   7.710   6.159   7.743  0.0267 -0.7427  1.4415
   65MOL    H3024478   0.142   6.317   7.671  0.7627  0.4897 -2.1948
   65MOL    H3124479   0.259   6.064   7.750  1.1087 -0.8935  1.1461
   65MOL    H3224480   0.311   6.191   7.639 -1.0458 -0.2908 -2.7883
   65MOL    H3324481   0.246   5.896   7.587 -0.4029 -0.0387  0.4227
   65MOL    H3424482   0.198   5.998   7.385 -0.1991 -2.0651  0.1040
   65MOL    H3524483   0.358   5.931   7.356  0.3696  0.5635  0.7539
   65MOL    H3624484   0.329   6.106   7.383 -0.8739 -0.2341 -2.0534
   65MOL    H3724485   0.499   5.862   7.553 -2.2299 -1.1889 -0.8499
   65MOL    H3824486   0.530   6.028   7.563  0.0495  0.4605  0.2212
   65MOL    H3924487   0.486   5.939   7.709 -1.8220 -1.0401 -0.0162
   65MOL    C4024488   7.814   6.324   7.530 -0.1220 -0.3682  0.5678
   65MOL    C4124489   7.682   6.267   7.471 -0.6122  1.1290  0.5599
   65MOL    O4224490   7.580   6.301   7.559  0.6462  0.0836  0.0632
   65MOL    C4324491   7.524   6.434   7.537 -0.5898  0.5386 -0.5251
   65MOL    C4424492   7.392   6.434   7.611 -0.1436 -0.4288  0.3621
   65MOL    C4524493   7.400   6.400   7.761 -0.2774 -0.1091  0.4732
   65MOL    C4624494   7.317   6.570   7.591  0.1269 -1.2760  0.2710
   65MOL    H4724495   0.066   6.341   7.455  0.0926 -0.3669  0.7863
   65MOL    H4824496   7.798   6.424   7.572 -0.7273 -0.9007  1.6256
   65MOL    H4924497   7.672   6.318   7.375 -2.2496  0.7848  0.5331
   65MOL    H5024498   7.510   6.446   7.430  1.2623  0.1453 -0.8309
   65MOL    H5124499   7.588   6.512   7.577  0.8830 -1.4799  1.1927
   65MOL    H5224500   7.332   6.357   7.560  1.4609 -2.1592  1.0373
   65MOL    H5324501   7.431   6.296   7.771  0.3769  0.2360  2.3285
   65MOL    H5424502   7.475   6.470   7.799 -1.0799  0.2637  1.4141
   65MOL    H5524503   7.303   6.404   7.812 -1.1072  0.6509 -1.1538
   65MOL    H5624504   7.383   6.652   7.619 -0.3989 -1.1352  1.1476
   65MOL    H5724505   7.221   6.583   7.642 -0.2779  1.4871 -1.1394
   65MOL    H5824506   7.302   6.587   7.485 -1.4164  0.7605  0.7857
   65MOL    C5924507   7.663   6.115   7.450 -0.1113  0.4379 -0.6868
   65MOL    C6024508   7.527   6.087   7.385  0.1984 -0.0954  0.8236
   65MOL    O6124509   7.496   5.949   7.372 -0.1020 -0.3220 -0.1217
   65MOL    C6224510   7.432   5.890   7.484 -0.4338 -0.0808 -0.3570
   65MOL    C6324511   7.409   5.745   7.490  0.1179  0.2617 -0.2827
   65MOL    C6424512   7.367   5.687   7.623  0.4585 -0.1665 -0.0160
   65MOL    C6524513   7.322   5.698   7.368  0.1919 -0.6747 -0.5565
   65MOL    H6624514   7.665   6.058   7.543 -0.3734 -0.6575 -1.3384
   65MOL    H6724515   7.748   6.075   7.395  0.6309  1.4779 -0.3031
   65MOL    H6824516   7.446   6.132   7.442  0.7330  0.6204  1.0361
   65MOL    H6924517   7.492   5.912   7.572  0.2276 -0.6067 -0.6757
   65MOL    H7024518   7.333   5.933   7.499  0.0756  0.5262  1.3381
   65MOL    H7124519   7.506   5.698   7.474 -0.0701 -0.8907  1.8978
   65MOL    H7224520   7.378   5.578   7.624  1.3135 -0.0929 -0.7961
   65MOL    H7324521   7.263   5.709   7.644 -0.1250 -1.5358 -1.4105
   65MOL    H7424522   7.427   5.729   7.704  0.0536 -1.7702  1.1417
   65MOL    H7524523   7.310   5.589   7.372  0.6477 -0.7399 -0.9198
   65MOL    H7624524   7.218   5.729   7.365  0.4884  0.2114 -1.6974
   65MOL    H7724525   7.374   5.718   7.275  2.6676  2.2236  1.3328
   65MOL    C7824526   7.521   6.141   7.240 -0.1582  0.9613 -0.1912
   65MOL    C7924527   7.387   6.120   7.165  0.4710 -0.4631 -0.6413
   65MOL    O8024528   7.293   6.189   7.237  0.1023  0.5277  0.2232
   65MOL    C8124529   7.162   6.140   7.226 -0.0248  0.8220  0.0021
   65MOL    C8224530   7.075   6.212   7.335  0.2681  0.4876 -0.2773
   65MOL    C8324531   7.079   6.370   7.321 -0.3919  0.4083  0.5625
   65MOL    C8424532   7.103   6.171   7.479  0.0598 -1.0713 -0.5831
   65MOL    H8524533   7.616   6.111   7.196 -1.1582  1.1466 -2.5313
   65MOL    H8624534   7.527   6.250   7.248 -0.9393  1.1997 -2.4780
   65MOL    H8724535   7.356   6.015   7.159 -1.9197  0.1208  0.8563
   65MOL    H8824536   7.117   6.131   7.127 -0.3031 -0.0211  0.1987
   65MOL    H8924537   7.167   6.033   7.248 -0.6428  0.7247 -0.3144
   65MOL    H9024538   6.972   6.189   7.307  0.0181 -0.4666  1.3820
   65MOL    H9124539   7.065   6.415   7.419 -1.5920  2.1142 -0.3776
   65MOL    H9224540   7.012   6.417   7.250 -1.6497 -0.7651  0.9492
   65MOL    H9324541   7.176   6.409   7.292 -0.7873  0.4376 -0.7406
   65MOL    H9424542   7.068   6.068   7.479 -0.0349 -1.0433 -2.2815
   65MOL    H9524543   7.048   6.227   7.555  1.6385  1.3891 -1.1837
   65MOL    H9624544   7.211   6.165   7.497  0.3122  0.3328 -1.5204
   65MOL    C9724545   7.397   6.200   7.028 -0.2852 -0.5549 -0.1239
   65MOL    C9824546   7.523   6.167   6.937 -0.4621 -0.4518 -0.0923
   65MOL    O9924547   7.518   6.241   6.815 -0.4444 -0.1378 -0.3229
   65MOL   C10024548   7.543   6.381   6.815  0.0871 -0.5521 -0.0191
   65MOL   C10124549   7.498   6.449   6.681 -0.0342  0.2378 -0.2903
   65MOL   C10224550   7.499   6.606   6.702  0.2093  0.0975  0.0863
   65MOL   C10324551   7.600   6.423   6.562 -0.9139  0.3107  0.3730
   65MOL   H10424552   7.394   6.308   7.037 -0.5299 -0.6818  1.4913
   65MOL   H10524553   7.316   6.164   6.964  0.0291 -3.1075  0.8562
   65MOL   H10624554   7.614   6.204   6.984  0.2442 -1.1086 -0.9283
   65MOL   H10724555   7.642   6.415   6.847 -1.3638  0.5389  3.5081
   65MOL   H10824556   7.474   6.424   6.888  0.4182 -0.9966  0.5633
   65MOL   H10924557   7.396   6.419   6.659 -1.1000  0.1848  4.1954
   65MOL   H11024558   7.587   6.648   6.751  0.6185 -1.9137  1.1194
   65MOL   H11124559   7.492   6.656   6.605 -1.2197  1.7731  1.0237
   65MOL   H11224560   7.412   6.649   6.753 -1.7738 -1.6917 -1.7172
   65MOL   H11324561   7.569   6.452   6.462  0.1201 -2.0773 -0.6783
   65MOL   H11424562   7.698   6.464   6.584 -1.1911 -0.1817  2.7156
   65MOL   H11524563   7.605   6.315   6.545 -2.9719  0.6474 -2.8580
   65MOL   C11624564   7.543   6.019   6.914 -1.0943 -0.2107  1.3720
   65MOL   C11724565   7.652   5.981   6.807  0.0330  0.5521 -0.1817
   65MOL   O11824566   7.778   6.010   6.859  0.0386 -0.3939 -0.2498
   65MOL   C11924567   0.015   6.123   6.791  0.6252  0.0525  0.8364
   65MOL   C12024568   0.155   6.138   6.855  0.0772  0.5940 -0.0527
   65MOL   C12124569   0.152   6.190   7.005 -0.6037  0.0214 -0.6319
   65MOL   C12224570   0.238   6.012   6.829  0.1635 -0.4143  0.7821
   65MOL   H12324571   7.568   5.971   7.009  1.2958  0.9568  1.3754
   65MOL   H12424572   7.450   5.978   6.876 -0.4523 -1.5958  1.2461
   65MOL   H12524573   7.634   6.044   6.720  1.0094 -1.4679 -1.8805
   65MOL   H12624574   7.784   6.216   6.786  0.4385  0.1177  3.5029
   65MOL   H12724575   0.028   6.103   6.685  2.1889  0.8230  0.8725
   65MOL   H12824576   0.212   6.207   6.792 -0.1959  3.0207  2.2714
   65MOL   H12924577   0.114   6.117   7.076 -2.6613  0.3750 -1.3327
   65MOL   H13024578   0.101   6.283   7.028  0.6600  0.0855  2.1073
   65MOL   H13124579   0.249   6.225   7.040  0.0774  0.3003 -2.7110
   65MOL   H13224580   0.197   5.931   6.888  0.1402 -0.4640  0.6977
   65MOL   H13324581   0.246   5.986   6.723  1.9370 -0.3241  0.8875
   65MOL   H13424582   0.336   6.029   6.873  0.2108  3.2078 -0.5398
   65MOL   C13524583   7.631   5.830   6.772  0.2229  0.3786  0.5215
   65MOL   C13624584   7.727   5.774   6.664 -0.1179 -0.3591  0.3473
   65MOL   O13724585   7.685   5.638   6.635 -0.3800 -0.5420  0.4353
   65MOL   C13824586   7.748   5.545   6.719  0.0483 -0.5885  0.2437
   65MOL   C13924587   7.690   5.406   6.698 -0.8661  0.3372  0.0524
   65MOL   C14024588   7.755   5.308   6.803 -0.4189 -0.4178 -0.4592
   65MOL   C14124589   7.542   5.404   6.705  0.0209  0.3179 -0.2195
   65MOL   H14224590   7.617   5.785   6.870 -0.7516  2.8182  1.5579
   65MOL   H14324591   7.528   5.822   6.738 -1.2221  1.7117  4.3662
   65MOL   H14424592   0.007   5.779   6.697  0.4391  2.9603 -1.6845
   65MOL   H14524593   7.735   5.580   6.821  2.1903 -1.5119  0.8625
   65MOL   H14624594   0.030   5.552   6.696  0.3246  0.1709  1.7263
   65MOL   H14724595   7.713   5.376   6.596 -0.7275 -0.0621  0.1998
   65MOL   H14824596   7.763   5.356   6.900  0.5958 -0.6381 -0.4314
   65MOL   H14924597   0.030   5.300   6.761 -0.4215 -1.8870 -0.1869
   65MOL   H15024598   7.705   5.213   6.823  0.1351 -0.9546 -1.5909
   65MOL   H15124599   7.492   5.468   6.632 -0.9220 -1.2204 -0.9425
   65MOL   H15224600   7.504   5.303   6.690 -1.8481  0.5631  2.4254
   65MOL   H15324601   7.506   5.446   6.799  0.0488 -0.5764  0.1917
   65MOL   C15424602   7.701   5.856   6.527  0.7634 -0.0682 -0.0460
   65MOL   C15524603   7.773   5.796   6.406  0.0001 -0.1429 -0.0040
   65MOL   O15624604   7.732   5.878   6.296 -0.1642 -0.0119 -0.2172
   65MOL   C15724605   7.609   5.864   6.233  0.2527  0.0161  0.7126
   65MOL   C15824606   7.626   5.951   6.110  0.0305  0.6351  0.3534
   65MOL   C15924607   7.499   5.943   6.024  0.9781  0.7526  0.0460
   65MOL   C16024608   7.666   6.103   6.135  0.1568 -0.0919 -0.4956
   65MOL   H16124609   7.744   5.956   6.538 -0.0629  0.0615  2.3598
   65MOL   H16224610   7.594   5.854   6.506  0.8021  0.6489 -0.3043
   65MOL   H16324611   7.745   5.692   6.388 -0.6605 -0.0993  0.7183
   65MOL   H16424612   7.536   5.907   6.302 -1.3263 -0.4477 -0.6445
   65MOL   H16524613   7.578   5.767   6.196  1.4040 -0.5880  1.2997
   65MOL   H16624614   7.704   5.911   6.044 -1.1079 -1.2757  0.1457
   65MOL   H16724615   7.419   5.995   6.078  0.3916 -1.6339  1.5743
   65MOL   H16824616   7.472   5.838   6.013 -0.2648  1.2443 -1.7916
   65MOL   H16924617   7.528   5.990   5.930 -0.5062 -1.1516 -1.3964
   65MOL   H17024618   7.735   6.128   6.216 -0.5837 -0.9591  0.4098
   65MOL   H17124619   7.696   6.155   6.044  1.6826  0.5380  0.3432
   65MOL   H17224620   7.582   6.162   6.172  0.1768 -0.3790  0.0134
   65MOL   C17324621   0.097   5.801   6.417 -0.2671 -0.1059 -0.3797
   65MOL   C17424622   0.178   5.735   6.312  0.3013 -0.3089 -0.1643
   65MOL   O17524623   0.173   5.592   6.340  0.3921 -0.1500  0.9768
   65MOL   C17624624   0.290   5.518   6.307  0.3046 -0.7299  0.1046
   65MOL   C17724625   0.273   5.374   6.360 -0.4953  0.0232 -0.3104
   65MOL   C17824626   0.252   5.380   6.512 -0.2998  0.2282  0.1874
   65MOL   C17924627   0.154   5.297   6.301 -0.2257 -0.3881 -0.0300
   65MOL   H18024628   0.123   5.907   6.419 -1.2279  0.1654 -1.3837
   65MOL   H18124629   0.128   5.757   6.512 -1.0864 -0.9967 -0.5208
   65MOL   H18224630   0.279   5.761   6.342 -0.0638 -0.3965  1.1485
   65MOL   H18324631   0.382   5.545   6.360 -0.6854 -0.2856  1.6449
   65MOL   H18424632   0.301   5.534   6.200 -3.3147 -0.9531 -0.3490
   65MOL   H18524633   0.360   5.313   6.334  0.4716  1.5891 -0.8032
   65MOL   H18624634   0.168   5.449   6.513 -0.7904 -0.3338 -1.5482
   65MOL   H18724635   0.220   5.289   6.563  0.8850 -0.9425 -1.1257
   65MOL   H18824636   0.340   5.414   6.568 -1.3012  1.1607  1.2069
   65MOL   H18924637   0.063   5.348   6.335  0.6033  0.6106  0.7197
   65MOL   H19024638   0.144   5.194   6.333  0.1084 -0.6084 -0.6366
   65MOL   H19124639   0.152   5.305   6.192  1.8950 -4.0036 -0.4101
   65MOL   C19224640   0.141   5.786   6.169  0.1243 -0.4909 -0.2169
   65MOL   C19324641   0.249   5.768   6.056 -0.4512 -0.1632 -0.0132
   65MOL   O19424642   0.263   5.630   6.009  0.7995 -0.0159 -0.1007
   65MOL   C19524643   0.154   5.551   5.968  0.3784  0.4254 -0.1602
   65MOL   C19624644   0.202   5.418   5.916 -0.4130 -0.2834  0.7302
   65MOL   C19724645   0.279   5.438   5.779 -0.2430 -0.2481  0.1827
   65MOL   C19824646   0.091   5.319   5.900 -0.3638 -0.1005 -0.0956
   65MOL   H19924647   0.132   5.895   6.179  0.5997 -0.5350  0.7133
   65MOL   H20024648   0.045   5.742   6.140 -0.3692  1.2051 -1.2521
   65MOL   H20124649   0.210   5.825   5.971  0.8123 -1.2495 -1.3591
   65MOL   H20224650   0.087   5.608   5.904 -1.3876  1.1256  2.2625
   65MOL   H20324651   0.097   5.526   6.057 -1.4361 -0.7402 -1.6093
   65MOL   H20424652   0.260   5.376   5.998  0.0219 -4.2248 -1.4394
   65MOL   H20524653   0.310   5.346   5.730  0.6367 -0.5989  1.3791
   65MOL   H20624654   0.217   5.492   5.708 -0.6804 -3.0522 -1.6201
   65MOL   H20724655   0.364   5.505   5.796 -0.3947  0.9237 -3.2843
   65MOL   H20824656   0.130   5.224   5.865 -1.4059 -1.5725  2.5926
   65MOL   H20924657   0.043   5.294   5.994 -0.3860 -2.5977 -0.7398
   65MOL   H21024658   0.019   5.354   5.826 -1.0912 -0.5484  0.3944
   65MOL   C21124659   0.390   5.830   6.096 -0.0111 -0.0022 -0.5994
   65MOL   C21224660   0.504   5.817   5.990 -0.0029 -0.6056 -0.5570
   65MOL   O21324661   0.462   5.907   5.888  0.7209  0.4936 -0.4956
   65MOL   C21424662   0.411   5.851   5.771  0.3502  0.6721 -0.1827
   65MOL   C21524663   0.533   5.814   5.683  0.6575  0.8190  0.1950
   65MOL   C21624664   0.484   5.738   5.557 -0.3762 -0.0090  0.0645
   65MOL   C21724665   0.609   5.934   5.631 -0.1214 -0.6858 -0.9907
   65MOL   H21824666   0.425   5.766   6.178 -1.5899  1.2851  1.1278
   65MOL   H21924667   0.379   5.934   6.129 -2.1859 -0.4814  0.2150
   65MOL   H22024668   0.500   5.714   5.956  0.6470 -1.0789  0.8108
   65MOL   H22124669   0.345   5.921   5.719  0.9679  1.8626  0.6146
   65MOL   H22224670   0.363   5.754   5.785  0.7011  0.0567 -2.9423
   65MOL   H22324671   0.607   5.751   5.731 -0.7628 -1.3942 -0.4373
   65MOL   H22424672   0.412   5.657   5.570  1.2283 -1.3712  0.5879
   65MOL   H22524673   0.427   5.811   5.498 -0.7954 -0.6412 -0.3166
   65MOL   H22624674   0.563   5.707   5.489  1.0104 -0.6881  1.9651
   65MOL   H22724675   0.538   5.999   5.580  0.2863  1.6634  1.3495
   65MOL   H22824676   0.691   5.912   5.562  2.9931 -0.2015  2.4176
   65MOL   H22924677   0.640   6.000   5.712 -0.6739  0.4944 -1.7302
   65MOL   C23024678   0.637   5.871   6.043  0.1524 -0.1615  0.1128
   65MOL   C23124679   0.714   5.789   6.150  0.6775  0.3284 -0.7398
   65MOL   O23224680   0.727   5.649   6.105 -0.2027 -0.2680  0.0437
   65MOL   C23324681   0.734   5.546   6.195  1.3541 -0.1555 -0.6803
   65MOL   C23424682   0.710   5.418   6.124  0.5290 -0.0571  0.8114
   65MOL   C23524683   0.693   5.300   6.218  0.4006 -0.0249 -0.7357
   65MOL   C23624684   0.582   5.420   6.028 -0.1441  0.0914  0.0900
   65MOL   H23724685   0.613   5.971   6.079  0.2678  1.0732 -3.1066
   65MOL   H23824686   0.701   5.897   5.959  0.4721  0.6818  0.6125
   65MOL   H23924687   0.659   5.788   6.244  0.2446 -1.2221 -0.9999
   65MOL   H24024688   0.815   5.540   6.268 -1.4584 -1.7591  2.5122
   65MOL   H24124689   0.649   5.569   6.260  1.3251  0.7692 -1.0386
   65MOL   H24224690   0.792   5.412   6.053  0.6140 -1.4343  1.0197
   65MOL   H24324691   0.595   5.296   6.266  0.0972  2.1113 -1.1517
   65MOL   H24424692   0.762   5.292   6.302  0.6121 -1.3117 -1.0205
   65MOL   H24524693   0.704   5.213   6.154 -0.0157  0.9608 -2.1709
   65MOL   H24624694   0.556   5.321   5.991 -1.3171 -0.0170  1.1999
   65MOL   H24724695   0.499   5.460   6.086  0.3552  2.4846 -0.7800
   65MOL   H24824696   0.607   5.495   5.952 -0.5820 -2.2222 -2.3855
   65MOL   C24924697   0.853   5.848   6.180  1.0106 -0.0663 -0.0802
   65MOL   C25024698   0.860   5.966   6.277 -0.8393  0.4906  0.7663
   65MOL   O25124699   0.815   5.921   6.409  0.3526  0.4479  0.2262
   65MOL   C25224700   0.706   6.007   6.458 -0.1670  0.7045  0.3310
   65MOL   C25324701   0.642   5.953   6.585  0.2372 -0.4114 -0.2755
   65MOL   C25424702   0.548   5.836   6.527 -0.1094 -0.1901 -0.3958
   65MOL   C25524703   0.549   6.046   6.674  0.4150 -0.3255  0.8230
   65MOL   H25624704   0.904   5.874   6.087  1.2897 -0.1837  0.0407
   65MOL   H25724705   0.905   5.771   6.236  3.1534  2.1555  1.0699
   65MOL   H25824706   0.782   6.029   6.235 -0.0919  1.5709  0.9761
   65MOL   H25924707   0.754   6.094   6.504  0.3648  0.5585  0.0611
   65MOL   H26024708   0.629   6.054   6.397 -0.1194  1.7073  1.0257
   65MOL   H26124709   0.726   5.914   6.643 -1.6135 -1.6288  1.6386
   65MOL   H26224710   0.590   5.798   6.434 -0.8276  0.6967 -1.1004
   65MOL   H26324711   0.450   5.871   6.493  0.2523  1.6884  0.4114
   65MOL   H26424712   0.525   5.760   6.600  2.0750 -1.7822 -1.3026
   65MOL   H26524713   0.613   6.127   6.710  1.8288 -2.0849  2.3534
   65MOL   H26624714   0.461   6.088   6.626 -0.0499 -0.1475  1.8075
   65MOL   H26724715   0.515   5.989   6.761 -2.5420  0.7388  0.4324
   65MOL   C26824716   0.998   6.033   6.284  0.4905  0.0674 -0.2389
   65MOL   C26924717   1.002   6.182   6.342 -0.2688 -0.5359  0.1040
   65MOL   O27024718   0.910   6.263   6.272 -0.5802 -0.1936  0.4324
   65MOL   C27124719   0.859   6.369   6.357 -0.5802 -0.1485  0.3190
   65MOL   C27224720   0.764   6.455   6.268  0.1521  0.7874 -0.2025
   65MOL   C27324721   0.646   6.374   6.224  0.9283 -0.6652 -0.2645
   65MOL   C27424722   0.734   6.591   6.338 -0.3280 -0.0645 -0.4132
   65MOL   H27524723   1.032   6.045   6.181  0.9770 -1.6904 -0.2864
   65MOL   H27624724   1.063   5.973   6.348 -0.9358 -1.7537 -0.4847
   65MOL   H27724725   0.983   6.172   6.449  0.4186 -1.8311  0.1167
   65MOL   H27824726   0.789   6.325   6.428 -1.2242 -1.4690 -1.0883
   65MOL   H27924727   0.932   6.428   6.412 -0.9942  1.2091 -0.5892
   65MOL   H28024728   0.819   6.484   6.178  1.1827  0.4167  0.3115
   65MOL   H28124729   0.678   6.295   6.156 -0.1278  0.3806 -2.0081
   65MOL   H28224730   0.575   6.433   6.165 -0.6539 -2.8790 -0.6734
   65MOL   H28324731   0.593   6.332   6.310  0.0470 -1.6988 -1.2846
   65MOL   H28424732   0.662   6.645   6.276  1.4579  3.3579  0.3896
   65MOL   H28524733   0.827   6.648   6.344 -0.3360  0.2231 -2.6032
   65MOL   H28624734   0.690   6.570   6.435 -0.3171 -1.1053 -0.6327
   65MOL   C28724735   1.149   6.232   6.322 -0.3397  0.7326  0.1736
   65MOL   C28824736   1.254   6.168   6.411 -0.0889  0.8167 -0.1889
   65MOL   O28924737   1.215   6.146   6.544 -0.4337  0.4601 -0.2810
   65MOL   C29024738   1.270   6.033   6.599 -0.2889  0.2767  0.6710
   65MOL   C29124739   1.254   6.039   6.752 -0.1308  0.3668  1.1200
   65MOL   C29224740   1.108   6.077   6.793  0.2289 -0.2251 -0.4283
   65MOL   C29324741   1.358   6.135   6.815  0.3586 -0.4732 -0.4920
   65MOL   H29424742   1.158   6.340   6.330  1.9205  0.6229 -0.6475
   65MOL   H29524743   1.180   6.194   6.225  0.6928  3.4985 -0.5957
   65MOL   H29624744   1.280   6.075   6.361 -1.3891 -0.2386  1.0807
   65MOL   H29724745   1.222   5.943   6.562 -0.8072 -0.2301  2.5337
   65MOL   H29824746   1.371   6.015   6.561 -0.6406 -1.2621  0.4448
   65MOL   H29924747   1.277   5.938   6.788  1.4836  0.9205  1.7125
   65MOL   H30024748   1.030   6.009   6.760  2.7870 -2.1138 -2.8394
   65MOL   H30124749   1.085   6.182   6.780  1.2662  0.2048  1.0683
   65MOL   H30224750   1.095   6.054   6.899  1.0866  2.8970  0.3954
   65MOL   H30324751   1.353   6.236   6.774  2.3388 -0.9425 -1.9887
   65MOL   H30424752   1.351   6.135   6.923 -1.8024 -0.1540 -0.6020
   65MOL   H30524753   1.459   6.098   6.800  0.3696 -0.8220  0.4197
   65MOL   C30624754   1.384   6.270   6.415  0.4423  0.5739 -0.4562
   65MOL   C30724755   1.495   6.250   6.311 -0.6011 -0.3066 -0.2256
   65MOL   O30824756   1.447   6.274   6.180 -0.0946 -0.3012  0.2845
   65MOL   C30924757   1.450   6.163   6.100  0.5668 -0.3990  0.1617
   65MOL   C31024758   1.381   6.186   5.961  0.0993 -0.8790 -0.6486
   65MOL   C31124759   1.351   6.060   5.886 -0.0179  0.7809 -0.0337
   65MOL   C31224760   1.452   6.296   5.879  0.0377  0.4004  0.0295
   65MOL   H31324761   1.427   6.253   6.514 -2.3678 -1.3678  0.4792
   65MOL   H31424762   1.363   6.377   6.412 -1.8611  0.1278 -1.2982
   65MOL   H31524763   1.536   6.148   6.315  3.4609  1.1632 -1.6215
   65MOL   H31624764   1.386   6.083   6.139 -0.7168  1.4143  1.8544
   65MOL   H31724765   1.550   6.122   6.082  0.9374 -1.2910  3.9486
   65MOL   H31824766   1.284   6.227   5.986  0.1215 -0.5725 -1.0590
   65MOL   H31924767   1.308   6.081   5.788 -0.8081 -0.3004  0.0690
   65MOL   H32024768   1.285   5.993   5.940  0.7481  1.9808  2.4348
   65MOL   H32124769   1.443   6.001   5.883 -0.4879  0.0993 -2.5845
   65MOL   H32224770   1.556   6.271   5.855  0.5414  0.6106  1.9223
   65MOL   H32324771   1.456   6.386   5.940 -1.3725  0.8889 -0.5764
   65MOL   H32424772   1.395   6.311   5.787  0.5916  2.1406 -0.0407
   65MOL   C32524773   1.609   6.350   6.340  0.4487  0.8588 -0.1154
   65MOL   C32624774   1.742   6.322   6.259 -0.0984  0.6763 -0.3551
   65MOL   O32724775   1.848   6.406   6.297  0.0078  0.1264  0.0665
   65MOL   C32824776   1.876   6.517   6.215  0.2158  0.0057 -0.8862
   65MOL   C32924777   1.987   6.600   6.297 -0.8612  0.7249  0.3239
   65MOL   C33024778   2.116   6.516   6.332 -0.4857 -0.3124 -0.0431
   65MOL   C33124779   2.036   6.709   6.207 -0.1071  0.5260 -0.2641
   65MOL   H33224780   1.632   6.340   6.447  0.6068 -0.6210 -0.2807
   65MOL   H33324781   1.577   6.454   6.332  1.7372  1.4666  2.0127
   65MOL   H33424782   1.718   6.332   6.153  0.7986 -0.6303 -0.7027
   65MOL   H33524783   1.906   6.487   6.115 -0.1189 -2.0490 -0.3866
   65MOL   H33624784   1.784   6.574   6.201 -1.7950 -2.9904 -0.4550
   65MOL   H33724785   1.948   6.639   6.391 -0.1900  3.5252 -0.5038
   65MOL   H33824786   2.195   6.579   6.372 -1.1550  0.2732  0.3712
   65MOL   H33924787   2.096   6.428   6.394  1.9842 -1.4973 -0.8730
   65MOL   H34024788   2.158   6.472   6.242 -0.4693  0.7892 -0.5771
   65MOL   H34124789   2.082   6.787   6.267 -0.7317  0.9635 -0.3543
   65MOL   H34224790   2.101   6.663   6.133  0.7747 -0.2810  0.9988
   65MOL   H34324791   1.946   6.756   6.168  0.4688  0.7028 -1.3808
   65MOL   C34424792   1.797   6.176   6.270 -0.4416  0.3243 -0.0089
   65MOL   C34524793   1.931   6.151   6.189  0.2175  0.3075 -1.1753
   65MOL   O34624794   2.008   6.041   6.247  0.4247 -0.2159 -0.1590
   65MOL   C34724795   2.058   6.053   6.378 -0.0907 -0.1315  0.8617
   65MOL   C34824796   2.144   5.939   6.414  0.1227  0.7232 -0.4941
   65MOL   C34924797   2.196   5.950   6.563  0.1949 -0.1784 -0.3466
   65MOL   C35024798   2.266   5.922   6.317  0.3884 -0.1817  0.4521
   65MOL   H35124799   1.727   6.096   6.247  0.4132 -0.9949  1.8523
   65MOL   H35224800   1.812   6.160   6.377  1.4522 -1.3798 -0.4914
   65MOL   H35324801   1.991   6.240   6.206 -0.3879  0.8950 -2.0859
   65MOL   H35424802   1.986   6.067   6.459  1.5178  1.1840  2.0951
   65MOL   H35524803   2.118   6.143   6.387  1.1563 -0.8584 -0.1258
   65MOL   H35624804   2.093   5.843   6.406  0.3380  0.4113  1.4291
   65MOL   H35724805   2.119   5.961   6.638 -0.1618  2.2633 -1.0046
   65MOL   H35824806   2.253   6.043   6.575  0.4574 -0.3024 -0.6021
   65MOL   H35924807   2.271   5.875   6.588 -0.2756  0.0975  2.0249
   65MOL   H36024808   2.345   5.996   6.330  1.6215 -1.5920  1.1644
   65MOL   H36124809   2.322   5.830   6.333  0.7100  0.4069  2.9926
   65MOL   H36224810   2.228   5.937   6.216 -1.9491  0.1451  1.3331
   65MOL   C36324811   1.913   6.137   6.039  0.2798  0.4356 -0.8204
   65MOL   C36424812   2.044   6.117   5.965  0.1350  0.1898 -0.3904
   65MOL   O36524813   2.033   6.098   5.829 -0.4254 -0.2336 -0.0009
   65MOL   C36624814   2.156   6.084   5.757 -0.3025 -0.3113 -0.3199
   65MOL   C36724815   2.213   5.938   5.753  0.2601 -0.6466  0.0151
   65MOL   C36824816   2.345   5.922   5.666 -0.0747 -0.1956  0.1689
   65MOL   C36924817   2.103   5.849   5.706 -0.0181  0.6129  0.2313
   65MOL   H37024818   1.860   6.043   6.026  2.1506 -0.8993  0.8606
   65MOL   H37124819   1.860   6.224   5.999 -1.2802 -0.1355 -0.0779
   65MOL   H37224820   2.076   6.021   6.006  0.2804  0.6626  0.6372
   65MOL   H37324821   2.147   6.114   5.652 -0.7999 -1.3335 -0.5682
   65MOL   H37424822   2.222   6.160   5.799 -0.7374 -0.1400  0.0491
   65MOL   H37524823   2.235   5.912   5.856  3.5203  2.1201  0.0771
   65MOL   H37624824   2.429   5.969   5.717  0.6782 -1.3808  0.0337
   65MOL   H37724825   2.327   5.968   5.569  0.1302  1.6254  0.9663
   65MOL   H37824826   2.370   5.817   5.650 -1.7151 -0.6409  0.4537
   65MOL   H37924827   2.134   5.747   5.727  0.8111  0.6878 -0.5851
   65MOL   H38024828   2.073   5.863   5.602  1.3121  0.6290 -0.1658
   65MOL   H38124829   2.010   5.848   5.762 -1.0743  0.0972 -1.5182
   65MOL   H38224830   2.113   6.197   5.991 -1.0619  0.9895  0.3992
   66MOL     C124831   4.626   6.903   0.857 -0.5834 -0.6465 -0.3514
   66MOL     C224832   4.625   7.055   0.886  0.6739 -0.3309  0.1034
   66MOL     O324833   4.756   7.107   0.857 -0.0473 -0.0968  0.6496
   66MOL     C424834   4.868   7.071   0.937 -0.1217  0.0231 -0.1512
   66MOL     C524835   4.991   7.143   0.879  0.1479  0.0314  0.2595
   66MOL     C624836   4.965   7.289   0.841 -0.6535 -0.7739  0.4433
   66MOL     C724837   5.034   7.074   0.760  0.1092 -0.3304 -0.2440
   66MOL     H824838   4.534   6.849   0.874  0.5638 -2.5081  0.0503
   66MOL     H924839   4.648   6.884   0.752  1.2346 -1.2497  0.1032
   66MOL    H1024840   4.606   7.075   0.992 -3.2892 -0.4307 -0.5279
   66MOL    H1124841   4.876   6.962   0.935  1.8476  0.1816 -2.6032
   66MOL    H1224842   4.836   7.102   1.037 -0.0522  1.2191 -0.4969
   66MOL    H1324843   5.078   7.144   0.944 -1.4146  2.7833  2.4153
   66MOL    H1424844   4.912   7.324   0.930  0.7040  0.9788  0.5879
   66MOL    H1524845   5.053   7.352   0.831  0.2477 -1.8856  1.2857
   66MOL    H1624846   4.915   7.309   0.746  0.5183  1.4142  0.2497
   66MOL    H1724847   5.075   6.976   0.785 -0.4888 -0.6934 -0.6570
   66MOL    H1824848   4.957   7.053   0.685  1.2918  0.5465 -1.7355
   66MOL    H1924849   5.117   7.134   0.723  0.8394 -0.2217  1.5082
   66MOL    H2024850   4.701   6.850   0.916 -2.6025 -1.0001  1.9894
   66MOL    C2124851   4.521   7.138   0.810 -0.1028  0.1519  0.1796
   66MOL    C2224852   4.376   7.112   0.847  0.0675 -0.3982 -0.6636
   66MOL    O2324853   4.334   7.148   0.979 -0.2061  0.4100  0.4799
   66MOL    C2424854   4.294   7.033   1.052  0.1352 -0.3739  0.1584
   66MOL    C2524855   4.288   7.065   1.200 -0.1221  0.7183  0.7051
   66MOL    C2624856   4.437   7.063   1.245  0.5245  0.5489 -0.1376
   66MOL    C2724857   4.206   7.184   1.239 -0.0281 -0.2314 -0.2649
   66MOL    H2824858   4.549   7.242   0.827 -0.3692  0.2982 -0.2582
   66MOL    H2924859   4.540   7.121   0.704 -0.5277 -1.2864  0.3207
   66MOL    H3024860   4.353   7.007   0.828  0.7593 -0.8604  1.0162
   66MOL    H3124861   4.366   6.955   1.030 -0.8500 -1.2852  0.1039
   66MOL    H3224862   4.204   6.993   1.004 -0.9832  0.5631  1.4194
   66MOL    H3324863   4.242   6.974   1.237  0.5155 -0.0861 -0.4369
   66MOL    H3424864   4.500   6.990   1.194 -0.6317  0.0751 -0.9256
   66MOL    H3524865   4.442   7.046   1.352  1.0221 -0.2294 -0.2776
   66MOL    H3624866   4.482   7.159   1.220  0.5999 -0.0502 -2.4327
   66MOL    H3724867   4.192   7.204   1.345  0.2231 -0.6911 -0.1423
   66MOL    H3824868   4.262   7.269   1.198  2.4206 -2.3062 -1.3582
   66MOL    H3924869   4.113   7.186   1.182  0.8729 -1.8322 -1.8251
   66MOL    C4024870   4.277   7.195   0.756  0.0121  0.0917 -0.5253
   66MOL    C4124871   4.122   7.174   0.775  0.1856 -0.3291 -0.2200
   66MOL    O4224872   4.085   7.057   0.697  0.0761  0.0730 -0.4983
   66MOL    C4324873   4.015   6.958   0.761 -0.0273  0.9127  0.7202
   66MOL    C4424874   3.967   6.863   0.651 -0.2277 -0.0437  0.3319
   66MOL    C4524875   3.897   6.731   0.712  0.5980  0.2843  0.4351
   66MOL    C4624876   3.886   6.929   0.542 -0.4557 -0.1679  0.1842
   66MOL    H4724877   4.310   7.185   0.653  1.7967  0.3471  0.0131
   66MOL    H4824878   4.298   7.299   0.780  0.3312  0.8147 -3.6716
   66MOL    H4924879   4.095   7.157   0.879  1.6155  2.4912  0.6471
   66MOL    H5024880   3.935   6.996   0.823 -0.9937 -0.8284  0.5609
   66MOL    H5124881   4.076   6.907   0.836  0.5778  0.5626 -0.0009
   66MOL    H5224882   4.051   6.816   0.599 -1.0684 -0.7414 -0.4234
   66MOL    H5324883   3.880   6.658   0.633  0.0218 -0.3857  1.1737
   66MOL    H5424884   3.962   6.690   0.789  1.8858  0.9337 -0.2743
   66MOL    H5524885   3.805   6.767   0.757 -0.4622 -1.4785 -0.2815
   66MOL    H5624886   3.788   6.963   0.576 -0.9277 -0.7714 -0.5682
   66MOL    H5724887   3.868   6.863   0.458  1.8280 -0.2897 -0.2526
   66MOL    H5824888   3.939   7.019   0.512  0.0815 -0.2766  0.7774
   66MOL    C5924889   4.034   7.287   0.709 -0.3721  0.7099 -0.2244
   66MOL    C6024890   3.882   7.276   0.738  0.7712 -0.4841 -0.1336
   66MOL    O6124891   3.813   7.351   0.641  0.1815 -0.2458 -0.6793
   66MOL    C6224892   3.677   7.327   0.621 -0.2959 -1.4271  0.1358
   66MOL    C6324893   3.644   7.344   0.477 -0.5904 -1.0240  1.0044
   66MOL    C6424894   3.663   7.487   0.425 -0.1482  0.2112 -0.2778
   66MOL    C6524895   3.719   7.249   0.387  0.4765  0.3709  0.0966
   66MOL    H6624896   4.068   7.299   0.606 -2.9046  2.0113 -0.9258
   66MOL    H6724897   4.069   7.383   0.745  0.0830  0.6881 -0.6037
   66MOL    H6824898   3.848   7.173   0.730  0.9087 -0.4789 -0.8389
   66MOL    H6924899   3.651   7.221   0.630  1.0960 -1.8836 -1.0759
   66MOL    H7024900   3.614   7.393   0.681 -1.0662  0.3110 -2.4747
   66MOL    H7124901   3.540   7.325   0.451 -0.0316 -1.9923 -0.5993
   66MOL    H7224902   3.770   7.505   0.439 -0.0071 -0.2626 -0.6954
   66MOL    H7324903   3.597   7.550   0.485 -1.1582 -1.0687 -0.0248
   66MOL    H7424904   3.646   7.503   0.318  2.7176 -2.2189 -1.1622
   66MOL    H7524905   3.687   7.224   0.286 -1.7534 -1.4657  1.2088
   66MOL    H7624906   3.827   7.262   0.392  0.6596 -0.0745 -2.1016
   66MOL    H7724907   3.708   7.150   0.431  2.4602 -0.0919 -0.4140
   66MOL    C7824908   3.859   7.339   0.879 -0.3788  0.5662 -0.7043
   66MOL    C7924909   3.747   7.275   0.954 -0.4405  0.0337 -0.3124
   66MOL    O8024910   3.799   7.154   1.014 -0.0387  0.2414 -0.1432
   66MOL    C8124911   3.717   7.040   1.002 -0.1522  0.5954 -0.7510
   66MOL    C8224912   3.786   6.909   1.059  1.3421 -0.5094 -0.1830
   66MOL    C8324913   3.708   6.780   1.040  0.0374 -0.2271  0.2280
   66MOL    C8424914   3.811   6.939   1.207 -0.3870 -0.1717  0.2432
   66MOL    H8524915   3.849   7.445   0.857  0.9879  0.4009 -2.2916
   66MOL    H8624916   3.941   7.318   0.948  0.2410 -2.6387 -2.2887
   66MOL    H8724917   3.665   7.251   0.886 -0.6403  1.5154 -0.6120
   66MOL    H8824918   3.621   7.050   1.052  1.2332  1.1201  1.8480
   66MOL    H8924919   3.678   7.009   0.905  3.2820  0.7832 -2.2559
   66MOL    H9024920   3.887   6.892   1.023  1.3672 -0.7895  0.0187
   66MOL    H9124921   3.704   6.752   0.935  0.0351  0.8307 -0.0650
   66MOL    H9224922   3.608   6.780   1.084 -0.6018 -1.7692 -1.1966
   66MOL    H9324923   3.756   6.695   1.088  0.8709  0.5585  0.8017
   66MOL    H9424924   3.722   6.941   1.270  0.1127 -0.7784  0.9895
   66MOL    H9524925   3.875   7.027   1.208 -0.6420  0.0137  1.3629
   66MOL    H9624926   3.883   6.862   1.235  0.5345 -0.0108 -1.5997
   66MOL    C9724927   3.688   7.351   1.065  0.2428 -0.1993  0.0452
   66MOL    C9824928   3.612   7.484   1.032 -0.0275  0.9743  0.1165
   66MOL    O9924929   3.590   7.559   1.150  0.4831  0.3319 -0.4578
   66MOL   C10024930   3.659   7.684   1.153  0.0504 -0.0387 -0.4551
   66MOL   C10124931   3.605   7.774   1.267 -0.1277  0.1619 -0.3469
   66MOL   C10224932   3.458   7.808   1.237  0.1123  0.6268 -0.7118
   66MOL   C10324933   3.604   7.718   1.408 -0.4856  0.4736 -0.8357
   66MOL   H10424934   3.775   7.381   1.123  0.0790  1.1909 -0.4106
   66MOL   H10524935   3.624   7.280   1.118 -0.6276 -0.2092 -0.9964
   66MOL   H10624936   3.655   7.535   0.945 -0.6516 -1.4937 -1.6947
   66MOL   H10724937   3.653   7.736   1.058  0.6405 -0.4260 -0.7110
   66MOL   H10824938   3.765   7.665   1.173 -0.2491  0.0445  1.3729
   66MOL   H10924939   3.661   0.042   1.271  0.3497  0.0076 -2.5332
   66MOL   H11024940   3.387   7.727   1.248  1.0024  0.2885  3.3130
   66MOL   H11124941   3.421   0.069   1.294 -3.3638 -0.4383 -1.2754
   66MOL   H11224942   3.451   0.022   1.135 -0.4264 -0.2180 -0.9969
   66MOL   H11324943   3.551   7.783   1.477  1.9224 -0.7288  2.2726
   66MOL   H11424944   3.555   7.621   1.417  0.2311  0.2102  0.2894
   66MOL   H11524945   3.708   7.702   1.435 -1.2103 -1.1454  1.0972
   66MOL   C11624946   3.469   7.456   0.978  0.1134  0.3263 -0.3908
   66MOL   C11724947   3.392   7.573   0.919 -0.0258 -0.2331 -0.0296
   66MOL   O11824948   3.475   7.656   0.832  0.2675 -0.1116 -0.6677
   66MOL   C11924949   3.422   7.782   0.797  0.0336  0.3062 -0.4815
   66MOL   C12024950   3.523   0.029   0.703 -0.0390 -0.5947 -0.0065
   66MOL   C12124951   3.467   0.157   0.637  0.3053 -0.3694 -0.1624
   66MOL   C12224952   3.649   0.070   0.777 -0.1924 -0.3080 -0.5055
   66MOL   H12324953   3.475   7.377   0.903  2.6361  3.4312 -3.6372
   66MOL   H12424954   3.410   7.411   1.058  0.1646 -0.8502 -1.0038
   66MOL   H12524955   3.337   7.634   0.990 -0.2334  1.0679 -1.2795
   66MOL   H12624956   3.405   0.039   0.868 -1.0469  1.1564 -1.6967
   66MOL   H12724957   3.331   7.781   0.737 -0.6414  2.0557  0.4694
   66MOL   H12824958   3.560   7.788   0.624  0.9455 -0.4623  0.3301
   66MOL   H12924959   3.546   0.230   0.623  1.0169 -0.7228  1.8996
   66MOL   H13024960   3.389   0.201   0.700  2.0082  0.1786  1.6027
   66MOL   H13124961   3.415   0.131   0.545  0.3904  0.8504 -0.5580
   66MOL   H13224962   3.626   0.137   0.860  2.4494 -0.7557  0.6344
   66MOL   H13324963   3.698   7.807   0.821  0.9559  2.0088  3.0717
   66MOL   H13424964   3.712   0.122   0.706 -1.5560  0.9017 -0.8607
   66MOL   C13524965   3.267   7.526   0.840 -0.7089 -0.6857  0.3046
   66MOL   C13624966   3.174   7.425   0.908 -0.0195  0.1985  0.5438
   66MOL   O13724967   3.120   7.500   1.017 -0.2449  0.2642 -0.2888
   66MOL   C13824968   3.086   7.426   1.130 -0.0391 -0.1517  0.7346
   66MOL   C13924969   3.093   7.498   1.258 -0.3232  0.2342  0.1506
   66MOL   C14024970   3.234   7.500   1.307 -0.1664  0.9601  0.1663
   66MOL   C14124971   3.022   7.630   1.257  0.7295 -0.2724  0.1293
   66MOL   H14224972   3.209   7.612   0.807 -0.5840 -1.1794 -1.2391
   66MOL   H14324973   3.309   7.485   0.749 -0.2607  2.0212 -0.7693
   66MOL   H14424974   3.230   7.335   0.933  2.0404  1.9333  2.3070
   66MOL   H14524975   3.156   7.343   1.131 -1.7383 -1.6005  1.5223
   66MOL   H14624976   2.984   7.394   1.107 -0.6600  1.7999  0.6246
   66MOL   H14724977   3.049   7.440   1.339  0.9725 -1.3596 -0.2404
   66MOL   H14824978   3.257   7.562   1.394  0.0543 -1.3018  1.7547
   66MOL   H14924979   3.304   7.530   1.229 -0.1393  1.2961  0.3187
   66MOL   H15024980   3.272   7.401   1.333  1.4373  1.7206  0.8001
   66MOL   H15124981   3.011   7.659   1.361 -0.8207 -2.2039  0.5438
   66MOL   H15224982   3.088   7.703   1.211  0.7626 -0.9692 -0.9455
   66MOL   H15324983   2.927   7.629   1.203  1.3842  0.9837 -1.0617
   66MOL   C15424984   3.060   7.382   0.816  0.1696  0.3231  0.2064
   66MOL   C15524985   3.104   7.294   0.698  0.2466  0.5763  0.8797
   66MOL   O15624986   3.179   7.185   0.735  0.3415 -0.1174 -0.6086
   66MOL   C15724987   3.308   7.178   0.690  0.2774 -0.1213  0.7229
   66MOL   C15824988   3.359   7.028   0.692  0.1465 -0.6183  0.8625
   66MOL   C15924989   3.358   6.973   0.835 -0.4216  0.4241 -0.2111
   66MOL   C16024990   3.284   6.931   0.597 -0.4314  0.8897 -0.1526
   66MOL   H16124991   3.001   7.469   0.785  1.2442  1.2069  0.6239
   66MOL   H16224992   2.994   7.318   0.874 -0.2554  0.8507  0.3141
   66MOL   H16324993   3.150   7.358   0.622 -3.4797  2.5614  0.1491
   66MOL   H16424994   3.376   7.234   0.754 -0.4497  1.1680  0.3789
   66MOL   H16524995   3.313   7.213   0.587 -0.2380 -2.9019 -0.3086
   66MOL   H16624996   3.462   7.034   0.659  0.8893 -2.1829  2.7726
   66MOL   H16724997   3.390   6.869   0.830 -0.7794  0.3917 -1.9783
   66MOL   H16824998   3.259   6.985   0.878 -1.9169 -1.6877 -2.9141
   66MOL   H16924999   3.432   7.026   0.896 -0.4089 -0.3206  0.4332
   66MOL   H17025000   3.344   6.846   0.563 -0.9391  0.0975  0.9102
   66MOL   H17125001   3.197   6.879   0.636  0.3546 -1.0687 -0.9665
   66MOL   H17225002   3.243   6.986   0.512 -0.6990 -1.0348 -1.3054
   66MOL   C17325003   2.972   7.236   0.630 -0.0739  0.3318 -0.1980
   66MOL   C17425004   2.907   7.337   0.527  0.4679  0.1211  0.1981
   66MOL   O17525005   3.010   7.343   0.422  0.0802  0.2963  0.5066
   66MOL   C17625006   3.044   7.476   0.387 -0.2742 -0.0536 -0.4985
   66MOL   C17725007   3.159   7.477   0.290 -0.5128  0.7269  0.3302
   66MOL   C17825008   3.191   7.620   0.249  0.6850  0.0206  0.0152
   66MOL   C17925009   3.279   7.399   0.344  0.4968 -0.2287 -0.3165
   66MOL   H18025010   3.002   7.147   0.575  1.1847 -0.2508  1.3926
   66MOL   H18125011   2.899   7.196   0.701  0.7120 -0.1514  0.3449
   66MOL   H18225012   2.907   7.435   0.574 -2.0057 -0.5011  1.5359
   66MOL   H18325013   3.069   7.530   0.478  1.6362 -0.6248 -0.6535
   66MOL   H18425014   2.967   7.526   0.329  0.5022  0.7913 -0.8084
   66MOL   H18525015   3.118   7.425   0.203  2.2745  3.0870 -2.5217
   66MOL   H18625016   3.213   7.676   0.340 -1.5820 -0.5038  0.9186
   66MOL   H18725017   3.269   7.639   0.175 -0.6188  1.3462 -1.0518
   66MOL   H18825018   3.098   7.665   0.216 -0.0603 -0.9773  0.7389
   66MOL   H18925019   3.354   7.393   0.265  0.0174  0.0140 -0.7987
   66MOL   H19025020   3.238   7.304   0.377 -0.7128 -0.2763 -1.8882
   66MOL   H19125021   3.328   7.440   0.433 -0.3429  1.8433 -0.7675
   66MOL   C19225022   2.782   7.289   0.450  0.8794 -0.4306  0.2359
   66MOL   C19325023   2.734   7.383   0.337  0.8846  0.1984 -0.5737
   66MOL   O19425024   2.706   7.514   0.399  0.0636 -0.0913  0.0135
   66MOL   C19525025   2.693   7.621   0.305  0.4778  0.3529 -0.1286
   66MOL   C19625026   2.730   7.754   0.369  0.7018 -0.0681 -0.0373
   66MOL   C19725027   2.632   7.814   0.480  0.5508  0.1743  0.3695
   66MOL   C19825028   2.759   0.027   0.253 -0.1813  0.6094  0.1225
   66MOL   H19925029   2.698   7.280   0.519 -0.7736 -1.3073 -1.8319
   66MOL   H20025030   2.817   7.199   0.398  1.3933 -0.3706  0.4779
   66MOL   H20125031   2.823   7.398   0.276  0.6617 -0.9656 -1.1915
   66MOL   H20225032   2.592   7.630   0.267  0.0899  0.3571  0.8889
   66MOL   H20325033   2.753   7.604   0.215 -0.5978  0.2753 -0.8339
   66MOL   H20425034   2.821   7.737   0.426  1.5892  0.0398 -1.4054
   66MOL   H20525035   2.627   7.752   0.569  2.2478  0.4117  0.6512
   66MOL   H20625036   2.670   0.083   0.522 -0.6658 -0.1674  2.2885
   66MOL   H20725037   2.538   0.009   0.429 -0.2823  3.8747  3.0677
   66MOL   H20825038   2.859   0.012   0.215  0.3075 -1.4589  2.1097
   66MOL   H20925039   2.687   0.016   0.172  1.4368  0.7692 -1.3568
   66MOL   H21025040   2.758   0.133   0.277  0.4148  0.4585  0.8269
   66MOL   C21125041   2.619   7.325   0.258 -0.1602  0.7692 -0.8154
   66MOL   C21225042   2.644   7.191   0.187 -0.2096 -0.0780  0.6892
   66MOL   O21325043   2.624   7.084   0.290 -0.0835 -0.3610 -0.4610
   66MOL   C21425044   2.696   6.960   0.268  0.2626 -0.6636 -0.0822
   66MOL   C21525045   2.675   6.855   0.382  0.0443 -0.0064  0.2585
   66MOL   C21625046   2.759   6.891   0.506 -0.3515  0.5750 -0.1759
   66MOL   C21725047   2.528   6.840   0.421  0.3637 -0.1463 -0.7342
   66MOL   H21825048   2.593   7.399   0.182 -1.3878  0.2589 -0.9108
   66MOL   H21925049   2.539   7.313   0.332 -0.0209  0.3926 -0.7247
   66MOL   H22025050   2.749   7.184   0.156 -1.1188 -2.4088 -2.0684
   66MOL   H22125051   2.800   6.992   0.262  0.2362 -0.6782 -0.7245
   66MOL   H22225052   2.666   6.921   0.171  3.6122 -3.0343 -0.2243
   66MOL   H22325053   2.716   6.761   0.345  0.6836 -0.7115  2.6993
   66MOL   H22425054   2.863   6.880   0.477 -0.2131  0.2764  0.4258
   66MOL   H22525055   2.737   6.992   0.543 -0.5922  0.2014  0.7194
   66MOL   H22625056   2.739   6.817   0.584  1.3903  0.3081  0.0278
   66MOL   H22725057   2.516   6.766   0.500 -0.3189 -0.5831 -1.2435
   66MOL   H22825058   2.463   6.830   0.334 -0.0794 -0.0759 -0.4154
   66MOL   H22925059   2.495   6.930   0.473 -3.2942 -1.5984 -0.3896
   66MOL   C23025060   2.542   7.153   0.077 -0.0003 -0.3894 -0.0810
   66MOL   C23125061   2.394   7.174   0.113  0.6245  0.0271  0.2273
   66MOL   O23225062   2.339   7.205   7.806 -0.7906 -0.4461  0.4571
   66MOL   C23325063   2.300   7.341   7.783 -0.3634 -0.3523  0.8353
   66MOL   C23425064   2.229   7.357   7.647  0.5146  0.0047 -0.1011
   66MOL   C23525065   2.140   7.479   7.623 -0.5996 -0.0703 -0.0797
   66MOL   C23625066   2.316   7.311   7.527 -0.1159 -0.4664 -0.5928
   66MOL   H23725067   2.550   7.057   0.025  1.1386 -0.5548  0.3847
   66MOL   H23825068   2.566   7.223   7.822  2.5909 -1.0254  0.0973
   66MOL   H23925069   2.388   7.262   0.177  1.3907 -0.1833  0.5939
   66MOL   H24025070   2.235   7.387   0.032 -1.2995 -0.3355  0.0071
   66MOL   H24125071   2.390   7.402   7.791 -0.0142 -0.7231 -0.2446
   66MOL   H24225072   2.159   7.273   7.656 -1.2584  1.6458  1.8798
   66MOL   H24325073   2.091   7.483   7.526  0.7052  0.9719 -0.7053
   66MOL   H24425074   2.196   7.572   7.630 -0.8740  0.0555  0.4893
   66MOL   H24525075   2.058   7.477   7.695  0.0549  1.8630  0.7625
   66MOL   H24625076   2.267   7.330   7.431  1.6800  1.9019 -1.1022
   66MOL   H24725077   2.408   7.369   7.515 -1.2861  1.3545 -0.8608
   66MOL   H24825078   2.336   7.204   7.534  1.9211 -0.2108 -1.9418
   66MOL   C24925079   2.328   7.044   0.171  0.1026 -0.4335  0.6020
   66MOL   C25025080   2.183   7.058   0.219 -0.0370  0.6318 -0.0487
   66MOL   O25125081   2.135   6.922   0.218 -0.2727 -0.1553 -0.2988
   66MOL   C25225082   2.085   6.883   0.097 -0.4721 -0.5061 -0.6414
   66MOL   C25325083   2.098   6.729   0.081  0.1651 -0.1727 -0.1085
   66MOL   C25425084   2.241   6.684   0.060 -0.3731  0.1416 -0.0066
   66MOL   C25525085   2.007   6.676   7.787 -0.0596 -0.4932  0.5152
   66MOL   H25625086   2.402   7.023   0.249 -0.7503  0.3069  1.6286
   66MOL   H25725087   2.341   6.962   0.101  1.0225 -1.3101  1.7866
   66MOL   H25825088   2.129   7.122   0.150 -2.2035 -1.0383  0.0359
   66MOL   H25925089   1.978   6.903   0.105 -0.3169 -0.8705  3.4580
   66MOL   H26025090   2.137   6.932   0.014 -0.6022 -0.7213 -0.8507
   66MOL   H26125091   2.060   6.673   0.166  1.3186  1.9622  1.8410
   66MOL   H26225092   2.300   6.704   0.150  0.2540  1.1981 -0.6421
   66MOL   H26325093   2.284   6.743   7.804  2.2620  0.7749  1.7744
   66MOL   H26425094   2.269   6.585   0.022  1.8150  0.6813  0.1194
   66MOL   H26525095   2.059   6.698   7.694  0.9993  1.8105  1.6207
   66MOL   H26625096   1.992   6.568   7.791 -0.4139 -0.7421 -4.0341
   66MOL   H26725097   1.910   6.726   7.775  0.1455  0.3114  2.0870
   66MOL   C26825098   2.187   7.114   0.362 -0.6899 -0.3098  0.4392
   66MOL   C26925099   2.040   7.152   0.407  0.0427  0.3419 -0.2493
   66MOL   O27025100   2.013   7.272   0.332  0.6002  0.2475  0.4077
   66MOL   C27125101   1.882   7.312   0.346  0.0456  0.2094  0.4595
   66MOL   C27225102   1.830   7.394   0.222  0.2120  0.8641 -0.9120
   66MOL   C27325103   1.918   7.512   0.178  0.2772  0.4620 -0.0142
   66MOL   C27425104   1.827   7.293   0.108 -0.3099  0.1944  0.3343
   66MOL   H27525105   2.246   7.205   0.351  1.4299 -1.7727 -0.4971
   66MOL   H27625106   2.247   7.047   0.423  0.7142 -0.8516 -1.4863
   66MOL   H27725107   1.974   7.068   0.383  0.5685 -0.5875  1.4803
   66MOL   H27825108   1.806   7.238   0.371  0.9750 -1.4680 -1.5086
   66MOL   H27925109   1.882   7.383   0.429 -1.6139  1.6975 -0.7867
   66MOL   H28025110   1.732   7.438   0.239 -0.1508  0.3688 -1.6972
   66MOL   H28125111   1.876   7.563   0.091  1.3555  0.0408 -0.7788
   66MOL   H28225112   2.022   7.482   0.166 -0.3590 -1.0056 -2.0708
   66MOL   H28325113   1.922   7.591   0.253  0.6877  0.6599 -0.2449
   66MOL   H28425114   1.777   7.204   0.146 -0.7416  0.4523  0.3698
   66MOL   H28525115   1.916   7.239   0.076 -1.1540 -2.1458  1.7774
   66MOL   H28625116   1.772   7.337   0.025 -1.5203  0.4847  1.2749
   66MOL   C28725117   2.022   7.203   0.555  0.6464  0.1876 -0.3578
   66MOL   C28825118   2.093   7.116   0.664 -0.3709 -0.0251  0.0561
   66MOL   O28925119   2.078   6.979   0.633  0.4293 -0.6502  1.0440
   66MOL   C29025120   2.184   6.899   0.671  0.0942 -0.4036 -0.8253
   66MOL   C29125121   2.159   6.751   0.646 -0.1445  0.2247 -0.2269
   66MOL   C29225122   2.259   6.658   0.716 -0.1416  1.0147 -0.0430
   66MOL   C29325123   2.157   6.723   0.493 -0.4473  0.1055 -0.2458
   66MOL   H29425124   1.915   7.194   0.573  0.8899 -0.5377  0.8312
   66MOL   H29525125   2.059   7.304   0.574  0.2595  0.2942 -0.1633
   66MOL   H29625126   2.197   7.150   0.664  0.1571 -1.5423  1.2473
   66MOL   H29725127   2.281   6.929   0.630 -0.1717 -0.0227 -1.1750
   66MOL   H29825128   2.191   6.910   0.779 -2.6198 -1.8379 -0.4662
   66MOL   H29925129   2.065   6.717   0.689  1.9172 -1.5814  3.1037
   66MOL   H30025130   2.225   6.665   0.819 -0.8201  1.1260 -0.2740
   66MOL   H30125131   2.356   6.704   0.701  0.5972  0.6164  3.0568
   66MOL   H30225132   2.262   6.554   0.684 -0.3632  1.1215 -0.4154
   66MOL   H30325133   2.104   6.633   0.464 -0.0640 -0.6666  1.3535
   66MOL   H30425134   2.112   6.802   0.433 -1.5684  0.6323  1.2544
   66MOL   H30525135   2.258   6.715   0.454  0.4141  0.8672  1.7166
   66MOL   C30625136   2.053   7.143   0.806 -0.3421  0.3183  0.3707
   66MOL   C30725137   2.046   7.289   0.847  1.0022  1.0284  0.5159
   66MOL   O30825138   1.993   7.290   0.975  0.6658  0.5397 -0.1282
   66MOL   C30925139   1.944   7.414   1.022 -0.1682  0.6956  0.1779
   66MOL   C31025140   1.854   7.393   1.145  0.4717 -0.4167  0.3997
   66MOL   C31125141   1.763   7.512   1.166  0.9034  0.1214 -0.2090
   66MOL   C31225142   1.930   7.362   1.277  0.0657  0.6282  0.3725
   66MOL   H31325143   2.121   7.097   0.878 -0.6451  0.7985  0.9726
   66MOL   H31425144   1.952   7.104   0.816 -0.8987  1.7237  0.3597
   66MOL   H31525145   1.967   7.338   0.789  1.7789  1.7980  0.0958
   66MOL   H31625146   1.882   7.465   0.948  2.1757  1.2924 -1.4280
   66MOL   H31725147   2.019   7.489   1.042 -0.1040  0.4156  0.9800
   66MOL   H31825148   1.793   7.306   1.123  0.6599  0.0597 -2.1163
   66MOL   H31925149   1.716   7.519   1.264  0.1805 -0.1337 -0.5398
   66MOL   H32025150   1.695   7.539   1.086  2.5466  2.3269 -0.8976
   66MOL   H32125151   1.826   7.601   1.160 -1.8763  2.1170 -0.9579
   66MOL   H32225152   1.856   7.369   1.357  0.2043  1.9410  0.3955
   66MOL   H32325153   1.999   7.444   1.297 -1.2864  2.2776 -1.5683
   66MOL   H32425154   1.985   7.268   1.273 -0.5266  0.2103  1.5655
   66MOL   C32525155   2.170   7.370   0.836  0.2437 -0.0349  0.5271
   66MOL   C32625156   2.284   7.334   0.937  0.3700 -0.6443 -0.4440
   66MOL   O32725157   2.327   7.195   0.912  0.0827  0.3441 -0.3506
   66MOL   C32825158   2.381   7.129   1.022 -0.0235  0.2459 -0.4425
   66MOL   C32925159   2.459   7.003   0.964 -0.0822 -0.0632 -0.5732
   66MOL   C33025160   2.504   7.034   0.817  0.1159  0.9796 -0.4086
   66MOL   C33125161   2.580   6.965   1.047  0.3587  0.1346  0.2357
   66MOL   H33225162   2.143   7.475   0.846  0.5627  0.1316 -0.3100
   66MOL   H33325163   2.200   7.353   0.732 -0.5801 -1.6928  0.5343
   66MOL   H33425164   2.242   7.343   1.037  2.1044  0.2004  0.2165
   66MOL   H33525165   2.443   7.195   1.082 -0.1030 -0.0671 -0.0126
   66MOL   H33625166   2.299   7.108   1.090 -0.8450 -1.5197 -1.9099
   66MOL   H33725167   2.383   6.926   0.955  1.4049 -1.4830 -1.3773
   66MOL   H33825168   2.427   7.056   0.743 -0.3118  1.2802  0.1246
   66MOL   H33925169   2.574   7.117   0.809  1.5389 -0.0753  0.8099
   66MOL   H34025170   2.545   6.938   0.785  1.0113  1.5244 -0.9399
   66MOL   H34125171   2.653   7.045   1.060  0.2006  0.0875  1.4502
   66MOL   H34225172   2.559   6.925   1.146 -0.9178  1.5707  0.5744
   66MOL   H34325173   2.632   6.883   0.998  2.5012  0.6553  1.5917
   66MOL   C34425174   2.412   7.419   0.916  0.1392 -0.3194  0.4270
   66MOL   C34525175   2.468   7.417   0.769  0.4738  0.3070  0.3368
   66MOL   O34625176   2.382   7.500   0.694  0.0233  0.1810 -0.7478
   66MOL   C34725177   2.374   7.462   0.559  0.1418 -0.2770 -0.0330
   66MOL   C34825178   2.296   7.561   0.473 -0.0069 -0.2038 -0.3269
   66MOL   C34925179   2.152   7.574   0.521 -0.7243  0.4659  0.2855
   66MOL   C35025180   2.287   7.526   0.323  0.5370 -0.7962 -0.1238
   66MOL   H35125181   2.496   7.389   0.978  0.0733 -1.6624 -0.1146
   66MOL   H35225182   2.398   7.525   0.939 -0.7077 -0.2472 -0.3921
   66MOL   H35325183   2.456   7.315   0.731 -1.7976 -0.2512  2.3758
   66MOL   H35425184   2.338   7.359   0.556 -4.6923  1.3007 -0.8174
   66MOL   H35525185   2.476   7.468   0.521 -0.7170  0.9907 -2.2305
   66MOL   H35625186   2.328   7.665   0.485 -2.2383  0.8144 -2.7300
   66MOL   H35725187   2.088   7.488   0.502  0.0635  0.1949 -1.1971
   66MOL   H35825188   2.101   7.659   0.475 -1.7101 -0.3831 -0.1997
   66MOL   H35925189   2.151   7.604   0.626  1.4849  0.9215  0.1976
   66MOL   H36025190   2.250   7.427   0.297 -0.7384 -0.6738  1.1531
   66MOL   H36125191   2.208   7.590   0.285  0.7298 -0.4441  0.0575
   66MOL   H36225192   2.386   7.532   0.278  1.6388 -0.3584  2.2669
   66MOL   C36325193   2.603   7.484   0.753 -0.2228  0.3764 -0.2852
   66MOL   C36425194   2.639   7.592   0.854 -0.1521 -0.2071 -0.0319
   66MOL   O36525195   2.772   7.627   0.816 -0.1835 -0.0712 -0.3109
   66MOL   C36625196   2.838   7.717   0.912  0.9223 -0.3475 -0.2211
   66MOL   C36725197   2.969   7.761   0.839  0.7408  0.6371 -0.0618
   66MOL   C36825198   3.059   0.031   0.921  0.6844 -0.4347 -0.6661
   66MOL   C36925199   2.949   7.821   0.703  0.4073 -0.5071  0.7660
   66MOL   H37025200   2.679   7.406   0.763 -0.9606 -0.2712  0.2705
   66MOL   H37125201   2.619   7.533   0.657  2.0385 -2.0413 -1.2066
   66MOL   H37225202   2.627   7.554   0.955  2.1974  0.8687  0.6683
   66MOL   H37325203   2.774   7.803   0.932 -1.6417 -2.3573  0.4054
   66MOL   H37425204   2.867   7.669   1.005  2.0717  1.1048  0.1953
   66MOL   H37525205   3.025   7.668   0.824  1.2953  1.0316 -0.4587
   66MOL   H37625206   3.085   0.002   1.023 -1.6733 -0.0819  0.0536
   66MOL   H37725207   3.020   0.133   0.923 -0.0562 -0.7274 -0.0727
   66MOL   H37825208   3.152   0.040   0.863 -1.0163  0.4932 -3.3326
   66MOL   H37925209   3.028   0.068   0.680 -0.4535  1.1283  2.7066
   66MOL   H38025210   2.856   0.053   0.696  1.0854  0.2884 -2.6444
   66MOL   H38125211   2.954   7.747   0.623  2.3823 -0.4228  0.7888
   66MOL   H38225212   2.571   7.677   0.843 -1.0921 -0.7528  1.3932
   67MOL     C125213   4.855   5.987   4.566 -0.1733  0.1217 -0.5297
   67MOL     C225214   4.841   6.038   4.425 -0.1848  0.4486  0.2238
   67MOL     O325215   4.894   6.172   4.408 -0.1797 -0.3679 -0.6178
   67MOL     C425216   4.805   6.283   4.421 -0.5478  0.3661  0.0100
   67MOL     C525217   4.885   6.413   4.460  0.1765 -0.2444  0.6216
   67MOL     C625218   4.989   6.457   4.358 -1.1826  0.0947  0.9422
   67MOL     C725219   4.943   6.410   4.596  0.2866 -0.1141 -0.6216
   67MOL     H825220   4.792   6.042   4.636  2.8984  1.0264  1.5772
   67MOL     H925221   4.815   5.886   4.578  2.2356 -0.6522  1.2891
   67MOL    H1025222   4.739   6.026   4.391  0.6964 -0.7089 -2.1121
   67MOL    H1125223   4.741   6.260   4.506  0.5333 -0.7293  0.5426
   67MOL    H1225224   4.744   6.298   4.332  1.3777  1.1153 -1.2165
   67MOL    H1325225   4.803   6.484   4.459  1.4518  1.3258  2.4903
   67MOL    H1425226   5.039   6.549   4.390 -1.3104  1.0305 -1.4518
   67MOL    H1525227   5.060   6.375   4.348 -0.0422  1.2740 -0.8456
   67MOL    H1625228   4.947   6.482   4.260 -1.1582  0.0256  0.9148
   67MOL    H1725229   4.867   6.376   4.667  0.4128 -0.9906 -0.9062
   67MOL    H1825230   5.020   6.335   4.616  0.5886  0.3944  0.1737
   67MOL    H1925231   4.986   6.503   4.633 -2.7998  1.6325 -1.2482
   67MOL    H2025232   4.954   5.980   4.611 -1.0713 -0.5628  1.3925
   67MOL    C2125233   4.929   5.951   4.327 -0.3945  0.0426 -0.2530
   67MOL    C2225234   4.887   5.801   4.327  0.7619 -0.5418  0.2600
   67MOL    O2325235   4.755   5.771   4.283 -1.3015  0.1755  0.2703
   67MOL    C2425236   4.704   5.647   4.334  0.2215  0.3136 -0.4347
   67MOL    C2525237   4.549   5.660   4.317 -0.1215 -0.0412  0.4980
   67MOL    C2625238   4.482   5.521   4.307 -0.3550 -0.0708 -0.1016
   67MOL    C2725239   4.504   5.733   4.441 -0.1737 -0.5069  0.6561
   67MOL    H2825240   4.927   6.004   4.231 -0.4690 -0.1226 -0.3435
   67MOL    H2925241   5.029   5.960   4.368 -0.5555 -0.5365  0.2651
   67MOL    H3025242   4.893   5.778   4.433  1.1152  0.7388  0.5240
   67MOL    H3125243   4.732   5.617   4.435 -1.0871  0.8840  0.1173
   67MOL    H3225244   4.743   5.569   4.269 -0.5534 -0.2001 -0.2921
   67MOL    H3325245   4.521   5.716   4.227  2.2600  0.2052 -0.1195
   67MOL    H3425246   4.374   5.530   4.314 -0.2823 -0.4310  1.6943
   67MOL    H3525247   4.500   5.456   4.393 -0.1450 -0.2132 -0.2528
   67MOL    H3625248   4.503   5.467   4.215 -0.9117 -1.1321  0.3911
   67MOL    H3725249   4.559   5.827   4.449 -2.1496  0.6197  1.3511
   67MOL    H3825250   4.398   5.760   4.436 -0.0384  0.1665  1.3045
   67MOL    H3925251   4.523   5.675   4.532 -0.6016  1.3617  1.9651
   67MOL    C4025252   4.989   5.704   4.248  0.3484 -0.6579 -0.9722
   67MOL    C4125253   4.980   5.707   4.095  0.2676  0.1559  0.1231
   67MOL    O4225254   5.011   5.573   4.054 -0.0550 -0.1549 -0.8842
   67MOL    C4325255   4.982   5.529   3.923  0.8130  0.2162  0.0391
   67MOL    C4425256   5.012   5.377   3.923  0.2957 -0.1671 -0.1686
   67MOL    C4525257   4.920   5.291   4.005  0.1894 -0.5272 -0.3447
   67MOL    C4625258   5.022   5.324   3.778 -0.1096 -0.1625  0.4948
   67MOL    H4725259   4.978   5.602   4.283 -0.1079 -1.2807 -2.8990
   67MOL    H4825260   5.085   5.742   4.283  0.4633 -1.2940 -0.5843
   67MOL    H4925261   4.879   5.732   4.060  0.6699  1.3820 -0.1905
   67MOL    H5025262   5.042   5.577   3.845 -0.0302  1.6488  0.2485
   67MOL    H5125263   4.874   5.540   3.914  0.2339 -3.3120  1.8428
   67MOL    H5225264   5.116   5.373   3.957  0.5657  1.8949 -0.6489
   67MOL    H5325265   4.953   5.188   4.015 -0.8436 -0.9053 -0.8158
   67MOL    H5425266   4.919   5.335   4.105 -1.5802 -3.1046  0.8429
   67MOL    H5525267   4.818   5.293   3.967 -0.1590 -1.1093  0.5360
   67MOL    H5625268   5.050   5.220   3.763  1.8198  0.2626  0.9690
   67MOL    H5725269   5.102   5.384   3.734 -2.6680  2.0836 -1.2546
   67MOL    H5825270   4.929   5.338   3.723 -0.4671 -1.6816  0.6893
   67MOL    C5925271   5.081   5.807   4.025 -0.8721 -0.0295  0.2089
   67MOL    C6025272   5.039   5.871   3.892 -0.1863  0.1261 -0.1440
   67MOL    O6125273   5.168   5.925   3.841 -0.8351 -0.7565 -0.2134
   67MOL    C6225274   5.205   5.875   3.712  0.1675 -0.0398 -0.0430
   67MOL    C6325275   5.322   5.958   3.652 -1.0265 -0.2812  0.4006
   67MOL    C6425276   5.286   6.109   3.641 -0.6061 -0.3031  0.1454
   67MOL    C6525277   5.452   5.948   3.738  0.2377 -0.1131 -0.0075
   67MOL    H6625278   5.185   5.776   4.031  0.0348  2.9530  0.3750
   67MOL    H6725279   5.085   5.888   4.097  1.1368 -1.5370  1.8552
   67MOL    H6825280   4.985   5.807   3.823 -1.7611  0.7537  0.4733
   67MOL    H6925281   5.218   5.769   3.733 -0.1387  0.0462  0.5663
   67MOL    H7025282   5.120   5.875   3.643 -1.1497 -1.4282  1.5452
   67MOL    H7125283   5.348   5.904   3.561 -1.4978 -0.6952  0.5102
   67MOL    H7225284   5.372   6.156   3.594 -0.4344 -1.2900 -0.5541
   67MOL    H7325285   5.277   6.157   3.739 -1.1039 -0.9051  0.3972
   67MOL    H7425286   5.202   6.125   3.573 -0.1761  1.3003 -0.0369
   67MOL    H7525287   5.535   6.002   3.691 -0.1181 -0.1172 -0.6461
   67MOL    H7625288   5.425   6.008   3.825  1.3958 -0.1766  0.4077
   67MOL    H7725289   5.481   5.846   3.761 -0.7686 -0.1721  1.0077
   67MOL    C7825290   4.946   5.996   3.909  0.6723  0.2995  0.0444
   67MOL    C7925291   4.905   6.057   3.774  0.1961  0.2636  0.4193
   67MOL    O8025292   4.839   5.946   3.703  0.5465  0.0285 -0.2685
   67MOL    C8125293   4.836   5.971   3.566 -0.8683  0.3836  0.7794
   67MOL    C8225294   4.719   5.897   3.503  0.3753  0.6655 -0.2954
   67MOL    C8325295   4.722   5.893   3.354 -0.0080  1.0082  0.2254
   67MOL    C8425296   4.588   5.947   3.567 -0.3152 -0.3090 -0.6326
   67MOL    H8525297   5.013   6.056   3.969  0.4102  0.7031 -0.0657
   67MOL    H8625298   4.853   5.982   3.965  1.1238 -0.7796  0.5336
   67MOL    H8725299   4.998   6.072   3.719 -0.0134 -0.3235 -0.1082
   67MOL    H8825300   4.842   6.078   3.546  1.3305  0.0756 -0.4241
   67MOL    H8925301   4.924   5.934   3.513 -0.9204  1.0489  0.2218
   67MOL    H9025302   4.724   5.795   3.539 -1.6058 -0.6115 -3.4567
   67MOL    H9125303   4.729   5.993   3.312  1.8083  0.9853  0.4052
   67MOL    H9225304   4.633   5.843   3.315  1.1801 -1.3302  0.3995
   67MOL    H9325305   4.809   5.835   3.323 -2.3868 -2.7149  0.1505
   67MOL    H9425306   4.604   5.993   3.664 -0.6249  0.2512 -0.8446
   67MOL    H9525307   4.515   5.867   3.585  0.6569 -0.7751  1.2873
   67MOL    H9625308   4.535   6.021   3.507 -0.7141  1.1138  1.4281
   67MOL    C9725309   4.817   6.185   3.797  0.0836 -0.3054  0.0654
   67MOL    C9825310   4.888   6.298   3.884 -0.0821 -0.2969  0.3302
   67MOL    O9925311   4.800   6.402   3.905 -0.7241 -0.3084  0.5015
   67MOL   C10025312   4.722   6.390   4.020  0.2404 -0.1650 -0.0043
   67MOL   C10125313   4.682   6.534   4.064 -0.0682  0.6127 -0.7379
   67MOL   C10225314   4.584   6.603   3.960 -0.7632 -0.3090 -0.1436
   67MOL   C10325315   4.617   6.527   4.203 -0.0777 -0.8537 -0.2854
   67MOL   H10425316   4.719   6.158   3.839 -0.4235  0.1274 -0.8234
   67MOL   H10525317   4.801   6.230   3.699  0.0208 -0.3728  0.0446
   67MOL   H10625318   4.930   6.255   3.974  1.5168  0.1133 -0.2004
   67MOL   H10725319   4.766   6.343   4.109  0.4988  1.6091  0.8254
   67MOL   H10825320   4.626   6.340   4.007 -0.9796  1.4939  2.1313
   67MOL   H10925321   4.767   6.602   4.069 -0.1087  0.5670  0.8344
   67MOL   H11025322   4.553   6.703   3.990 -0.8717 -0.3960  0.0309
   67MOL   H11125323   4.633   6.634   3.867  0.2773 -0.7532  0.2585
   67MOL   H11225324   4.502   6.542   3.923  1.1693 -2.8718 -0.3406
   67MOL   H11325325   4.690   6.496   4.278  0.4522 -0.2819 -0.5601
   67MOL   H11425326   4.571   6.619   4.242  1.2309  0.1753 -1.1177
   67MOL   H11525327   4.536   6.454   4.202  0.1153 -1.1000  0.7689
   67MOL   C11625328   4.999   6.354   3.795 -0.0656 -0.3463  0.1690
   67MOL   C11725329   5.118   6.418   3.874  0.4066  0.2705 -0.1161
   67MOL   O11825330   5.200   6.321   3.938 -0.3489 -0.1259 -0.1964
   67MOL   C11925331   5.190   6.316   4.084 -0.0122  0.3708  0.0846
   67MOL   C12025332   5.296   6.211   4.133 -0.3799  0.2699 -0.6848
   67MOL   C12125333   5.437   6.273   4.114  0.3853  0.2335 -0.4774
   67MOL   C12225334   5.263   6.172   4.278 -0.2786  0.6385 -0.6029
   67MOL   H12325335   5.047   6.277   3.734  0.3974  0.4818 -0.5245
   67MOL   H12425336   4.962   6.417   3.714 -1.9341  0.0792  1.3310
   67MOL   H12525337   5.073   6.493   3.939 -0.8124 -0.0377 -0.6009
   67MOL   H12625338   5.093   6.275   4.113 -0.8668  2.1645 -0.1380
   67MOL   H12725339   5.193   6.409   4.142 -1.4767 -0.2923  1.2610
   67MOL   H12825340   5.298   6.120   4.073  0.9545 -1.3638  1.7693
   67MOL   H12925341   5.453   6.269   4.007 -0.0771  1.8005 -0.6250
   67MOL   H13025342   5.513   6.220   4.172  0.0648  0.8720  0.5498
   67MOL   H13125343   5.446   6.378   4.144 -0.0636 -0.3399  1.7724
   67MOL   H13225344   5.279   6.253   4.349  1.5710 -1.5858  1.6201
   67MOL   H13325345   5.158   6.143   4.286  0.2248 -1.0360  0.3185
   67MOL   H13425346   5.323   6.086   4.310 -1.0975 -0.0165 -0.8171
   67MOL   C13525347   5.211   6.491   3.779  0.0426  1.4160  0.4898
   67MOL   C13625348   5.155   6.621   3.715 -0.0175 -0.7122 -0.1150
   67MOL   O13725349   5.136   6.711   3.822 -0.0577  0.0471 -0.2174
   67MOL   C13825350   5.006   6.769   3.837 -0.4353 -0.3322  0.4909
   67MOL   C13925351   5.008   6.846   3.975  0.5862 -0.4752  0.2086
   67MOL   C14025352   4.877   6.918   3.998 -0.2248  0.0599 -0.2866
   67MOL   C14125353   5.058   6.755   4.097  0.0191 -0.2891  0.0139
   67MOL   H14225354   5.311   6.508   3.819  0.2767  0.2151  0.4433
   67MOL   H14325355   5.228   6.415   3.703 -2.5569  0.6678  0.5912
   67MOL   H14425356   5.055   6.591   3.681  0.7377 -1.4932 -1.6742
   67MOL   H14525357   4.927   6.694   3.845  0.1061 -1.0757 -0.9944
   67MOL   H14625358   4.985   6.840   3.757 -1.8126 -0.0447  1.0914
   67MOL   H14725359   5.081   6.927   3.966 -0.0934  0.2447  1.1082
   67MOL   H14825360   4.867   6.988   4.081  0.9551  0.0899 -0.1602
   67MOL   H14925361   4.796   6.848   4.020  0.2567 -0.5904 -0.5538
   67MOL   H15025362   4.840   6.967   3.908 -0.6336 -0.0973 -0.2071
   67MOL   H15125363   4.976   6.688   4.123  0.4946 -0.5186  0.9174
   67MOL   H15225364   5.145   6.697   4.066 -0.4625 -1.1261  0.2108
   67MOL   H15325365   5.087   6.810   4.186 -1.2947 -0.9746  0.8880
   67MOL   C15425366   5.240   6.661   3.591  0.3657 -0.0476  0.3125
   67MOL   C15525367   5.159   6.641   3.464  0.6420 -0.0191 -0.1454
   67MOL   O15625368   5.196   6.753   3.386  0.3376  0.0229  0.1639
   67MOL   C15725369   5.094   6.851   3.369 -0.1873 -0.3977  0.1969
   67MOL   C15825370   5.161   6.961   3.279  0.3667  0.4279  0.3371
   67MOL   C15925371   5.286   7.028   3.342  0.5044  0.4936  0.1520
   67MOL   C16025372   5.196   6.913   3.136  0.7248 -0.3020  0.1229
   67MOL   H16125373   5.336   6.608   3.587  1.6706  2.3663 -1.4401
   67MOL   H16225374   5.247   6.769   3.598  0.1052 -0.1063  1.6864
   67MOL   H16325375   5.051   6.645   3.474  0.5075 -1.0368 -1.0135
   67MOL   H16425376   5.068   6.890   3.468 -0.7416 -0.5788  0.1242
   67MOL   H16525377   5.003   6.816   3.321 -0.6657  0.3101  0.5704
   67MOL   H16625378   5.084   7.038   3.277 -1.6482 -1.5613 -1.0031
   67MOL   H16725379   5.257   7.048   3.445 -0.5373 -0.8073  0.1168
   67MOL   H16825380   5.316   7.115   3.284 -1.6906  1.2806  0.1544
   67MOL   H16925381   5.373   6.962   3.339  0.6748  0.7732 -2.9610
   67MOL   H17025382   5.251   6.989   3.080 -1.2061  0.9823 -0.1134
   67MOL   H17125383   5.234   6.812   3.126  0.0401 -0.5598  0.1100
   67MOL   H17225384   5.095   6.907   3.096  1.5212 -1.1716 -1.7903
   67MOL   C17325385   5.204   6.509   3.390 -0.1666  0.5216  0.8894
   67MOL   C17425386   5.103   6.451   3.287  0.0105  0.2785 -0.3383
   67MOL   O17525387   5.162   6.362   3.198  0.5392 -0.4617 -0.1529
   67MOL   C17625388   5.241   6.414   3.097 -0.7115 -0.1225 -0.0373
   67MOL   C17725389   5.376   6.342   3.085 -0.3751  0.0304 -0.5660
   67MOL   C17825390   5.461   6.386   2.972  0.0019 -0.5576  0.2531
   67MOL   C17925391   5.461   6.322   3.212 -0.0130  0.4082  0.0994
   67MOL   H18025392   5.298   6.528   3.338  1.1968  0.0284  3.1097
   67MOL   H18125393   5.243   6.432   3.456 -1.3977 -0.9046  0.0018
   67MOL   H18225394   5.072   6.536   3.225 -1.1076 -1.3130 -2.0204
   67MOL   H18325395   5.257   6.521   3.112 -0.6362 -0.2778  1.0872
   67MOL   H18425396   5.195   6.408   2.999  0.4773 -2.2407 -0.4970
   67MOL   H18525397   5.345   6.241   3.057 -2.6976  0.6752 -0.4002
   67MOL   H18625398   5.411   6.384   2.875 -0.4039  1.2432  0.4048
   67MOL   H18725399   5.500   6.486   2.994  1.0676 -0.6878 -0.9496
   67MOL   H18825400   5.550   6.325   2.958 -0.0938 -0.5247 -0.5099
   67MOL   H18925401   5.517   6.411   3.241  2.4072 -0.4888 -1.5711
   67MOL   H19025402   5.531   6.240   3.192  1.6356  2.1264 -1.3329
   67MOL   H19125403   5.407   6.279   3.296  0.5734  2.3757  1.5018
   67MOL   C19225404   4.972   6.384   3.345 -0.4149 -0.4691 -0.6282
   67MOL   C19325405   4.844   6.415   3.269  0.1181 -0.1576 -0.3358
   67MOL   O19425406   4.727   6.354   3.324 -0.3495 -0.2004 -0.1871
   67MOL   C19525407   4.678   6.418   3.444  0.2953  0.5696 -0.1604
   67MOL   C19625408   4.542   6.360   3.491 -0.1994 -0.1387  1.2328
   67MOL   C19725409   4.426   6.384   3.397  0.3247  0.4384 -0.1461
   67MOL   C19825410   4.517   6.426   3.620 -0.0460  0.3664  0.0168
   67MOL   H19925411   4.951   6.416   3.447  1.2719 -0.9935 -0.0886
   67MOL   H20025412   4.991   6.278   3.363 -1.7367 -0.5097  0.6182
   67MOL   H20125413   4.840   6.524   3.274  0.3822 -0.1666  0.0715
   67MOL   H20225414   4.674   6.526   3.430  1.4685  0.6350 -0.0218
   67MOL   H20325415   4.752   6.405   3.523 -0.5925 -0.0429  0.5937
   67MOL   H20425416   4.545   6.252   3.501 -2.5009 -0.3614 -0.1093
   67MOL   H20525417   4.423   6.310   3.317 -1.0358 -1.0611  1.2638
   67MOL   H20625418   4.342   6.343   3.453  2.1580 -3.0229  0.1698
   67MOL   H20725419   4.410   6.490   3.374  2.0326  0.8415  0.4688
   67MOL   H20825420   4.429   6.388   3.671  1.7883 -2.9291  0.8452
   67MOL   H20925421   4.602   6.417   3.687 -0.2503  0.3907  0.2771
   67MOL   H21025422   4.509   6.535   3.618  0.5852  0.3977 -2.7069
   67MOL   C21125423   4.847   6.359   3.121  0.3317  0.3288  0.6220
   67MOL   C21225424   4.714   6.400   3.042  0.6286 -0.1731 -0.6062
   67MOL   O21325425   4.686   6.540   3.061  0.5730 -0.6456  0.1830
   67MOL   C21425426   4.546   6.565   3.088 -0.7275  0.3067 -0.0953
   67MOL   C21525427   4.524   6.710   3.109 -0.5579 -0.0899 -0.1235
   67MOL   C21625428   4.369   6.733   3.117  0.4448  0.0094  0.3532
   67MOL   C21725429   4.586   6.755   3.237 -0.0948  0.0373 -0.3994
   67MOL   H21825430   4.860   6.250   3.119  1.6095  0.4729 -2.7190
   67MOL   H21925431   4.932   6.400   3.066 -0.3841 -0.8655 -1.4111
   67MOL   H22025432   4.635   6.335   3.080  1.2820 -0.6066  0.0423
   67MOL   H22125433   4.522   6.509   3.179 -0.8689 -1.1823 -1.0429
   67MOL   H22225434   4.480   6.532   3.008  0.2577  0.4836 -0.9951
   67MOL   H22325435   4.572   6.767   3.030 -4.3438  1.0684 -1.7204
   67MOL   H22425436   4.311   6.707   3.029  1.1112  0.6038 -0.2725
   67MOL   H22525437   4.339   6.676   3.204  0.0488  0.2341  0.3678
   67MOL   H22625438   4.354   6.840   3.134 -0.7270 -0.4991  2.6206
   67MOL   H22725439   4.530   6.726   3.325 -2.6105  1.4388 -1.5109
   67MOL   H22825440   4.594   6.863   3.241 -0.7627  0.1208 -1.1227
   67MOL   H22925441   4.686   6.714   3.251 -0.0775  0.7495  1.8261
   67MOL   C23025442   4.725   6.372   2.896  0.0531  0.4966  0.3239
   67MOL   C23125443   4.738   6.224   2.850 -0.0143 -0.0210  0.2419
   67MOL   O23225444   4.626   6.156   2.894  0.1286 -0.2387  0.7239
   67MOL   C23325445   4.653   6.057   2.989  0.2724 -0.0393  0.1769
   67MOL   C23425446   4.523   6.007   3.062  0.3994 -0.1502  0.0441
   67MOL   C23525447   4.488   6.105   3.171 -0.4765  0.1707 -0.2372
   67MOL   C23625448   4.410   5.988   2.957  0.6855  0.9091  0.2943
   67MOL   H23725449   4.805   6.431   2.851 -1.4182  2.4514  0.2262
   67MOL   H23825450   4.631   6.408   2.855 -0.1299  0.1346  0.4214
   67MOL   H23925451   4.831   6.184   2.890  0.2406  0.2349 -0.0930
   67MOL   H24025452   4.699   5.978   2.929 -1.2901 -0.7524 -0.0818
   67MOL   H24125453   4.723   6.096   3.063  0.2505  3.3009 -1.4661
   67MOL   H24225454   4.545   5.911   3.108  3.5066  0.0014 -0.9876
   67MOL   H24325455   4.390   6.077   3.210  0.4292 -0.3267  1.7475
   67MOL   H24425456   4.488   6.202   3.120  3.2458  0.7321  0.7158
   67MOL   H24525457   4.560   6.124   3.250 -0.3386  0.7401 -0.4981
   67MOL   H24625458   4.384   6.080   2.905  1.4439  0.9616  0.0115
   67MOL   H24725459   4.446   5.919   2.880 -1.3245  0.5344 -0.3571
   67MOL   H24825460   4.317   5.943   2.992 -0.8965  2.3332 -1.9831
   67MOL   C24925461   4.759   6.197   2.705  0.2277 -0.7970  0.5060
   67MOL   C25025462   4.893   6.254   2.657  0.3237  0.1367 -0.0848
   67MOL   O25125463   4.987   6.146   2.680  0.2325  0.0555 -0.0435
   67MOL   C25225464   5.118   6.199   2.706 -0.4963  0.1770 -0.0261
   67MOL   C25325465   5.227   6.090   2.702 -0.1786  0.0350 -0.2796
   67MOL   C25425466   5.364   6.131   2.764  0.0653  0.5354  0.4364
   67MOL   C25525467   5.253   6.041   2.554  0.1057  0.3559 -0.4611
   67MOL   H25625468   4.679   6.240   2.646 -0.0392  0.2156  1.5962
   67MOL   H25725469   4.747   6.092   2.679  0.1582 -0.6817  0.0776
   67MOL   H25825470   4.916   6.352   2.698  0.9508  0.4510 -1.1650
   67MOL   H25925471   5.145   6.286   2.646 -0.1993 -0.2260 -0.4803
   67MOL   H26025472   5.105   6.242   2.806  1.6563 -2.9168  1.6827
   67MOL   H26125473   5.197   6.013   2.773 -0.9451  0.6905  0.1090
   67MOL   H26225474   5.448   6.076   2.723  1.4630  1.9276  1.4092
   67MOL   H26325475   5.365   6.105   2.870  1.4215 -3.1025 -0.3906
   67MOL   H26425476   5.388   6.234   2.740  0.0388  0.2670 -0.7905
   67MOL   H26525477   5.305   5.946   2.552 -1.6961 -0.6367 -3.8250
   67MOL   H26625478   5.163   6.023   2.495  0.0734  0.8546 -0.5682
   67MOL   H26725479   5.304   6.118   2.496  0.0619  1.1633  0.5489
   67MOL   C26825480   4.901   6.271   2.502 -0.0277 -0.5731  0.0072
   67MOL   C26925481   4.880   6.422   2.458  0.2191 -0.0952  0.9276
   67MOL   O27025482   4.752   6.453   2.500  0.4998  0.9010  0.8550
   67MOL   C27125483   4.733   6.587   2.538  0.4526  0.1783 -0.0054
   67MOL   C27225484   4.584   6.616   2.544  0.8121 -0.2558 -1.6837
   67MOL   C27325485   4.507   6.553   2.422 -0.1744  0.3937 -0.1806
   67MOL   C27425486   4.522   6.541   2.663  0.7462  0.0027  0.3873
   67MOL   H27525487   4.827   6.206   2.455 -0.6066  1.4267 -1.8968
   67MOL   H27625488   4.996   6.233   2.463 -0.4080  0.0458 -1.5284
   67MOL   H27725489   4.952   6.478   2.518  1.1006 -0.7247  0.4615
   67MOL   H27825490   4.781   6.628   2.627  2.9184 -0.1309 -1.1481
   67MOL   H27925491   4.778   6.649   2.460 -0.5270  0.4896 -0.3313
   67MOL   H28025492   4.568   6.723   2.551 -0.6535 -0.5335 -0.5199
   67MOL   H28125493   4.499   6.444   2.428  0.4621  0.3341 -0.4716
   67MOL   H28225494   4.561   6.579   2.331 -0.9427  0.7334 -0.5506
   67MOL   H28325495   4.407   6.594   2.435 -0.8761 -1.2501 -0.2375
   67MOL   H28425496   4.414   6.546   2.679  0.5884 -1.2284 -0.1873
   67MOL   H28525497   4.575   6.563   2.755  1.9332 -2.0351  0.2126
   67MOL   H28625498   4.538   6.433   2.657  0.1961 -0.1589  1.6263
   67MOL   C28725499   4.881   6.451   2.305  1.0072  0.1151 -0.3977
   67MOL   C28825500   5.013   6.422   2.224  0.3809 -1.0379  0.0606
   67MOL   O28925501   5.111   6.516   2.266  0.0346 -0.3656 -0.5300
   67MOL   C29025502   5.206   6.460   2.356  0.1059 -0.1539 -1.2528
   67MOL   C29125503   5.299   6.566   2.425  0.1033 -0.4354 -0.1523
   67MOL   C29225504   5.366   6.663   2.332 -0.1076 -0.2122 -0.4348
   67MOL   C29325505   5.398   6.514   2.528  0.1679 -0.2904 -0.3783
   67MOL   H29425506   4.854   6.556   2.302  0.3015 -0.0449  0.0970
   67MOL   H29525507   4.794   6.404   2.258 -0.4289  0.5239  1.7610
   67MOL   H29625508   5.044   6.321   2.250 -0.1298 -0.4912  2.9377
   67MOL   H29725509   5.150   6.402   2.430  0.0368 -0.5859 -1.6365
   67MOL   H29825510   5.269   6.384   2.308  0.7846  0.1637 -0.8565
   67MOL   H29925511   5.230   6.633   2.475  0.8136  1.9227 -2.2139
   67MOL   H30025512   5.301   6.707   2.256  0.0933 -0.6631 -0.8705
   67MOL   H30125513   5.450   6.631   2.271 -0.1118 -2.2271  0.5997
   67MOL   H30225514   5.409   6.744   2.391  0.0978  1.1549 -2.3991
   67MOL   H30325515   5.458   6.594   2.571 -0.5919 -0.0273  0.2009
   67MOL   H30425516   5.343   6.465   2.608 -0.6491  0.2462 -0.6040
   67MOL   H30525517   5.463   6.442   2.478  0.4928  0.7644 -1.5181
   67MOL   C30625518   4.986   6.456   2.071 -0.3932  0.3022  0.0724
   67MOL   C30725519   5.094   6.418   1.969 -0.4899 -0.1638  0.0536
   67MOL   O30825520   5.034   6.428   1.837  0.0644  0.1204 -0.0917
   67MOL   C30925521   4.980   6.303   1.788  0.4820  0.0033  0.0072
   67MOL   C31025522   4.902   6.331   1.659 -0.2127 -0.2148  0.0143
   67MOL   C31125523   4.779   6.422   1.685  0.6230 -0.0231 -0.1490
   67MOL   C31225524   4.856   6.188   1.604 -0.9485  0.4003 -0.3927
   67MOL   H31325525   4.964   6.561   2.054  2.4101  0.9783  0.4423
   67MOL   H31425526   4.895   6.404   2.041  0.2661 -0.7651 -0.0946
   67MOL   H31525527   5.127   6.316   1.987 -1.7712 -0.4364  0.9446
   67MOL   H31625528   4.917   6.262   1.867  1.0518  0.8038  0.8716
   67MOL   H31725529   5.062   6.234   1.772 -0.2830 -1.1645  1.0476
   67MOL   H31825530   4.958   6.387   1.584  1.4350 -2.8340 -0.7708
   67MOL   H31925531   4.803   6.501   1.757 -0.9154 -0.9037  1.3655
   67MOL   H32025532   4.702   6.361   1.733 -0.8238  0.7816 -1.3846
   67MOL   H32125533   4.731   6.461   1.595 -0.6169 -0.3637  0.3420
   67MOL   H32225534   4.927   6.144   1.535 -0.9158 -1.0734  0.5745
   67MOL   H32325535   4.765   6.200   1.545 -1.3853  1.6594  0.5105
   67MOL   H32425536   4.836   6.115   1.682  1.8636 -1.4605 -1.3102
   67MOL   C32525537   5.219   6.509   1.974  0.0270 -0.1841  0.6679
   67MOL   C32625538   5.345   6.455   1.907  1.1314  0.1450 -0.4317
   67MOL   O32725539   5.377   6.338   1.973 -0.2004 -0.2440  0.5947
   67MOL   C32825540   5.466   6.354   2.083  0.2378 -0.1298 -1.0539
   67MOL   C32925541   5.466   6.217   2.151  0.6283  0.1750  0.0462
   67MOL   C33025542   5.522   6.108   2.053  0.1225 -0.5466 -0.4153
   67MOL   C33125543   5.548   6.227   2.281  0.6051  0.8230  0.1643
   67MOL   H33225544   5.244   6.549   2.072  0.8935  0.3758  0.2196
   67MOL   H33325545   5.195   6.601   1.920 -2.7789 -0.7146  0.9482
   67MOL   H33425546   5.424   6.526   1.929 -1.1536  2.4686  0.5950
   67MOL   H33525547   5.562   6.387   2.042 -0.9083  0.9858 -2.9208
   67MOL   H33625548   5.450   6.427   2.161  0.2866 -0.1892 -0.9882
   67MOL   H33725549   5.362   6.194   2.172  0.7874  1.7249  2.8641
   67MOL   H33825550   5.547   6.022   2.115 -0.8749 -1.5548 -1.3562
   67MOL   H33925551   5.442   6.082   1.983 -0.1536 -1.0781  0.0899
   67MOL   H34025552   5.615   6.138   2.005 -0.3161 -1.8359 -2.1401
   67MOL   H34125553   5.482   6.286   2.345  1.2296  0.5961  1.0260
   67MOL   H34225554   5.576   6.140   2.341 -0.1133 -0.2367 -1.0167
   67MOL   H34325555   5.640   6.285   2.271  0.9594 -0.1392 -2.4526
   67MOL   C34425556   5.332   6.437   1.755 -0.2552 -0.1044  0.2481
   67MOL   C34525557   5.329   6.561   1.661 -0.0948 -0.3502  0.1444
   67MOL   O34625558   5.453   6.634   1.686  0.2523 -0.0078 -0.3682
   67MOL   C34725559   5.440   6.771   1.711 -0.2712 -0.5026 -0.5889
   67MOL   C34825560   5.584   6.823   1.719 -0.0203 -0.6546  0.0363
   67MOL   C34925561   5.648   6.809   1.579  0.3058 -0.4472  0.8391
   67MOL   C35025562   5.665   6.762   1.831 -0.7832 -0.0707  0.4998
   67MOL   H35125563   5.243   6.376   1.735  0.2081 -0.6526 -0.1828
   67MOL   H35225564   5.413   6.374   1.718  0.7151  0.2145  1.7700
   67MOL   H35325565   5.234   6.606   1.690 -1.3122 -2.2635 -0.7494
   67MOL   H35425566   5.385   6.792   1.803 -0.0875  2.1517 -1.0467
   67MOL   H35525567   5.397   6.828   1.629 -1.6387 -0.6223  0.0319
   67MOL   H35625568   5.586   6.927   1.751  0.7162 -0.0007 -2.0629
   67MOL   H35725569   5.602   6.875   1.505 -0.1683 -1.7788 -0.0882
   67MOL   H35825570   5.636   6.706   1.545 -0.4645 -0.6561  1.7395
   67MOL   H35925571   5.754   6.833   1.572  0.1033  0.4904  0.8915
   67MOL   H36025572   5.622   6.783   1.929 -0.4163  1.2109  0.4013
   67MOL   H36125573   5.681   6.655   1.824 -0.3040  0.0604 -0.5530
   67MOL   H36225574   5.762   6.812   1.835 -0.4708 -0.5911 -0.5534
   67MOL   C36325575   5.325   6.534   1.509 -0.0794 -0.2792  0.7414
   67MOL   C36425576   5.255   6.645   1.432  0.4522 -0.6851  0.2712
   67MOL   O36525577   5.317   6.649   1.305 -0.4453 -0.2321 -0.3457
   67MOL   C36625578   5.264   6.742   1.210 -0.1387 -0.1199  0.1550
   67MOL   C36725579   5.315   6.885   1.239  0.1435 -0.5596  0.0033
   67MOL   C36825580   5.264   6.991   1.138  0.1569 -0.2598  0.4884
   67MOL   C36925581   5.471   6.884   1.246  0.6838 -0.9274  0.0640
   67MOL   H37025582   5.420   6.519   1.456 -0.7265  0.5376 -0.7034
   67MOL   H37125583   5.267   6.443   1.496  0.1583 -0.1725 -1.3182
   67MOL   H37225584   5.271   6.743   1.477 -1.0624  0.3529 -1.3859
   67MOL   H37325585   5.293   6.711   1.109  0.0923  0.8700 -0.0904
   67MOL   H37425586   5.155   6.741   1.214 -0.1137  1.2953  2.0343
   67MOL   H37525587   5.292   6.916   1.340  0.6029  1.2893 -0.4444
   67MOL   H37625588   5.304   7.092   1.150  0.4787 -0.3036 -0.1866
   67MOL   H37725589   5.156   7.007   1.145 -0.1699 -2.1664 -0.1379
   67MOL   H37825590   5.284   6.968   1.033 -2.1844 -0.8463  0.1380
   67MOL   H37925591   5.517   6.978   1.278  1.6416 -1.6628  0.8722
   67MOL   H38025592   5.527   6.859   1.155 -0.7612  2.3505 -1.8067
   67MOL   H38125593   5.493   6.822   1.333 -0.7893 -1.6149 -0.0432
   67MOL   H38225594   5.148   6.630   1.415  0.1102  1.7016  0.1761
   68MOL     C125595   7.387   1.645   0.107 -0.4939 -0.7348 -0.3250
   68MOL     C225596   7.316   1.780   0.104  0.2455 -0.5410 -0.8613
   68MOL     O325597   7.416   1.877   0.062 -0.3979 -0.1978 -0.8815
   68MOL     C425598   7.394   2.013   0.096  0.2107 -0.9398  0.2395
   68MOL     C525599   7.533   2.075   0.049 -0.5117  0.4334  0.4691
   68MOL     C625600   7.653   2.029   0.133 -0.8563  0.3876  0.0225
   68MOL     C725601   7.523   2.226   0.064  0.3730  0.2592  0.6885
   68MOL     H825602   7.434   1.621   0.011 -0.9345 -0.2635 -0.6666
   68MOL     H925603   7.466   1.638   0.182  1.3819  1.1165 -2.0589
   68MOL    H1025604   7.270   1.795   0.202 -0.0204 -2.5907 -0.6506
   68MOL    H1125605   7.367   2.027   0.201 -0.9627 -0.3021 -0.1360
   68MOL    H1225606   7.303   2.043   0.044 -0.6230 -1.7056  1.2461
   68MOL    H1325607   7.541   2.042   7.771 -1.2135  3.3983 -0.6129
   68MOL    H1425608   7.685   1.927   0.115  0.4290  0.3662  2.2108
   68MOL    H1525609   7.741   2.093   0.125 -0.6225  0.0108 -0.4340
   68MOL    H1625610   7.629   2.035   0.239  0.7183 -0.1589  0.4276
   68MOL    H1725611   7.612   2.281   0.033 -1.3581  1.7689 -1.7607
   68MOL    H1825612   7.440   2.271   0.011 -0.4417 -0.2855  1.4793
   68MOL    H1925613   7.510   2.254   0.169 -0.1733  0.3213  0.6021
   68MOL    H2025614   7.314   1.566   0.126 -0.4985 -0.9141 -1.0537
   68MOL    C2125615   7.197   1.785   7.824 -0.4146 -0.1400 -0.2291
   68MOL    C2225616   7.062   1.735   0.038  0.3791  0.1599 -0.5049
   68MOL    O2325617   7.009   1.831   0.125  0.0472 -0.2460  0.9057
   68MOL    C2425618   6.897   1.778   0.203  0.2802  0.2792 -0.3394
   68MOL    C2525619   6.858   1.866   0.328  0.1709 -0.3010 -0.1768
   68MOL    C2625620   6.724   1.822   0.389  0.3063 -0.0153  0.2140
   68MOL    C2725621   6.972   1.853   0.426 -0.7982  0.4895 -0.3234
   68MOL    H2825622   7.181   1.887   7.789 -1.2257 -0.6743 -1.4327
   68MOL    H2925623   7.227   1.734   7.732 -1.4898 -0.9694 -0.1237
   68MOL    H3025624   7.081   1.639   0.084 -0.9888 -0.0371 -0.3415
   68MOL    H3125625   6.900   1.675   0.237 -1.0670  0.1769 -0.5113
   68MOL    H3225626   6.814   1.783   0.133  1.1788 -1.5499 -1.5794
   68MOL    H3325627   6.844   1.971   0.305 -0.9878 -0.4804 -0.3173
   68MOL    H3425628   6.688   1.872   0.480 -1.1095  1.1398 -0.9611
   68MOL    H3525629   6.747   1.722   0.427  0.2470 -1.5426 -3.6048
   68MOL    H3625630   6.644   1.822   0.315 -1.2995 -1.3366  1.8761
   68MOL    H3725631   7.070   1.888   0.393 -0.4398 -0.9572 -0.7955
   68MOL    H3825632   6.939   1.920   0.506 -1.8284 -1.0096  0.5203
   68MOL    H3925633   6.972   1.753   0.469  2.9263  0.5674 -0.0191
   68MOL    C4025634   6.972   1.713   7.739  0.4980  0.0367  0.4748
   68MOL    C4125635   7.004   1.583   7.673 -0.2900 -0.1788 -0.2151
   68MOL    O4225636   7.039   1.611   7.538 -0.2879 -0.5663  0.1127
   68MOL    C4325637   7.124   1.510   7.486 -0.2037  0.4332  0.2443
   68MOL    C4425638   7.147   1.513   7.336 -0.3649 -0.3395  0.6906
   68MOL    C4525639   7.013   1.506   7.269  0.1502  0.4812 -0.1947
   68MOL    C4625640   7.229   1.637   7.295  0.1108 -0.2648 -0.0290
   68MOL    H4725641   6.979   1.794   7.667 -1.3878 -1.1749 -1.1213
   68MOL    H4825642   6.866   1.719   7.764  0.4701  1.0757  0.1217
   68MOL    H4925643   7.089   1.536   7.723  0.5363  2.0679  0.6016
   68MOL    H5025644   7.095   1.410   7.519  0.3323  0.0474 -0.4336
   68MOL    H5125645   7.219   1.531   7.534  0.2878 -0.3240 -0.3761
   68MOL    H5225646   7.209   1.425   7.318 -0.9882 -1.2075  2.5810
   68MOL    H5325647   6.964   1.603   7.267 -0.8839 -0.0207  0.2567
   68MOL    H5425648   7.028   1.471   7.167 -0.3268 -1.9489  0.5374
   68MOL    H5525649   6.954   1.422   7.305 -0.3686  0.9025 -0.0643
   68MOL    H5625650   7.335   1.640   7.319  0.4520  1.3195 -1.6764
   68MOL    H5725651   7.186   1.729   7.333 -0.5284  0.0983 -1.6097
   68MOL    H5825652   7.213   1.645   7.187 -3.3823 -0.4419  0.4250
   68MOL    C5925653   6.888   1.482   7.671 -0.0084  0.6161 -0.0652
   68MOL    C6025654   6.856   1.419   7.814  0.3063 -0.1423 -0.0141
   68MOL    O6125655   6.958   1.331   0.032  0.2045 -0.6200 -0.0501
   68MOL    C6225656   6.972   1.285   0.166  0.2104 -0.5754  0.6734
   68MOL    C6325657   7.091   1.191   0.177  0.5149  0.7467 -0.2146
   68MOL    C6425658   7.224   1.262   0.161  0.2953  0.0446  0.3356
   68MOL    C6525659   7.080   1.096   0.306 -0.4454  0.1591 -0.2525
   68MOL    H6625660   6.902   1.406   7.594  1.0925  0.5923  0.1582
   68MOL    H6725661   6.803   1.544   7.640 -0.0588  0.3352 -0.4986
   68MOL    H6825662   6.854   1.501   0.061 -0.9516  1.2261 -1.5824
   68MOL    H6925663   6.982   1.365   0.240  2.9080  0.0205 -0.2590
   68MOL    H7025664   6.882   1.231   0.196  0.3865  0.3359  2.9504
   68MOL    H7125665   7.096   1.121   0.094  3.2732  0.8346 -0.1652
   68MOL    H7225666   7.236   1.329   0.075  0.7957  1.0992  1.2112
   68MOL    H7325667   7.304   1.190   0.145 -0.4571 -0.2580 -2.3708
   68MOL    H7425668   7.251   1.313   0.254  0.0236 -0.0529  0.4674
   68MOL    H7525669   7.180   1.059   0.332 -0.1312  2.0262  1.2942
   68MOL    H7625670   7.049   1.153   0.393  1.8812 -0.2371  0.8661
   68MOL    H7725671   7.005   1.021   0.281 -1.1250  0.7775 -0.0580
   68MOL    C7825672   6.711   1.360   0.001  0.0673  0.7810 -0.1505
   68MOL    C7925673   6.587   1.438   7.781  0.0255  0.8510  0.5382
   68MOL    O8025674   6.464   1.372   7.810 -0.1632  0.6567 -0.0867
   68MOL    C8125675   6.433   1.261   7.730 -0.0080 -0.3903  0.0570
   68MOL    C8225676   6.351   1.309   7.602  0.1068 -0.0031 -0.2592
   68MOL    C8325677   6.229   1.389   7.645  0.3101  0.4986 -0.0627
   68MOL    C8425678   6.308   1.196   7.512 -0.1055 -0.1975  0.7868
   68MOL    H8525679   6.705   1.348   0.109 -2.7686 -0.4027 -0.4156
   68MOL    H8625680   6.712   1.262   7.779  1.1085  0.7165 -0.0183
   68MOL    H8725681   6.589   1.455   7.674 -0.0478 -0.2514  0.3594
   68MOL    H8825682   6.528   1.221   7.695  0.0920 -0.0091 -0.1044
   68MOL    H8925683   6.365   1.195   7.785 -1.0105 -0.6057 -1.4090
   68MOL    H9025684   6.415   1.380   7.549 -0.9160  0.8276 -0.4011
   68MOL    H9125685   6.273   1.477   7.692 -2.6314  0.7577  2.3661
   68MOL    H9225686   6.177   1.333   7.723 -1.8311  1.5134 -0.7009
   68MOL    H9325687   6.155   1.399   7.565  1.2097 -0.9638 -1.1018
   68MOL    H9425688   6.398   1.137   7.496  0.2501  0.8094 -1.0549
   68MOL    H9525689   6.273   1.241   7.419  0.0860 -0.8833  0.3804
   68MOL    H9625690   6.226   1.141   7.558 -0.4076 -0.6041 -0.2061
   68MOL    C9725691   6.571   1.569   0.027  0.7953  0.3576 -1.0134
   68MOL    C9825692   6.495   1.681   7.778 -0.7481 -0.1045  0.2054
   68MOL    O9925693   6.558   1.701   7.653 -0.0024 -0.3054  0.6408
   68MOL   C10025694   6.475   1.746   7.549 -0.9323 -0.2069 -0.4168
   68MOL   C10125695   6.556   1.826   7.448  0.6349  0.9460  0.0437
   68MOL   C10225696   6.644   1.950   7.494 -0.1171  0.4726  0.0876
   68MOL   C10325697   6.647   1.720   7.381  0.6092 -0.5654 -0.0984
   68MOL   H10425698   6.669   1.608   0.054  1.2069 -1.5199  0.2900
   68MOL   H10525699   6.516   1.551   0.120  0.3610  3.0202 -0.7189
   68MOL   H10625700   6.396   1.640   7.758 -1.3502  1.4275  0.0054
   68MOL   H10725701   6.406   1.820   7.590 -1.3994 -1.1424  0.5230
   68MOL   H10825702   6.425   1.661   7.503 -2.0022  0.5504 -0.6848
   68MOL   H10925703   6.487   1.861   7.371 -0.0467  2.6331  1.3883
   68MOL   H11025704   6.736   1.913   7.539  0.5339 -0.0272 -1.6307
   68MOL   H11125705   6.666   2.017   7.411 -2.5309 -1.0426 -1.8417
   68MOL   H11225706   6.595   2.008   7.572 -2.8218 -1.7848  0.1467
   68MOL   H11325707   6.605   1.620   7.368  0.5836 -0.6309  0.4507
   68MOL   H11425708   6.684   1.746   7.282 -0.9977 -1.8101 -1.0516
   68MOL   H11525709   6.731   1.695   7.447 -0.5505  0.7149  1.9011
   68MOL   C11625710   6.486   1.811   0.039 -0.4547 -0.1618  0.1484
   68MOL   C11725711   6.349   1.828   0.106  0.1278 -0.5984 -0.5257
   68MOL   O11825712   6.337   1.709   0.177 -0.0536 -0.0715 -0.0993
   68MOL   C11925713   6.201   1.673   0.185 -0.8284  0.0365 -0.0108
   68MOL   C12025714   6.184   1.565   0.300  0.4182 -0.2619  0.3718
   68MOL   C12125715   6.245   1.428   0.271 -0.5941 -0.3582  0.5498
   68MOL   C12225716   6.243   1.630   0.422 -0.0897 -0.5182 -0.3694
   68MOL   H12325717   6.563   1.805   0.116  1.3680 -3.2189 -1.8000
   68MOL   H12425718   6.512   1.901   7.807 -0.8134  0.7191  1.3578
   68MOL   H12525719   6.272   1.848   0.032  1.2284  3.0851 -0.8090
   68MOL   H12625720   6.165   1.624   0.094  2.0080  0.7958 -1.6015
   68MOL   H12725721   6.136   1.758   0.205 -1.8587  0.1398 -3.4651
   68MOL   H12825722   6.077   1.560   0.321  0.6674 -2.6229  1.1466
   68MOL   H12925723   6.352   1.432   0.247 -0.9252  0.6665 -0.8112
   68MOL   H13025724   6.194   1.378   0.189 -0.8423 -1.2308  1.2416
   68MOL   H13125725   6.220   1.372   0.361 -0.3931 -1.9165 -0.3425
   68MOL   H13225726   6.211   1.734   0.412  2.1613  0.2731  0.3277
   68MOL   H13325727   6.212   1.590   0.519 -0.0279  0.3839  0.0253
   68MOL   H13425728   6.350   1.649   0.414 -0.3317  1.2912  0.3824
   68MOL   C13525729   6.357   1.938   0.218 -0.5723 -0.5231 -0.1098
   68MOL   C13625730   6.369   2.086   0.164  0.6152 -0.5633  0.8894
   68MOL   O13725731   6.260   2.097   0.070  0.1993 -0.0120  0.0861
   68MOL   C13825732   6.286   2.180   7.788  0.2741  0.0042 -0.2176
   68MOL   C13925733   6.160   2.180   7.697 -0.4380 -0.5977  0.2586
   68MOL   C14025734   6.167   2.301   7.595 -0.4349  0.1095 -0.1670
   68MOL   C14125735   6.144   2.043   7.620  0.2581 -0.1835 -0.3481
   68MOL   H14225736   6.277   1.924   0.291 -0.3085 -1.4675  0.0127
   68MOL   H14325737   6.442   1.916   0.283 -2.0737 -0.5046  1.9365
   68MOL   H14425738   6.470   2.094   0.123  1.1087 -0.4600  2.1171
   68MOL   H14525739   6.369   2.147   7.725 -0.6448  0.5873 -1.7751
   68MOL   H14625740   6.312   2.279   0.001  1.6752  0.5056 -2.4171
   68MOL   H14725741   6.072   2.195   7.760  0.0058  1.2623  0.4590
   68MOL   H14825742   6.169   2.397   7.647 -1.4383  0.0160  0.0751
   68MOL   H14925743   6.080   2.312   7.529  0.7286 -1.5355 -2.0260
   68MOL   H15025744   6.251   2.295   7.526  1.3832 -0.4214  2.0529
   68MOL   H15125745   6.233   2.021   7.562  1.1124  0.2405  0.7738
   68MOL   H15225746   6.120   1.960   7.686  0.2008  0.6243  0.6695
   68MOL   H15325747   6.070   2.057   7.542 -0.5119  3.2534  0.8890
   68MOL   C15425748   6.332   2.194   0.273 -0.8548  0.0232 -0.5984
   68MOL   C15525749   6.435   2.191   0.388 -0.5905  0.2240  0.4070
   68MOL   O15625750   6.555   2.263   0.343  0.0421  0.2791 -0.0555
   68MOL   C15725751   6.660   2.295   0.438  0.1645  0.6578 -0.3357
   68MOL   C15825752   6.782   2.323   0.349 -0.3185 -0.4602 -0.9283
   68MOL   C15925753   6.772   2.457   0.268  0.1190 -0.2938 -1.0128
   68MOL   C16025754   6.907   2.321   0.434  0.0746  0.4298 -0.2352
   68MOL   H16125755   6.225   2.188   0.290 -0.3052  1.5128  3.9746
   68MOL   H16225756   6.334   2.292   0.226  0.8109  0.3128  0.0295
   68MOL   H16325757   6.475   2.092   0.408  1.0721  1.2346  2.1975
   68MOL   H16425758   6.674   2.208   0.502  1.2837  1.2126  0.1827
   68MOL   H16525759   6.628   2.379   0.500 -1.4395 -0.0417 -0.1696
   68MOL   H16625760   6.783   2.237   0.283 -0.1521  1.0019 -2.8777
   68MOL   H16725761   6.871   2.475   0.227  0.5122  1.0231  0.4674
   68MOL   H16825762   6.748   2.548   0.323  2.8977 -0.3067  0.2961
   68MOL   H16925763   6.704   2.460   0.182  1.9693  2.0258 -2.4607
   68MOL   H17025764   6.918   2.217   0.466 -2.8996  0.1684  0.0195
   68MOL   H17125765   7.001   2.354   0.389  0.3986  0.2942  0.3282
   68MOL   H17225766   6.906   2.370   0.531  0.4770 -2.5391  1.3189
   68MOL   C17325767   6.373   2.245   0.525 -0.2069 -0.3608  0.7123
   68MOL   C17425768   6.264   2.158   0.589 -0.1757 -0.7687 -0.1259
   68MOL   O17525769   6.326   2.054   0.679  0.3483 -0.4686 -0.3575
   68MOL   C17625770   6.363   1.927   0.625  1.2950  0.1803 -0.0877
   68MOL   C17725771   6.381   1.827   0.741  0.2472  0.7203 -1.1602
   68MOL   C17825772   6.242   1.800   0.807 -0.0084  0.8100 -1.0360
   68MOL   C17925773   6.450   1.696   0.693  0.4855  0.1911 -0.0491
   68MOL   H18025774   6.448   2.270   0.600  0.8473  4.3515 -1.7405
   68MOL   H18125775   6.322   2.334   0.488 -0.9987 -1.1471 -0.1357
   68MOL   H18225776   6.214   2.107   0.506 -2.6541  2.3284 -0.5915
   68MOL   H18325777   6.457   1.933   0.571  0.7072  0.7461 -1.0691
   68MOL   H18425778   6.282   1.901   0.556  1.7536  1.6565 -1.2163
   68MOL   H18525779   6.445   1.863   0.821  0.2728 -2.4197  0.2932
   68MOL   H18625780   6.248   1.714   0.874  0.4690  0.3756 -1.6264
   68MOL   H18725781   6.206   1.887   0.863  3.3851  1.6615 -0.0458
   68MOL   H18825782   6.163   1.782   0.735 -2.8405  1.7130  1.7399
   68MOL   H18925783   6.517   1.720   0.610 -1.0622  1.1212 -1.0579
   68MOL   H19025784   6.380   1.625   0.648  0.1934  0.0582  0.6092
   68MOL   H19125785   6.509   1.641   0.767  0.1598 -0.4343 -0.2488
   68MOL   C19225786   6.165   2.241   0.679  0.2914  0.3015 -0.1001
   68MOL   C19325787   6.026   2.183   0.697 -0.4839  0.4065  0.3016
   68MOL   O19425788   5.959   2.164   0.574 -0.2192 -0.1518  0.1807
   68MOL   C19525789   5.947   2.030   0.527  0.1544 -0.9068 -0.3110
   68MOL   C19625790   5.853   2.022   0.415  0.5296 -0.6908 -0.3513
   68MOL   C19725791   5.806   1.880   0.368  0.2632  0.1080 -0.0399
   68MOL   C19825792   5.918   2.094   0.296  0.2744  0.0751 -0.3826
   68MOL   H19925793   6.159   2.337   0.628  1.2784  0.3061 -0.2297
   68MOL   H20025794   6.215   2.268   0.773 -0.0525 -1.2643  0.5496
   68MOL   H20125795   6.033   2.081   0.735  1.3033 -0.0251 -1.0672
   68MOL   H20225796   5.926   1.960   0.608  0.7865  0.2664  0.8734
   68MOL   H20325797   6.043   1.994   0.489  1.3443  2.2169 -0.3405
   68MOL   H20425798   5.760   2.076   0.434  0.3991 -1.9471  2.9041
   68MOL   H20525799   5.889   1.810   0.361 -0.9924 -1.3607 -0.6730
   68MOL   H20625800   5.732   1.827   0.428 -0.2452  0.1391 -0.6297
   68MOL   H20725801   5.763   1.879   0.267  0.7231  0.1430 -0.2351
   68MOL   H20825802   6.005   2.038   0.262  0.9551  0.7715  0.2008
   68MOL   H20925803   5.839   2.095   0.220  0.8979  2.4776 -1.0312
   68MOL   H21025804   5.956   2.196   0.305 -0.3099  0.3547 -1.0483
   68MOL   C21125805   5.933   2.283   0.774  0.3587  0.5755 -0.6098
   68MOL   C21225806   5.886   2.232   0.920  0.0242 -0.3006  0.4168
   68MOL   O21325807   5.844   2.097   0.919  0.9159  0.4088 -0.1954
   68MOL   C21425808   5.709   2.075   0.890  0.8375 -0.0884 -0.4235
   68MOL   C21525809   5.632   2.038   1.022  0.1015  0.0482  0.0321
   68MOL   C21625810   5.483   2.031   1.011 -0.5525 -0.1872 -0.2705
   68MOL   C21725811   5.693   1.899   1.073  0.5451 -0.3679  0.0110
   68MOL   H21825812   5.839   2.292   0.719 -1.1246 -0.1300  1.7340
   68MOL   H21925813   5.980   2.381   0.775  0.9945  0.2888 -1.5514
   68MOL   H22025814   5.796   2.285   0.953 -1.4468 -1.1084 -2.1749
   68MOL   H22125815   5.705   1.993   0.819 -1.2944 -3.1143  3.0283
   68MOL   H22225816   5.661   2.163   0.847  0.0550  0.1889  0.9747
   68MOL   H22325817   5.656   2.114   1.097 -1.2077  1.5336 -1.0465
   68MOL   H22425818   5.434   2.125   0.985  0.0239  0.4604  0.9256
   68MOL   H22525819   5.463   1.955   0.935 -1.5358 -0.4214  0.2220
   68MOL   H22625820   5.444   1.988   1.104 -0.8279 -1.1342 -0.8142
   68MOL   H22725821   5.801   1.898   1.062  0.7254 -0.6723  1.7066
   68MOL   H22825822   5.640   1.817   1.024 -1.6452  1.1971 -0.3596
   68MOL   H22925823   5.664   1.887   1.177  0.9895 -2.2026 -0.0528
   68MOL   C23025824   6.000   2.239   1.029  0.9276  0.5238 -0.0948
   68MOL   C23125825   6.017   2.380   1.088  0.1809 -0.2538  0.4216
   68MOL   O23225826   5.887   2.421   1.121 -0.2944 -0.2014  0.1932
   68MOL   C23325827   5.861   2.560   1.094  0.9805 -0.3517 -0.3098
   68MOL   C23425828   5.738   2.613   1.176 -0.1426 -0.3711  0.0585
   68MOL   C23525829   5.611   2.532   1.162  0.7885  0.0346 -0.0419
   68MOL   C23625830   5.784   2.635   1.315  0.8795 -0.2475 -0.4683
   68MOL   H23725831   6.094   2.201   0.990  0.3409 -0.3655 -0.6660
   68MOL   H23825832   5.981   2.177   1.117  2.0579 -0.2359 -0.3767
   68MOL   H23925833   6.044   2.430   0.995  0.3951  1.0073  1.1447
   68MOL   H24025834   5.950   2.623   1.107  1.3618 -0.9246 -0.1284
   68MOL   H24125835   5.838   2.577   0.989  1.3410 -2.8259 -0.8226
   68MOL   H24225836   5.718   2.709   1.127 -1.1108 -0.6015 -0.0110
   68MOL   H24325837   5.601   2.527   1.054 -0.1998 -0.2479  0.0623
   68MOL   H24425838   5.528   2.574   1.218 -0.7536 -0.3889 -1.9618
   68MOL   H24525839   5.624   2.435   1.211 -1.1883 -0.4555 -0.4368
   68MOL   H24625840   5.821   2.539   1.350  0.6543 -0.4513 -0.7931
   68MOL   H24725841   5.870   2.701   1.310  1.0755 -0.2883  1.7934
   68MOL   H24825842   5.709   2.680   1.381  1.2972 -3.6867  2.5455
   68MOL   C24925843   6.116   2.393   1.206  0.1311 -1.0259  0.0729
   68MOL   C25025844   6.255   2.338   1.174 -0.0446  0.5208 -0.0426
   68MOL   O25125845   6.303   2.407   1.058  0.4177  0.5931  0.0654
   68MOL   C25225846   6.428   2.359   1.006 -0.2877  0.2536  0.1505
   68MOL   C25325847   6.493   2.463   0.911  0.4542  0.2596 -0.4369
   68MOL   C25425848   6.398   2.540   0.818 -0.2171 -0.0064  0.0706
   68MOL   C25525849   6.616   2.415   0.836 -0.5534 -0.7482 -0.3698
   68MOL   H25625850   6.065   2.340   1.287 -0.1772 -0.1761  0.4425
   68MOL   H25725851   6.122   2.497   1.239 -1.5280 -0.9161  0.0850
   68MOL   H25825852   6.250   2.230   1.159 -0.3627  0.4771  0.3369
   68MOL   H25925853   6.496   2.349   1.091  0.7991  0.9675 -0.6114
   68MOL   H26025854   6.409   2.260   0.966  1.4375 -1.4079  3.2765
   68MOL   H26125855   6.524   2.543   0.978 -1.5654  2.6318 -2.2343
   68MOL   H26225856   6.460   2.617   0.772 -1.9319  1.4611  0.1874
   68MOL   H26325857   6.316   2.581   0.877  0.5254  0.4122  0.8168
   68MOL   H26425858   6.361   2.477   0.738  2.0184 -0.1658 -0.8814
   68MOL   H26525859   6.687   2.374   0.908  1.7330 -0.4736 -2.3705
   68MOL   H26625860   6.600   2.339   0.760  2.1864 -2.5863  0.7977
   68MOL   H26725861   6.684   2.489   0.792  0.3960 -2.6794 -2.2748
   68MOL   C26825862   6.350   2.357   1.298 -0.2161 -0.2176 -0.9687
   68MOL   C26925863   6.444   2.236   1.337  0.3692 -0.4697 -0.4302
   68MOL   O27025864   6.340   2.144   1.373 -0.3167 -0.1498 -0.4759
   68MOL   C27125865   6.363   2.010   1.342  0.3576 -0.6099 -0.6971
   68MOL   C27225866   6.231   1.932   1.362  0.1401 -0.2004  0.1443
   68MOL   C27325867   6.196   1.933   1.514 -0.6418  0.0351  0.1544
   68MOL   C27425868   6.116   1.988   1.273  0.3990  0.5182 -0.8121
   68MOL   H27525869   6.295   2.359   1.392  0.0402 -0.6432 -0.8060
   68MOL   H27625870   6.398   2.454   1.290 -0.9889  0.2270 -0.2043
   68MOL   H27725871   6.499   2.192   1.254  2.9161 -0.7032  1.3515
   68MOL   H27825872   6.383   1.997   1.236 -0.6971  1.6995 -1.2015
   68MOL   H27925873   6.437   1.955   1.400 -0.1294 -1.7695 -1.1529
   68MOL   H28025874   6.241   1.825   1.345 -0.4079 -0.4715  1.5033
   68MOL   H28125875   6.193   2.035   1.553 -0.3122  0.5888 -1.2345
   68MOL   H28225876   6.268   1.872   1.569 -3.3668 -2.6111  0.9141
   68MOL   H28325877   6.097   1.892   1.531 -0.9062  0.7609  0.3964
   68MOL   H28425878   6.098   2.095   1.289 -2.6626 -0.3663  2.0937
   68MOL   H28525879   6.019   1.942   1.288 -0.2058  2.0798  0.2589
   68MOL   H28625880   6.142   1.986   1.167 -0.3419  0.3846 -0.9919
   68MOL   C28725881   6.539   2.280   1.448 -0.1846  0.2084  0.8449
   68MOL   C28825882   6.649   2.181   1.506 -0.5208  0.1766  0.5996
   68MOL   O28925883   6.739   2.265   1.584  0.3831  0.0825 -0.7012
   68MOL   C29025884   6.699   2.302   1.717 -0.2569  0.2389  0.1084
   68MOL   C29125885   6.823   2.366   1.787  0.3996  0.8311  0.0560
   68MOL   C29225886   6.799   2.363   1.938  0.0934 -0.0701 -0.0302
   68MOL   C29325887   6.835   2.510   1.744  0.4951 -0.6746 -0.3459
   68MOL   H29425888   6.485   2.315   1.536  0.2600 -0.3271  1.3399
   68MOL   H29525889   6.588   2.367   1.405  0.4673 -0.9523 -0.8226
   68MOL   H29625890   6.607   2.104   1.572 -0.8748  0.3084  0.5296
   68MOL   H29725891   6.614   2.368   1.705 -0.1291  0.4966  0.5982
   68MOL   H29825892   6.670   2.210   1.768  0.8306 -0.7475 -0.9927
   68MOL   H29925893   6.908   2.301   1.767 -0.3949  0.0187 -0.7667
   68MOL   H30025894   6.883   2.402   1.996 -0.0729  0.2129  0.0217
   68MOL   H30125895   6.799   2.255   1.951  4.1209 -0.2315 -0.6226
   68MOL   H30225896   6.709   2.406   1.981 -1.3513 -2.0063 -1.0719
   68MOL   H30325897   6.770   2.572   1.806  0.8864 -0.8222  0.2147
   68MOL   H30425898   6.933   2.555   1.759 -0.0515  0.2236  0.5412
   68MOL   H30525899   6.798   2.520   1.642  1.8531 -1.0453 -0.8774
   68MOL   C30625900   6.740   2.116   1.400  0.0598 -0.0675  0.4085
   68MOL   C30725901   6.845   2.019   1.463  0.0909  0.0621 -1.1285
   68MOL   O30825902   6.773   1.905   1.513  0.6263  0.1081  0.1655
   68MOL   C30925903   6.799   1.875   1.649 -0.3877 -0.1350 -0.6153
   68MOL   C31025904   6.752   1.728   1.681  0.2415  0.6606  0.4638
   68MOL   C31125905   6.825   1.625   1.597 -0.3993  0.0736  0.7883
   68MOL   C31225906   6.603   1.696   1.679 -0.5596 -0.1690  0.5004
   68MOL   H31325907   6.776   2.197   1.336  0.1100  1.0715  1.8733
   68MOL   H31425908   6.678   2.053   1.336  0.7697  1.1477 -1.5497
   68MOL   H31525909   6.906   2.069   1.537 -0.2408  0.6402 -1.2467
   68MOL   H31625910   6.759   1.948   1.720 -0.1650 -1.3418  0.7852
   68MOL   H31725911   6.907   1.877   1.663 -0.0045  0.0943 -3.4058
   68MOL   H31825912   6.787   1.726   1.785  0.6805  0.3267  0.3072
   68MOL   H31925913   6.799   1.520   1.610  2.4199 -0.6949  0.4241
   68MOL   H32025914   6.933   1.635   1.597 -0.5880  2.4150 -0.1989
   68MOL   H32125915   6.795   1.641   1.494  1.9953  2.0298  0.3657
   68MOL   H32225916   6.574   1.591   1.691  1.8243 -0.9654 -0.3704
   68MOL   H32325917   6.560   1.732   1.585  0.3411  0.0411  0.1691
   68MOL   H32425918   6.556   1.755   1.757 -0.2543  1.2004 -0.3430
   68MOL   C32525919   6.945   1.948   1.360 -0.3328  0.1096  1.1999
   68MOL   C32625920   7.043   2.037   1.277  0.6758  0.0737 -0.3252
   68MOL   O32725921   7.117   2.105   1.374 -0.1100 -0.2233  0.1703
   68MOL   C32825922   7.182   2.228   1.318  0.0879  0.3731 -0.1184
   68MOL   C32925923   7.264   2.313   1.412 -0.5371  0.1702 -0.0722
   68MOL   C33025924   7.174   2.375   1.522  0.1607 -0.2474 -0.2064
   68MOL   C33125925   7.379   2.231   1.474  0.2983 -0.1063 -0.2451
   68MOL   H33225926   6.889   1.882   1.295 -0.9575  1.1541  0.6644
   68MOL   H33325927   7.011   1.888   1.423  0.3805 -0.1996  0.1710
   68MOL   H33425928   6.982   2.108   1.222  1.3768  2.1788  1.5592
   68MOL   H33525929   7.257   2.204   1.242 -0.3939 -0.9241 -0.1945
   68MOL   H33625930   7.114   2.299   1.271  0.4969  0.7347 -0.1678
   68MOL   H33725931   7.313   2.400   1.368 -1.0976 -1.1434 -3.3934
   68MOL   H33825932   7.090   2.424   1.473  1.7606  1.6183 -1.1543
   68MOL   H33925933   7.140   2.295   1.588 -0.3888  1.0306  1.0683
   68MOL   H34025934   7.222   2.457   1.575 -0.9480  0.3009 -0.0398
   68MOL   H34125935   7.338   2.146   1.529 -1.4815  1.5506  1.0634
   68MOL   H34225936   7.435   2.196   1.387 -0.3213  2.9629 -1.9625
   68MOL   H34325937   7.440   2.287   1.545  2.5791 -2.2023 -0.4713
   68MOL   C34425938   7.128   1.956   1.182  0.0366  0.3916 -0.1040
   68MOL   C34525939   7.061   1.886   1.063  0.5754  0.0891 -0.8746
   68MOL   O34625940   6.993   1.980   0.979 -0.1623  0.6825 -0.1064
   68MOL   C34725941   6.856   1.981   1.007 -0.5849 -0.0827 -0.2097
   68MOL   C34825942   6.785   2.088   0.915 -0.4466  0.6212  0.1811
   68MOL   C34925943   6.635   2.059   0.901  0.2471 -0.3085  0.4661
   68MOL   C35025944   6.848   2.101   0.773  0.1702  0.5536  0.1944
   68MOL   H35125945   7.177   1.884   1.248 -0.9829  0.2480  0.4915
   68MOL   H35225946   7.204   2.023   1.141 -0.7640  0.3691 -1.6883
   68MOL   H35325947   6.999   1.804   1.098  0.1547  1.8196  2.6095
   68MOL   H35425948   6.828   1.991   1.112 -2.1077 -2.4899 -0.3380
   68MOL   H35525949   6.821   1.885   0.968 -3.4720  0.3168  1.2288
   68MOL   H35625950   6.805   2.186   0.959  0.2409  0.7898 -0.4999
   68MOL   H35725951   6.577   2.040   0.991 -0.2456 -1.3616 -0.0676
   68MOL   H35825952   6.624   1.964   0.848 -1.0106  0.7758 -1.2479
   68MOL   H35925953   6.584   2.139   0.848 -1.3519 -0.6102  1.5308
   68MOL   H36025954   6.848   2.014   0.706 -0.8588  0.0817  0.7835
   68MOL   H36125955   6.796   2.170   0.707 -1.0916  0.8969  1.4996
   68MOL   H36225956   6.951   2.135   0.785  0.2175  0.1775  0.8928
   68MOL   C36325957   7.162   1.818   0.961 -0.2528  0.3319  0.2237
   68MOL   C36425958   7.084   1.718   0.867 -0.4566 -1.3386  0.0031
   68MOL   O36525959   7.167   1.660   0.782  0.6197 -0.5118  0.3037
   68MOL   C36625960   7.107   1.564   0.690 -0.3634 -0.4788 -0.0903
   68MOL   C36725961   7.220   1.500   0.602 -0.4867 -0.6331 -0.4862
   68MOL   C36825962   7.295   1.606   0.509 -0.1385  0.1906 -0.2522
   68MOL   C36925963   7.157   1.395   0.510  0.0821  0.1281 -0.1616
   68MOL   H37025964   7.212   1.887   0.894  1.9477 -1.7631 -0.3806
   68MOL   H37125965   7.247   1.766   1.006  0.5420  0.8511 -0.6638
   68MOL   H37225966   7.010   1.775   0.810  1.1799 -0.0591 -0.9021
   68MOL   H37325967   7.058   1.484   0.744 -0.6272  0.1722  0.6352
   68MOL   H37425968   7.030   1.613   0.630 -2.9125 -1.6405  2.1667
   68MOL   H37525969   7.298   1.451   0.661  2.0529  2.1398 -1.4302
   68MOL   H37625970   7.360   1.665   0.573 -0.6603 -1.5102  1.8836
   68MOL   H37725971   7.225   1.682   0.472 -0.2697  0.1034 -0.1820
   68MOL   H37825972   7.352   1.563   0.427 -0.8802 -0.1576 -0.5941
   68MOL   H37925973   7.122   1.442   0.419  1.2090 -1.0046 -1.2044
   68MOL   H38025974   7.071   1.349   0.560  1.5040 -2.4070  0.0814
   68MOL   H38125975   7.226   1.315   0.483  0.8388  0.9198 -0.5791
   68MOL   H38225976   7.019   1.648   0.919 -0.4982 -0.6613  0.8871
   69MOL     C125977   4.825   1.906   5.081  0.2072  0.0929  0.4130
   69MOL     C225978   4.932   1.842   5.181  0.5696 -0.0582 -0.4754
   69MOL     O325979   5.062   1.905   5.179 -0.3897  0.0002 -0.4998
   69MOL     C425980   5.115   1.925   5.051  0.0449 -0.0674 -0.5792
   69MOL     C525981   5.272   1.945   5.080 -0.0837 -0.0203  0.2076
   69MOL     C625982   5.342   1.821   5.136  0.4513 -0.5419 -0.4011
   69MOL     C725983   5.299   2.083   5.152 -0.2990  0.5325  0.4982
   69MOL     H825984   4.823   2.013   5.097 -2.1942 -0.0062  0.9223
   69MOL     H925985   4.840   1.884   4.975 -1.8580  1.2142 -0.1347
   69MOL    H1025986   4.942   1.735   5.165  0.2042 -0.1887  0.1666
   69MOL    H1125987   5.076   2.009   4.993  1.7116  1.0699 -0.1051
   69MOL    H1225988   5.100   1.846   4.978 -2.9868  1.4434 -1.6928
   69MOL    H1325989   5.313   1.961   4.980  0.1687  0.3851  0.3758
   69MOL    H1425990   5.316   1.791   5.237  0.5645 -1.7383 -0.7137
   69MOL    H1525991   5.314   1.734   5.078  2.0070 -1.0121 -0.4875
   69MOL    H1625992   5.450   1.836   5.130  0.3333  2.0653  2.5339
   69MOL    H1725993   5.406   2.100   5.148 -0.2701 -0.0813 -2.0148
   69MOL    H1825994   5.268   2.170   5.094 -0.5852 -1.3840 -2.3080
   69MOL    H1925995   5.281   2.076   5.260 -1.0573  2.9285  0.5457
   69MOL    H2025996   4.729   1.864   5.111  0.1253  0.8393  1.2217
   69MOL    C2125997   4.890   1.869   5.328  0.6773  0.3041 -0.1404
   69MOL    C2225998   4.990   1.808   5.432  0.6736 -0.8082  0.0926
   69MOL    O2325999   4.961   1.843   5.566  0.1887 -0.4834 -0.0308
   69MOL    C2426000   5.064   1.908   5.634  0.5156  0.1164  1.3108
   69MOL    C2526001   5.036   1.906   5.776 -0.9836  0.0244 -0.8470
   69MOL    C2626002   5.162   1.931   5.865 -0.5504 -0.4632 -0.9415
   69MOL    C2726003   4.917   1.995   5.816  0.0611  0.1266 -0.1467
   69MOL    H2826004   4.875   1.974   5.353  2.8472  0.9487 -1.3995
   69MOL    H2926005   4.789   1.831   5.345  0.7759  0.3653  0.5658
   69MOL    H3026006   5.095   1.828   5.412  0.3547  1.5548  0.7166
   69MOL    H3126007   5.089   2.002   5.584 -0.0541  0.4042  1.5560
   69MOL    H3226008   5.161   1.859   5.625  0.3701 -0.2436  1.6656
   69MOL    H3326009   5.005   1.803   5.794 -1.7979  0.0835 -1.8538
   69MOL    H3426010   5.214   2.024   5.840 -3.2186  0.1579 -4.5550
   69MOL    H3526011   5.233   1.853   5.839  0.8930  0.6275 -0.3997
   69MOL    H3626012   5.127   1.930   5.968  1.0427 -2.9762 -0.3840
   69MOL    H3726013   4.939   2.101   5.801  1.7093 -0.3126 -0.9860
   69MOL    H3826014   4.830   1.968   5.756 -1.0249  0.2623  1.3327
   69MOL    H3926015   4.887   1.966   5.917 -1.8146  0.6219 -0.5514
   69MOL    C4026016   4.980   1.656   5.435 -0.3226 -0.2031  0.2028
   69MOL    C4126017   5.054   1.582   5.551  0.3005 -0.4007 -0.0865
   69MOL    O4226018   5.189   1.619   5.525 -0.8458 -0.1272 -0.0750
   69MOL    C4326019   5.278   1.598   5.634 -0.1028  0.0565 -0.3332
   69MOL    C4426020   5.413   1.637   5.595  0.6969 -0.4127  0.0817
   69MOL    C4526021   5.519   1.621   5.716 -0.0776 -0.1385  0.5349
   69MOL    C4626022   5.459   1.555   5.475 -0.5040  0.6104  0.9086
   69MOL    H4726023   5.009   1.618   5.337  0.4847 -0.4128  0.5209
   69MOL    H4826024   4.874   1.631   5.446  0.5742 -3.5622  2.0754
   69MOL    H4926025   5.020   1.619   5.648  2.2316 -0.3827  0.6124
   69MOL    H5026026   5.288   1.492   5.655 -0.8480  0.2622  1.0876
   69MOL    H5126027   5.244   1.649   5.724 -0.2551 -0.9891  0.2047
   69MOL    H5226028   5.402   1.742   5.568  0.1915  0.6679  4.1685
   69MOL    H5326029   5.624   1.626   5.687 -0.4728 -1.4460 -1.1632
   69MOL    H5426030   5.497   1.712   5.772 -2.1889  0.6081 -1.4181
   69MOL    H5526031   5.490   1.528   5.763  1.4756 -2.2010 -2.4327
   69MOL    H5626032   5.559   1.589   5.447 -0.2263  0.8654  2.1765
   69MOL    H5726033   5.392   1.551   5.389 -1.5880 -1.3254  1.8173
   69MOL    H5826034   5.464   1.450   5.503  1.1360  0.1363 -1.0196
   69MOL    C5926035   5.031   1.434   5.548  0.2471  1.0089 -0.0406
   69MOL    C6026036   4.989   1.367   5.676 -0.1795 -1.0446  0.0327
   69MOL    O6126037   5.086   1.382   5.784  0.3656  0.8901  0.3648
   69MOL    C6226038   5.041   1.446   5.900 -0.0497  0.5408 -0.8905
   69MOL    C6326039   5.135   1.427   6.022  0.5360  0.6211 -0.1561
   69MOL    C6426040   5.280   1.477   5.988 -0.0460 -0.3565 -0.4761
   69MOL    C6526041   5.080   1.496   6.153 -0.8211  0.3364  0.5981
   69MOL    H6626042   5.119   1.390   5.501  0.2342  1.9392 -0.9665
   69MOL    H6726043   4.950   1.414   5.478  1.3167  3.4418 -2.0739
   69MOL    H6826044   4.898   1.415   5.715  1.6496  0.8883  2.0749
   69MOL    H6926045   5.023   1.549   5.870 -0.1609  0.5601 -0.7581
   69MOL    H7026046   4.940   1.408   5.918  0.3807 -0.2952 -0.1833
   69MOL    H7126047   5.136   1.320   6.042 -1.2858  0.7360  0.6524
   69MOL    H7226048   5.327   1.407   5.919 -0.5007  0.2921 -1.4593
   69MOL    H7326049   5.331   1.465   6.083  0.0132  1.7511 -0.2315
   69MOL    H7426050   5.293   1.579   5.951 -0.2052 -0.7081 -1.5370
   69MOL    H7526051   4.975   1.466   6.164 -0.7076 -1.3677 -2.4060
   69MOL    H7626052   5.139   1.467   6.239  1.4768  0.1228 -1.0101
   69MOL    H7726053   5.079   1.605   6.149 -0.1790  0.3183 -0.2082
   69MOL    C7826054   4.963   1.216   5.657  0.0003 -0.2639  0.4537
   69MOL    C7926055   4.902   1.140   5.778 -0.2156 -0.0869  0.6566
   69MOL    O8026056   4.764   1.185   5.789 -0.3114  0.4733  0.0432
   69MOL    C8126057   4.713   1.196   5.916  0.2336  0.1059 -0.1889
   69MOL    C8226058   4.581   1.278   5.891 -0.1601 -0.0801 -0.4943
   69MOL    C8326059   4.481   1.187   5.818 -0.1668 -0.1142 -0.5804
   69MOL    C8426060   4.610   1.412   5.820 -0.7679  0.7704  0.2251
   69MOL    H8526061   5.057   1.178   5.616 -0.9083 -3.5278  1.2015
   69MOL    H8626062   4.887   1.203   5.580  0.7322 -0.0120 -0.3163
   69MOL    H8726063   4.967   1.161   5.863  0.6443  3.6535 -0.8693
   69MOL    H8826064   4.684   1.105   5.969 -1.7599  0.4889 -0.5787
   69MOL    H8926065   4.776   1.260   5.979  0.6661  0.0900 -0.5975
   69MOL    H9026066   4.525   1.290   5.984  0.9446  1.0861  0.0486
   69MOL    H9126067   4.445   1.100   5.873  2.5158 -0.8694  0.0688
   69MOL    H9226068   4.527   1.147   5.727  0.3389  2.2131 -1.3828
   69MOL    H9326069   4.395   1.250   5.798 -1.0568 -0.5654  1.6845
   69MOL    H9426070   4.646   1.395   5.719 -1.2591  1.3187 -0.0362
   69MOL    H9526071   4.689   1.469   5.870 -1.5696  1.3133  0.8865
   69MOL    H9626072   4.522   1.476   5.817 -0.2265  1.5474  0.8054
   69MOL    C9726073   4.884   0.981   5.747 -0.4418  0.1599 -0.0605
   69MOL    C9826074   5.010   0.908   5.726 -0.1537  0.0459 -0.4237
   69MOL    O9926075   4.976   0.767   5.704 -0.1144  0.4990 -0.1677
   69MOL   C10026076   4.941   0.741   5.572  0.4143 -0.7384  0.0501
   69MOL   C10126077   4.946   0.585   5.565 -0.4997 -0.0214 -0.0863
   69MOL   C10226078   4.818   0.545   5.482  0.2211  0.9862  0.0950
   69MOL   C10326079   5.077   0.532   5.500  0.5547  0.3116  0.0144
   69MOL   H10426080   4.819   0.981   5.659 -2.1203 -0.2350  1.1651
   69MOL   H10526081   4.830   0.933   5.829 -0.2789 -2.5438 -1.5125
   69MOL   H10626082   5.065   0.950   5.642  1.3194 -0.2887  0.3578
   69MOL   H10726083   5.007   0.778   5.493 -0.4534  0.4660 -0.1278
   69MOL   H10826084   4.838   0.775   5.562  0.2324 -1.8605 -2.1299
   69MOL   H10926085   4.932   0.546   5.666 -4.1592  0.1114 -0.4766
   69MOL   H11026086   4.812   0.437   5.487 -1.1035  0.9666 -1.4015
   69MOL   H11126087   4.722   0.571   5.527  1.2944  1.3136  2.2577
   69MOL   H11226088   4.814   0.584   5.380 -2.2062 -0.5918 -0.4613
   69MOL   H11326089   5.080   0.423   5.494 -3.3468  0.2550 -2.4234
   69MOL   H11426090   5.070   0.562   5.395 -0.2481  1.4469  0.3830
   69MOL   H11526091   5.172   0.559   5.546  0.5077  0.2744  0.1320
   69MOL   C11626092   5.108   0.907   5.855 -0.1219 -0.2506  0.3144
   69MOL   C11726093   5.239   0.824   5.836 -0.1210 -0.1121  0.4061
   69MOL   O11826094   5.345   0.916   5.859 -0.1198  0.3463  0.3505
   69MOL   C11926095   5.373   1.007   5.744  0.0337 -0.5475  0.5202
   69MOL   C12026096   5.525   1.035   5.738  0.4413  0.7870 -0.4007
   69MOL   C12126097   5.565   1.106   5.872  0.7372 -0.3977  0.3268
   69MOL   C12226098   5.610   0.904   5.713 -0.1712 -0.0168  0.6858
   69MOL   H12326099   5.133   1.013   5.858  1.6533 -0.4654 -3.6506
   69MOL   H12426100   5.061   0.865   5.943 -2.4963 -0.4897 -1.0269
   69MOL   H12526101   5.249   0.791   5.733  1.8697  0.0969  0.5097
   69MOL   H12626102   5.321   1.102   5.759 -0.1348 -0.4018 -0.9185
   69MOL   H12726103   5.358   0.963   5.646  1.6897 -0.0113  0.0094
   69MOL   H12826104   5.550   1.101   5.655  3.2754  0.1091 -0.1174
   69MOL   H12926105   5.489   1.180   5.896  0.3516 -0.3280 -1.0563
   69MOL   H13026106   5.660   1.150   5.841 -0.6592  1.6354 -1.1771
   69MOL   H13126107   5.570   1.034   5.953 -0.3953 -0.2698  0.5145
   69MOL   H13226108   5.652   0.916   5.613 -2.0194  0.0914 -0.0979
   69MOL   H13326109   5.692   0.882   5.782  1.1951  2.1206 -0.2147
   69MOL   H13426110   5.538   0.823   5.718 -2.2642  1.6096 -1.5229
   69MOL   C13526111   5.251   0.700   5.925  0.0156  0.1864 -0.2698
   69MOL   C13626112   5.383   0.611   5.925 -0.5892  0.5203 -0.0687
   69MOL   O13726113   5.364   0.525   6.039 -0.0693 -0.2744  0.1222
   69MOL   C13826114   5.427   0.569   6.159 -0.2950 -0.7056  0.1497
   69MOL   C13926115   5.402   0.466   6.266  0.0168 -0.1262 -0.0623
   69MOL   C14026116   5.256   0.439   6.296 -0.4623  0.6543 -0.2079
   69MOL   C14126117   5.478   0.335   6.243 -0.2306 -0.2026  0.0483
   69MOL   H14226118   5.240   0.733   6.028 -0.5286 -1.0626  0.0834
   69MOL   H14326119   5.166   0.635   5.903  1.2967 -2.1362  1.4464
   69MOL   H14426120   5.466   0.678   5.945 -1.4156  1.9921 -1.4711
   69MOL   H14526121   5.399   0.670   6.188 -1.3105 -1.3824  1.6276
   69MOL   H14626122   5.534   0.583   6.143 -0.4897 -0.2306 -0.7939
   69MOL   H14726123   5.453   0.516   6.348  0.5445  0.7888 -0.9348
   69MOL   H14826124   5.202   0.378   6.223 -0.6557 -2.5394  2.4745
   69MOL   H14926125   5.201   0.530   6.318  1.6782  1.9104  0.0957
   69MOL   H15026126   5.244   0.385   6.390 -2.1627 -1.2954 -1.4969
   69MOL   H15126127   5.459   0.282   6.150 -0.7106 -1.9937  1.1295
   69MOL   H15226128   5.582   0.367   6.247 -0.0962 -0.8075  2.7060
   69MOL   H15326129   5.455   0.266   6.324 -0.7154  0.4698  0.4878
   69MOL   C15426130   5.390   0.540   5.789 -0.0996 -0.5412 -0.2810
   69MOL   C15526131   5.499   0.424   5.788 -0.4403  0.0340 -0.3950
   69MOL   O15626132   5.501   0.378   5.654  0.3747  0.0045 -0.8008
   69MOL   C15726133   5.401   0.284   5.628  0.3366 -0.8166 -0.4274
   69MOL   C15826134   5.371   0.265   5.476  0.1565 -0.2588  0.0792
   69MOL   C15926135   5.499   0.224   5.399  0.2177 -0.3453  0.4068
   69MOL   C16026136   5.258   0.160   5.440 -0.5910  0.2074  0.0593
   69MOL   H16126137   5.406   0.611   5.707  1.3327  1.7526  1.9239
   69MOL   H16226138   5.297   0.489   5.762  0.1023 -0.7764 -0.5313
   69MOL   H16326139   5.479   0.343   5.858 -0.6822  0.5104  0.0915
   69MOL   H16426140   5.309   0.295   5.685  1.1658  0.4751  0.6876
   69MOL   H16526141   5.428   0.184   5.663  2.5052 -0.0943  0.0413
   69MOL   H16626142   5.329   0.357   5.435  1.4493  0.3011  0.0142
   69MOL   H16726143   5.499   0.247   5.292  2.7387 -0.4087  0.3595
   69MOL   H16826144   5.527   0.120   5.412  0.9460 -0.2235 -0.1188
   69MOL   H16926145   5.576   0.289   5.440  0.2483  0.3001 -0.6312
   69MOL   H17026146   5.216   0.172   5.340  0.3419  1.4578 -0.1991
   69MOL   H17126147   5.303   0.061   5.449  0.5433  0.5623 -1.5178
   69MOL   H17226148   5.179   0.171   5.515 -1.7268  0.3063 -1.1244
   69MOL   C17326149   5.638   0.477   5.814 -0.0986 -0.4114 -0.4818
   69MOL   C17426150   5.757   0.392   5.756  0.5448 -0.1159 -0.6009
   69MOL   O17526151   5.880   0.438   5.802  0.3390 -0.7881  0.5222
   69MOL   C17626152   5.907   0.563   5.741 -0.0320  0.3875 -0.1462
   69MOL   C17726153   6.012   0.647   5.824 -0.1488 -0.4938 -0.1925
   69MOL   C17826154   6.139   0.555   5.849 -0.2915 -0.0314  0.7353
   69MOL   C17926155   6.044   0.780   5.768 -0.1493  0.5274  0.4093
   69MOL   H18026156   5.652   0.581   5.785 -2.0312 -0.2385 -0.8800
   69MOL   H18126157   5.654   0.484   5.922  2.9272  0.8097 -0.9706
   69MOL   H18226158   5.748   0.383   5.648  1.8285 -1.5238 -0.6050
   69MOL   H18326159   5.823   0.627   5.714  0.8371  1.4304 -0.4199
   69MOL   H18426160   5.947   0.544   5.641 -3.1753  0.2533 -1.4392
   69MOL   H18526161   5.963   0.675   5.917 -0.1879 -1.2078  0.0088
   69MOL   H18626162   6.178   0.512   5.757 -0.3887  0.2573  0.5587
   69MOL   H18726163   6.218   0.604   5.906 -0.1247 -0.5771  0.9744
   69MOL   H18826164   6.098   0.473   5.907  0.1508 -1.1143 -0.4668
   69MOL   H18926165   5.955   0.838   5.743  0.7017  2.0158  0.7727
   69MOL   H19026166   6.104   0.767   5.679 -0.5690  0.0928  0.1860
   69MOL   H19126167   6.097   0.852   5.830  2.0720 -1.7069  1.2138
   69MOL   C19226168   5.751   0.247   5.794  0.5185  0.3947 -0.3899
   69MOL   C19326169   5.863   0.160   5.731 -0.2918  0.4489  0.4087
   69MOL   O19426170   5.829   0.025   5.718  0.2483 -0.1202 -0.5533
   69MOL   C19526171   5.747   7.823   5.610  0.2031  0.1895 -0.0314
   69MOL   C19626172   5.731   7.677   5.603  0.1348 -0.3037  0.0390
   69MOL   C19726173   5.643   7.624   5.720 -0.1905 -0.3084  0.2988
   69MOL   C19826174   5.864   7.603   5.601  0.2188 -0.3274 -0.2185
   69MOL   H19926175   5.651   0.207   5.777  0.7146  0.3389 -1.4199
   69MOL   H20026176   5.765   0.238   5.902 -1.0803  0.7176 -0.1488
   69MOL   H20126177   5.872   0.210   5.635 -0.6343 -2.0010 -0.9380
   69MOL   H20226178   5.790   0.026   5.514 -1.7769  0.9294 -0.7170
   69MOL   H20326179   5.648   0.043   5.622  0.5010  0.4845  1.4763
   69MOL   H20426180   5.674   7.658   5.513  0.8018  0.5630 -0.5700
   69MOL   H20526181   5.705   7.615   5.809 -0.8961 -3.6293  0.5093
   69MOL   H20626182   5.567   7.701   5.735  1.0442  1.4728 -2.0777
   69MOL   H20726183   5.608   7.523   5.698  1.4002 -1.1458  1.5586
   69MOL   H20826184   5.930   7.618   5.516 -0.0620 -2.5344 -0.8625
   69MOL   H20926185   5.930   7.623   5.685  1.7518 -0.3625 -1.3915
   69MOL   H21026186   5.848   7.495   5.605 -1.2438 -0.1035  0.0206
   69MOL   C21126187   6.000   0.148   5.799  0.0480  0.0443 -0.3312
   69MOL   C21226188   6.113   0.080   5.714 -1.0273 -0.3126  0.6683
   69MOL   O21326189   6.181   0.173   5.636 -0.3973 -0.3584  0.1867
   69MOL   C21426190   6.152   0.159   5.498  0.2131 -0.4116 -0.0592
   69MOL   C21526191   6.264   0.244   5.431 -0.1084  0.3732  0.1317
   69MOL   C21626192   6.285   0.198   5.287  0.4420  0.3605 -0.6807
   69MOL   C21726193   6.253   0.399   5.445 -0.2017 -0.3905  0.4320
   69MOL   H21826194   5.995   0.090   5.891  2.1138  0.3665  0.0039
   69MOL   H21926195   6.034   0.246   5.833 -0.3679  0.3124 -0.6629
   69MOL   H22026196   6.079   7.819   5.657 -1.7537  0.9758 -0.8725
   69MOL   H22126197   6.052   0.184   5.464 -0.8373 -0.7547  2.6757
   69MOL   H22226198   6.167   0.059   5.457  0.8597 -0.0030 -0.8504
   69MOL   H22326199   6.360   0.222   5.478 -0.9889  1.0921  2.3350
   69MOL   H22426200   6.307   0.092   5.273  2.0945  0.6270 -0.1897
   69MOL   H22526201   6.192   0.206   5.232 -1.4309 -0.4374  2.2204
   69MOL   H22626202   6.358   0.255   5.230  1.5115 -1.4166 -1.1375
   69MOL   H22726203   6.325   0.446   5.379 -0.5862  1.8607  1.5784
   69MOL   H22826204   6.273   0.427   5.549  0.8618 -2.2434  0.7468
   69MOL   H22926205   6.156   0.431   5.407  0.1022  1.6507  1.2876
   69MOL   C23026206   6.227   0.031   5.807  0.3659 -0.0379  0.3958
   69MOL   C23126207   6.336   7.766   5.746 -0.5695 -0.5326  0.3052
   69MOL   O23226208   6.432   7.743   5.845  0.1605  0.4978  0.1230
   69MOL   C23326209   6.526   0.017   5.880  0.9613 -0.0438 -0.7074
   69MOL   C23426210   6.646   7.766   5.949  0.2836  0.6821 -0.3041
   69MOL   C23526211   6.720   7.674   5.848 -0.4956  0.3229 -0.3886
   69MOL   C23626212   6.736   0.031   6.026 -0.0522 -0.3892  0.5535
   69MOL   H23726213   6.180   7.792   5.883 -0.8098 -0.9481 -1.0429
   69MOL   H23826214   6.271   0.120   5.851  0.5718  0.3083 -0.5084
   69MOL   H23926215   6.381   7.822   5.664  1.0865  2.9322  3.4367
   69MOL   H24026216   6.554   0.070   5.789  2.0769  1.9889  0.7703
   69MOL   H24126217   6.470   0.090   5.939  1.6462  0.1065 -0.2407
   69MOL   H24226218   6.599   7.689   6.012 -1.8934  0.7878 -1.7421
   69MOL   H24326219   6.652   7.599   5.806  0.5258 -0.3634 -0.8339
   69MOL   H24426220   6.797   7.615   5.897 -0.0452  0.3458 -1.0553
   69MOL   H24526221   6.766   7.732   5.768 -1.4930  0.4298 -0.8918
   69MOL   H24626222   6.789   0.098   5.958 -1.0971 -0.8687 -0.7537
   69MOL   H24726223   6.687   0.086   6.107 -0.4850 -0.9731  0.6925
   69MOL   H24826224   6.813   7.797   6.077 -1.1877 -1.0286  1.5689
   69MOL   C24926225   6.293   7.633   5.682  0.1141  0.6430  0.1092
   69MOL   C25026226   6.406   7.545   5.632 -0.5519  0.5068  0.0191
   69MOL   O25126227   6.338   7.430   5.583 -0.2174  0.3717  0.1270
   69MOL   C25226228   6.294   7.340   5.680  0.0155  0.7130 -0.3721
   69MOL   C25326229   6.210   7.238   5.602  0.1113  0.2369  0.1121
   69MOL   C25426230   6.300   7.138   5.531  0.0586  0.2947 -0.5222
   69MOL   C25526231   6.105   7.301   5.503 -0.1087 -0.4730  0.1016
   69MOL   H25626232   6.234   7.665   5.597 -0.4117 -2.5000 -0.7640
   69MOL   H25726233   6.228   7.572   5.744  0.9146 -0.4367 -0.0967
   69MOL   H25826234   6.479   7.524   5.711  1.5316  1.9929 -1.4671
   69MOL   H25926235   6.376   7.283   5.723 -0.3193  0.7858  0.3612
   69MOL   H26026236   6.236   7.367   5.768 -1.3203 -3.2935  0.0815
   69MOL   H26126237   6.149   7.176   5.668  0.8138  0.6235  1.1269
   69MOL   H26226238   6.358   7.185   5.451 -0.6885  0.2237 -1.1068
   69MOL   H26326239   6.250   7.049   5.492  1.9444 -0.1071 -2.0909
   69MOL   H26426240   6.374   7.100   5.602 -1.7096 -3.0093 -0.3599
   69MOL   H26526241   6.041   7.372   5.555  1.5307  2.3546 -1.6367
   69MOL   H26626242   6.159   7.355   5.426 -1.1440 -0.0733 -0.3499
   69MOL   H26726243   6.048   7.217   5.462  1.3642 -1.0865 -0.7030
   69MOL   C26826244   6.478   7.606   5.512 -0.4987  0.5119 -0.5727
   69MOL   C26926245   6.560   7.498   5.436 -0.1233 -0.3768 -0.5339
   69MOL   O27026246   6.675   7.474   5.512 -0.0399  0.1999 -0.1150
   69MOL   C27126247   6.683   7.341   5.554  0.3303  0.1317 -0.2680
   69MOL   C27226248   6.816   7.323   5.627 -0.3303  0.0207 -0.0923
   69MOL   C27326249   6.817   7.188   5.705 -0.4659 -0.4801 -0.2564
   69MOL   C27426250   6.935   7.340   5.535  0.5760  0.0315  0.5687
   69MOL   H27526251   6.548   7.678   5.555  0.9513  0.5420 -2.9180
   69MOL   H27626252   6.408   7.663   5.451 -0.5781  0.6901 -0.3179
   69MOL   H27726253   6.497   7.417   5.398 -1.9209  0.2270  1.0379
   69MOL   H27826254   6.600   7.333   5.624  2.3810 -1.6573  2.0523
   69MOL   H27926255   6.662   7.261   5.483 -0.8142  0.7936 -0.6737
   69MOL   H28026256   6.818   7.401   5.703  0.4926  1.3800 -1.4775
   69MOL   H28126257   6.800   7.095   5.652  2.0593 -1.0609 -0.1218
   69MOL   H28226258   6.747   7.189   5.789 -0.3518  1.2790 -0.1699
   69MOL   H28326259   6.906   7.195   5.768  0.4395  0.6502 -1.6522
   69MOL   H28426260   6.923   7.432   5.479 -2.2251 -1.2855 -1.0681
   69MOL   H28526261   6.965   7.262   5.464  1.4737  2.0536 -1.3454
   69MOL   H28626262   7.025   7.350   5.596  1.3222  1.6513 -0.7684
   69MOL   C28726263   6.617   7.562   5.309 -0.7250  0.1878  0.4331
   69MOL   C28826264   6.514   7.577   5.188 -0.6511  0.3316 -0.2417
   69MOL   O28926265   6.455   7.457   5.152 -0.2092 -0.1381  0.2788
   69MOL   C29026266   6.325   7.450   5.095  0.1427  0.1448 -0.5622
   69MOL   C29126267   6.307   7.323   5.012 -0.4187 -1.0720  0.2414
   69MOL   C29226268   6.180   7.329   4.914 -0.2622  0.4227  0.2085
   69MOL   C29326269   6.305   7.201   5.110  1.0472  0.5575 -0.8761
   69MOL   H29426270   6.693   7.494   5.270 -1.8642 -1.8615  1.7143
   69MOL   H29526271   6.668   7.651   5.346  1.2294 -1.5907  2.1303
   69MOL   H29626272   6.436   7.649   5.211 -0.8365  0.1329 -0.2503
   69MOL   H29726273   6.244   7.466   5.166  2.0292  0.4077  1.5818
   69MOL   H29826274   6.317   7.533   5.024  0.3610 -1.1245 -2.1208
   69MOL   H29926275   6.394   7.306   4.948  1.3562  1.1008  1.9725
   69MOL   H30026276   6.171   7.237   4.857 -2.3938  2.3941 -2.7477
   69MOL   H30126277   6.205   7.399   4.835 -1.6982  2.7211  1.7326
   69MOL   H30226278   6.089   7.351   4.970 -1.5157 -2.2250 -0.7327
   69MOL   H30326279   6.307   7.104   5.059 -1.4583 -0.0625  0.1400
   69MOL   H30426280   6.391   7.211   5.177 -0.7640  2.9467  1.1791
   69MOL   H30526281   6.213   7.192   5.168 -0.2554  1.5971 -2.7262
   69MOL   C30626282   6.585   7.614   5.052 -0.5557 -0.3145  0.4576
   69MOL   C30726283   6.624   7.767   5.049  0.5938  0.8300  0.2361
   69MOL   O30826284   6.680   7.812   5.172  0.5323 -0.2969 -0.3595
   69MOL   C30926285   6.696   0.126   5.190 -0.4818 -0.1404  0.0140
   69MOL   C31026286   6.700   0.191   5.331 -0.8817  0.5898  0.2017
   69MOL   C31126287   6.708   0.345   5.320  0.7156  0.6607  0.2928
   69MOL   C31226288   6.813   0.139   5.422 -0.7785  0.1698  0.2809
   69MOL   H31326289   6.535   7.588   4.959 -0.2580  0.7507 -0.0095
   69MOL   H31426290   6.673   7.550   5.052 -1.0196 -0.9898  3.0633
   69MOL   H31526291   6.528   7.818   5.059 -1.7462 -3.3338  0.2193
   69MOL   H31626292   6.628   0.184   5.128  0.1846 -1.3178 -1.8473
   69MOL   H31726293   6.798   0.138   5.154  0.0224  0.8933  1.7414
   69MOL   H31826294   6.605   0.164   5.377 -1.0056 -1.5288 -1.2607
   69MOL   H31926295   6.691   0.382   5.422 -2.3828  0.7041 -0.2209
   69MOL   H32026296   6.630   0.386   5.256 -0.3412 -0.7336  0.6764
   69MOL   H32126297   6.802   0.379   5.276 -0.6673 -0.0160 -3.3104
   69MOL   H32226298   6.910   0.169   5.381 -0.2776  0.1462  1.4351
   69MOL   H32326299   6.809   0.031   5.435  1.2661  0.1463  0.8539
   69MOL   H32426300   6.826   0.189   5.518 -0.3573 -2.2923  1.5482
   69MOL   C32526301   6.718   7.798   4.927  0.3277  0.2390 -0.9473
   69MOL   C32626302   6.652   7.801   4.792  0.7274  0.0964 -0.6499
   69MOL   O32726303   6.523   0.040   4.810 -0.1345 -0.6132 -0.2828
   69MOL   C32826304   6.415   7.790   4.756 -0.7934 -0.2182  0.0078
   69MOL   C32926305   6.280   0.033   4.774 -0.1143  0.0725  0.1467
   69MOL   C33026306   6.177   7.756   4.711  0.3117 -1.0496  0.1137
   69MOL   C33126307   6.266   0.063   4.922  0.7345 -0.3533  0.2241
   69MOL   H33226308   6.801   7.727   4.919  1.5798  1.4727  0.6122
   69MOL   H33326309   6.770   0.069   4.939 -0.8249  0.9198 -1.3736
   69MOL   H33426310   6.648   7.699   4.755 -0.9081 -0.7150  1.6517
   69MOL   H33526311   6.432   7.797   4.648 -1.7975  2.0546 -0.0499
   69MOL   H33626312   6.414   7.686   4.785 -0.7291 -0.3816 -0.5647
   69MOL   H33726313   6.280   0.133   4.730 -1.4158 -0.1489 -0.3722
   69MOL   H33826314   6.084   7.768   4.767  1.0400  0.4605  1.0185
   69MOL   H33926315   6.163   7.774   4.604 -0.1357  0.9630  0.4856
   69MOL   H34026316   6.200   7.650   4.722  1.5624 -0.6253  1.8746
   69MOL   H34126317   6.163   0.095   4.938  0.6320 -0.7289  0.3064
   69MOL   H34226318   6.280   7.798   4.982 -0.9375 -0.9089 -0.1981
   69MOL   H34326319   6.338   0.140   4.951  0.8745  0.3355 -1.8533
   69MOL   C34426320   6.734   0.063   4.691  0.2580  0.2901 -0.1716
   69MOL   C34526321   6.885   0.043   4.681  0.0868 -0.4484  0.4955
   69MOL   O34626322   6.907   7.734   4.650  0.1324 -0.4845  0.2806
   69MOL   C34726323   7.019   7.663   4.711  0.3387 -0.2853 -0.5628
   69MOL   C34826324   7.010   7.515   4.669  0.0727 -0.6622 -0.0170
   69MOL   C34926325   6.901   7.442   4.755  0.0131 -0.2755 -1.1189
   69MOL   C35026326   7.141   7.434   4.662  0.1957 -0.2987  0.2022
   69MOL   H35126327   6.733   0.163   4.734 -1.4390  0.0423  0.4250
   69MOL   H35226328   6.683   0.057   4.594  1.5066 -0.5209 -0.7807
   69MOL   H35326329   6.922   0.057   4.782  0.5422  1.2289  0.1103
   69MOL   H35426330   7.001   7.658   4.818 -1.3078 -3.1889 -0.9471
   69MOL   H35526331   7.121   7.699   4.693 -0.1298  1.4694  0.1427
   69MOL   H35626332   6.971   7.505   4.568 -0.9014 -0.4743  0.3335
   69MOL   H35726333   6.930   7.439   4.860 -1.2151  2.8796 -0.6231
   69MOL   H35826334   6.884   7.344   4.712 -0.3480 -0.2341 -1.0732
   69MOL   H35926335   6.805   7.494   4.760  0.6128  0.6569  1.2735
   69MOL   H36026336   7.195   7.419   4.755 -0.4587  4.4634  1.5115
   69MOL   H36126337   7.118   7.336   4.620 -2.4884  1.6647 -3.1211
   69MOL   H36226338   7.215   7.483   4.599  0.3373 -1.3146 -0.4247
   69MOL   C36326339   6.952   0.149   4.588  0.7358  0.5155  0.3017
   69MOL   C36426340   7.098   0.130   4.571 -0.6382 -0.2152 -0.0842
   69MOL   O36526341   7.130   0.233   4.483  0.4306 -0.1597  0.5428
   69MOL   C36626342   7.267   0.242   4.448  0.2502  0.2763 -0.0669
   69MOL   C36726343   7.277   0.340   4.332  0.1544  0.0863 -0.1486
   69MOL   C36826344   7.209   0.276   4.207  0.5893 -0.2741 -0.2794
   69MOL   C36926345   7.423   0.375   4.312  0.4524  0.2213  0.2851
   69MOL   H37026346   6.899   0.142   4.494  0.0612  0.4362  0.6837
   69MOL   H37126347   6.935   0.245   4.636  0.2994  0.2635  0.6486
   69MOL   H37226348   7.135   0.031   4.544 -0.2841 -0.8974  2.7263
   69MOL   H37326349   7.328   0.286   4.527 -2.4456  0.6543  1.8639
   69MOL   H37426350   7.299   0.144   4.413 -0.3164  0.1213 -0.1529
   69MOL   H37526351   7.223   0.433   4.350  1.8252  0.5724  2.5595
   69MOL   H37626352   7.229   0.170   4.189  0.3151 -0.5010  0.7173
   69MOL   H37726353   7.246   0.333   4.122  1.3416 -0.3197  0.0175
   69MOL   H37826354   7.105   0.295   4.233  1.0217  0.5982  0.8857
   69MOL   H37926355   7.451   0.388   4.207 -0.0965 -0.8112  0.0075
   69MOL   H38026356   7.490   0.300   4.353  0.3314 -0.7555 -1.2507
   69MOL   H38126357   7.451   0.475   4.347  0.4209  0.5583 -0.6134
   69MOL   H38226358   7.141   0.151   4.669  0.5717  0.2875 -0.7130
   70MOL     C126359   4.943   0.363   1.432 -0.1049  0.4854 -0.1678
   70MOL     C226360   5.064   0.291   1.482  0.3985  0.3094 -0.0553
   70MOL     O326361   5.171   0.341   1.403  0.4057 -0.7108  0.0320
   70MOL     C426362   5.179   0.300   1.265 -0.4057  0.0672  0.3471
   70MOL     C526363   5.313   0.355   1.218 -0.4899 -0.2783  0.1382
   70MOL     C626364   5.332   0.501   1.247  0.6386  0.5516 -0.2125
   70MOL     C726365   5.341   0.318   1.071  1.0884  0.2616 -0.0083
   70MOL     H826366   4.851   0.323   1.474 -0.4558  1.2124 -0.2232
   70MOL     H926367   4.941   0.467   1.464 -0.2691  0.2570  0.5615
   70MOL    H1026368   5.053   0.186   1.454  0.4290  0.2998 -0.0303
   70MOL    H1126369   5.092   0.331   1.206  0.3993  3.1542  0.7318
   70MOL    H1226370   5.175   0.191   1.256  1.0862  0.1773 -2.4443
   70MOL    H1326371   5.390   0.297   1.270 -0.4388 -1.6060 -1.4041
   70MOL    H1426372   5.413   0.540   1.186  3.4248 -0.4961  2.6608
   70MOL    H1526373   5.253   0.564   1.207  3.1749  2.8060 -1.8547
   70MOL    H1626374   5.340   0.515   1.355 -0.6906 -2.4746  0.3335
   70MOL    H1726375   5.292   0.384   1.000  2.8882  0.2165 -1.3247
   70MOL    H1826376   5.449   0.318   1.056  1.1782 -0.6827  0.5648
   70MOL    H1926377   5.296   0.220   1.056  1.5937  0.1529 -0.8523
   70MOL    H2026378   4.927   0.355   1.324  0.6542  0.5676 -0.2889
   70MOL    C2126379   5.115   0.313   1.619  0.2905 -0.8024 -0.5609
   70MOL    C2226380   5.017   0.256   1.722  0.3865  0.0112 -0.5597
   70MOL    O2326381   4.991   0.116   1.684  0.2653  0.2761  0.0699
   70MOL    C2426382   4.854   0.080   1.681 -0.1773 -0.0861  0.8811
   70MOL    C2526383   4.832   7.759   1.659 -0.3812 -0.2811 -0.1218
   70MOL    C2626384   4.865   7.713   1.516 -0.1148  0.5779  0.3851
   70MOL    C2726385   4.887   7.662   1.772  0.9142 -0.6681  0.4220
   70MOL    H2826386   5.212   0.265   1.626  0.1906 -1.2892 -2.1627
   70MOL    H2926387   5.128   0.420   1.637  3.6349 -1.3462  0.5661
   70MOL    H3026388   4.925   0.314   1.717  0.1285 -0.3084  0.4798
   70MOL    H3126389   4.799   0.129   1.601  2.0510  1.5295  0.2791
   70MOL    H3226390   4.805   0.113   1.773 -0.7457 -0.0192  0.5559
   70MOL    H3326391   4.724   7.746   1.670 -0.3649 -0.2589  0.0756
   70MOL    H3426392   4.964   7.671   1.498 -0.3178  0.2753 -0.0317
   70MOL    H3526393   4.841   7.778   1.432 -1.1250 -1.6268 -1.0582
   70MOL    H3626394   4.813   7.618   1.503  0.9045  0.0549  0.1462
   70MOL    H3726395   4.892   7.566   1.723  1.3635  0.3587 -1.5891
   70MOL    H3826396   4.985   7.698   1.804  0.6666  0.5100 -0.1309
   70MOL    H3926397   4.815   7.648   1.853 -0.7540  2.2346 -0.4701
   70MOL    C4026398   5.063   0.242   1.868  0.0417 -0.2123 -0.6350
   70MOL    C4126399   5.072   0.377   1.946  0.5431  0.2452  0.9481
   70MOL    O4226400   5.170   0.453   1.889  0.5984 -0.3422  0.2586
   70MOL    C4326401   5.126   0.584   1.858  0.1374  0.2606 -0.1010
   70MOL    C4426402   5.240   0.682   1.821 -0.4933 -0.3125  0.3310
   70MOL    C4526403   5.344   0.712   1.930  0.2972  0.2972  0.3633
   70MOL    C4626404   5.310   0.642   1.694 -0.3266 -0.0961  0.3474
   70MOL    H4726405   5.149   0.179   1.887 -0.3777 -0.4647  0.4347
   70MOL    H4826406   4.982   0.182   1.910  0.4138 -0.3908 -0.1737
   70MOL    H4926407   4.977   0.429   1.941  1.4795  1.8309 -0.4863
   70MOL    H5026408   5.081   0.633   1.945 -0.8613  1.7636 -1.4345
   70MOL    H5126409   5.052   0.572   1.779 -1.5060 -0.3129  1.4794
   70MOL    H5226410   5.188   0.775   1.797 -1.2833 -1.6748 -3.5950
   70MOL    H5326411   5.421   0.776   1.886  0.0132  1.9468  2.1835
   70MOL    H5426412   5.305   0.744   2.027  0.7202 -0.9386  0.9572
   70MOL    H5526413   5.414   0.632   1.955 -0.4218 -0.2342  0.6992
   70MOL    H5626414   5.382   0.561   1.703 -1.2988 -1.0772 -0.6547
   70MOL    H5726415   5.363   0.728   1.654  2.0093 -2.0172 -0.8398
   70MOL    H5826416   5.244   0.605   1.616  0.6311 -0.8697 -0.1134
   70MOL    C5926417   5.106   0.369   2.096  0.0071 -0.1088 -0.5297
   70MOL    C6026418   4.990   0.305   2.179 -0.4886  0.4775  0.6976
   70MOL    O6126419   4.869   0.384   2.171 -0.6250 -0.2809 -0.7582
   70MOL    C6226420   4.744   0.317   2.206  0.0053 -0.0820 -0.3295
   70MOL    C6326421   4.640   0.424   2.267 -0.3810 -0.3036 -0.8656
   70MOL    C6426422   4.595   0.526   2.158 -0.8805  0.3024 -0.2836
   70MOL    C6526423   4.535   0.346   2.348  0.2883 -0.0756  0.2537
   70MOL    H6626424   5.124   0.473   2.124  1.3224 -0.7322  0.9659
   70MOL    H6726425   5.194   0.306   2.099 -0.4644 -0.8583 -1.8091
   70MOL    H6826426   4.968   0.204   2.143 -0.6400  0.0494  1.9696
   70MOL    H6926427   4.695   0.265   2.124 -0.2185 -1.8685  0.8914
   70MOL    H7026428   4.749   0.231   2.274 -0.3948  1.2065  1.3636
   70MOL    H7126429   4.679   0.478   2.353 -2.1545 -1.0517  0.4416
   70MOL    H7226430   4.518   0.591   2.200 -0.9322  0.5601 -0.7730
   70MOL    H7326431   4.539   0.473   2.081  2.1097 -2.5945 -0.5619
   70MOL    H7426432   4.681   0.580   2.120  0.6160 -1.5798  0.3046
   70MOL    H7526433   4.446   0.407   2.364 -1.0722 -2.1888  1.0598
   70MOL    H7626434   4.510   0.254   2.294 -2.9089 -0.7090  2.6054
   70MOL    H7726435   4.583   0.314   2.440  1.4681  0.2404 -0.2550
   70MOL    C7826436   5.021   0.284   2.327 -0.2148 -0.1726  0.1879
   70MOL    C7926437   5.066   0.140   2.376 -0.5437 -0.3086  0.4681
   70MOL    O8026438   5.182   0.115   2.296 -0.1434 -0.1060 -0.0726
   70MOL    C8126439   5.233   7.806   2.306  0.4041  0.2524 -0.4404
   70MOL    C8226440   5.322   7.764   2.187 -0.4229 -0.0628 -0.6797
   70MOL    C8326441   5.400   7.628   2.199 -0.7829  0.3971  0.7042
   70MOL    C8426442   5.434   0.046   2.157 -0.7580  0.0536 -0.3895
   70MOL    H8526443   4.943   0.314   2.397 -0.8475 -1.1755 -0.0782
   70MOL    H8626444   5.098   0.355   2.357  0.5683 -0.9502  0.0441
   70MOL    H8726445   4.983   0.073   2.351 -1.8414  1.0489  1.0412
   70MOL    H8826446   5.289   7.799   2.399  0.1271  1.0229 -0.2109
   70MOL    H8926447   5.147   7.739   2.307 -0.0633  0.8518  0.5274
   70MOL    H9026448   5.257   7.757   2.100 -0.3120 -0.2818 -0.7447
   70MOL    H9126449   5.339   7.547   2.237  0.9418 -1.3838 -0.2487
   70MOL    H9226450   5.488   7.636   2.263  1.2577 -0.3733 -1.9302
   70MOL    H9326451   5.444   7.590   2.107  0.2450  0.4057  1.1876
   70MOL    H9426452   5.399   0.146   2.132  0.9563  0.5305 -0.9541
   70MOL    H9526453   5.505   0.020   2.079 -0.2652  0.7907 -0.1953
   70MOL    H9626454   5.503   0.065   2.239 -0.4454  0.7731 -0.8128
   70MOL    C9726455   5.105   0.124   2.524  0.7142  1.0492  0.7377
   70MOL    C9826456   4.994   0.165   2.625  0.2053 -0.4861  0.1134
   70MOL    O9926457   5.042   0.142   2.759 -0.1023  0.1052 -0.2130
   70MOL   C10026458   5.143   0.230   2.801  0.0180 -1.1010 -0.7238
   70MOL   C10126459   5.168   0.208   2.949  0.1945 -1.3195 -0.0643
   70MOL   C10226460   5.298   0.280   2.985 -0.1520  0.1221 -0.1399
   70MOL   C10326461   5.048   0.246   3.042 -0.0111  1.0276 -0.8923
   70MOL   H10426462   5.189   0.192   2.537  1.6205 -0.0714  0.7841
   70MOL   H10526463   5.134   0.022   2.549 -0.9040 -0.3186 -2.6664
   70MOL   H10626464   4.984   0.273   2.618  1.4671 -0.3288  0.6107
   70MOL   H10726465   5.110   0.332   2.782 -1.6717 -1.4239  0.3477
   70MOL   H10826466   5.235   0.224   2.742 -0.0255  2.9875 -1.3501
   70MOL   H10926467   5.194   0.102   2.961  0.3995 -1.2161  0.3992
   70MOL   H11026468   5.333   0.253   3.085 -0.4861  0.9877  0.2097
   70MOL   H11126469   5.370   0.266   2.904 -1.8424  0.5761 -1.7422
   70MOL   H11226470   5.284   0.387   2.993 -0.9467 -0.0628  1.0864
   70MOL   H11326471   5.072   0.242   3.148 -0.3637  2.5060 -0.7537
   70MOL   H11426472   5.016   0.348   3.025  0.3930  1.1448 -0.9552
   70MOL   H11526473   4.960   0.184   3.025  0.5439 -0.5240  1.6968
   70MOL   C11626474   4.861   0.103   2.601  0.0363 -0.3864 -0.2135
   70MOL   C11726475   4.749   0.151   2.696  0.0819 -1.1767 -0.0594
   70MOL   O11826476   4.730   0.295   2.698  0.2366 -0.0136  0.2446
   70MOL   C11926477   4.762   0.364   2.822 -0.0492  0.1840  0.6838
   70MOL   C12026478   4.647   0.345   2.925 -0.0677  0.1912 -0.1856
   70MOL   C12126479   4.703   0.391   3.058 -0.4352 -0.5166 -0.4346
   70MOL   C12226480   4.517   0.414   2.887  0.6821 -0.4670  0.7990
   70MOL   H12326481   4.829   0.121   2.498  0.7578  0.7683 -0.2418
   70MOL   H12426482   4.872   7.819   2.610 -1.0470 -0.5830 -1.0888
   70MOL   H12526483   4.775   0.116   2.796 -1.5187 -0.3205  0.6723
   70MOL   H12626484   4.770   0.471   2.799 -2.1636  0.8345  2.8384
   70MOL   H12726485   4.858   0.330   2.860  0.1485 -2.1355 -1.7217
   70MOL   H12826486   4.621   0.240   2.940 -0.1688  0.0282 -1.4619
   70MOL   H12926487   4.742   0.492   3.069 -2.6198  0.1979  1.0771
   70MOL   H13026488   4.788   0.330   3.087 -2.3443 -2.5124  1.1736
   70MOL   H13126489   4.633   0.367   3.138  2.2582 -1.4231  1.7130
   70MOL   H13226490   4.430   0.387   2.947 -0.0071  2.1499  1.0448
   70MOL   H13326491   4.528   0.522   2.898 -3.4736 -0.0184  1.3367
   70MOL   H13426492   4.492   0.393   2.783 -0.4247 -0.0713  0.9885
   70MOL   C13526493   4.606   0.097   2.666 -0.1269  0.4635 -0.3105
   70MOL   C13626494   4.579   7.770   2.686 -0.4260  0.2012 -0.2927
   70MOL   O13726495   4.563   7.753   2.829 -0.3336  0.4492 -0.5235
   70MOL   C13826496   4.586   7.627   2.877 -0.4139  0.7250  0.1707
   70MOL   C13926497   4.664   7.631   3.010  0.1332  0.3528 -0.7373
   70MOL   C14026498   4.810   7.649   2.977  0.7371  0.5221  0.3439
   70MOL   C14126499   4.634   7.745   3.106  0.2475  0.2441 -0.5186
   70MOL   H14226500   4.536   0.145   2.734 -1.0571  0.5812 -1.3373
   70MOL   H14326501   4.581   0.128   2.564  0.7671 -3.7021 -1.9002
   70MOL   H14426502   4.658   7.708   2.646 -1.5459 -1.7575  0.4584
   70MOL   H14526503   4.623   7.552   2.807 -0.4533  1.4422 -0.6238
   70MOL   H14626504   4.489   7.585   2.902  0.4132 -1.2986  0.1227
   70MOL   H14726505   4.658   7.536   3.063  0.7825  1.1481  0.7578
   70MOL   H14826506   4.820   7.746   2.930  1.5668  0.8513  1.1721
   70MOL   H14926507   4.865   7.571   2.924 -1.0600 -0.4749 -0.1036
   70MOL   H15026508   4.859   7.624   3.072 -0.9993  0.0540  1.1300
   70MOL   H15126509   4.707   7.753   3.187  1.0002  2.4441 -1.4060
   70MOL   H15226510   4.627   0.013   3.050  2.2662  0.8351  0.1752
   70MOL   H15326511   4.544   7.724   3.165  1.0863 -0.0176  0.6837
   70MOL   C15426512   4.458   7.710   2.615 -0.3693  0.1234 -0.0274
   70MOL   C15526513   4.437   7.726   2.466  0.0000 -0.5968  0.6734
   70MOL   O15626514   4.532   7.651   2.399  0.0321  0.3777  0.1241
   70MOL   C15726515   4.571   7.691   2.273 -1.1220 -0.6620  0.0185
   70MOL   C15826516   4.719   7.736   2.272 -0.1796  0.1347  0.2365
   70MOL   C15926517   4.813   7.631   2.332 -0.9529  0.4023 -0.4220
   70MOL   C16026518   4.775   7.768   2.129  0.5250  0.8424 -0.7489
   70MOL   H16126519   4.375   7.765   2.660  1.1750  0.5604  2.3480
   70MOL   H16226520   4.439   7.610   2.653  3.1185 -0.0131  1.4775
   70MOL   H16326521   4.459   0.007   2.449  0.0636 -0.7321 -0.1261
   70MOL   H16426522   4.507   7.770   2.232 -0.8047 -1.2336 -1.5962
   70MOL   H16526523   4.557   7.614   2.197  0.0032 -0.9446  0.0866
   70MOL   H16626524   4.731   0.008   2.320  0.7933 -0.3542  1.0183
   70MOL   H16726525   4.812   7.546   2.265 -1.6545 -0.4769  0.6925
   70MOL   H16826526   4.781   7.613   2.435 -0.8230 -1.6313 -0.7209
   70MOL   H16926527   4.906   7.690   2.333 -1.5120  1.2946 -0.1778
   70MOL   H17026528   4.750   0.047   2.106  0.3805  0.9919  0.0723
   70MOL   H17126529   4.883   7.766   2.114  0.8178  3.6599  0.5892
   70MOL   H17226530   4.735   7.704   2.050  0.9665  0.4097 -0.6218
   70MOL   C17326531   4.294   7.690   2.423 -0.1644  0.8367  0.1688
   70MOL   C17426532   4.272   7.539   2.396 -0.0370 -0.1288 -0.2630
   70MOL   O17526533   4.294   7.464   2.515  0.1126 -0.4246  0.2017
   70MOL   C17626534   4.361   7.340   2.495 -0.0306 -0.5935  0.2966
   70MOL   C17726535   4.360   7.267   2.623 -0.1092  0.0630 -0.3138
   70MOL   C17826536   4.412   7.118   2.612 -0.2219 -0.3048  0.4907
   70MOL   C17926537   4.421   7.333   2.746 -0.0598  0.0107 -0.1042
   70MOL   H18026538   4.222   7.730   2.494 -1.5879 -1.5638  0.1540
   70MOL   H18126539   4.278   7.738   2.326  1.2330  1.9637  0.4872
   70MOL   H18226540   4.353   7.520   2.326  0.0712 -1.5802  0.2485
   70MOL   H18326541   4.465   7.362   2.467 -0.3590  0.0449 -0.4245
   70MOL   H18426542   4.320   7.273   2.419 -1.4678 -2.1486  2.4117
   70MOL   H18526543   4.253   7.264   2.641  0.3798 -2.0833  2.3767
   70MOL   H18626544   4.372   7.045   2.682  0.6188  0.5136  1.8445
   70MOL   H18726545   4.382   7.072   2.518 -1.6040 -1.4396  1.4826
   70MOL   H18826546   4.521   7.111   2.609 -0.2675 -0.7427 -0.8332
   70MOL   H18926547   4.407   7.278   2.840 -1.1440 -0.8401 -0.7602
   70MOL   H19026548   4.374   7.428   2.769 -0.4858 -0.2691  0.1895
   70MOL   H19126549   4.527   7.355   2.733 -0.0272 -0.0616  0.0325
   70MOL   C19226550   4.124   7.510   2.344 -0.2077 -0.1646  0.5867
   70MOL   C19326551   4.098   7.564   2.196  0.6397 -0.5561 -0.9274
   70MOL   O19426552   3.962   7.556   2.173 -0.4176 -0.4050  0.1615
   70MOL   C19526553   3.895   7.679   2.217  0.2948 -0.2544 -0.1843
   70MOL   C19626554   3.747   7.659   2.179  0.1848 -0.0879 -0.1720
   70MOL   C19726555   3.678   7.561   2.278 -0.1498  0.3389  0.0405
   70MOL   C19826556   3.721   7.604   2.037  0.0030 -0.6286 -0.1540
   70MOL   H19926557   4.047   7.553   2.409  0.3671  0.4840  0.8436
   70MOL   H20026558   4.104   7.403   2.341 -0.3636 -0.0897 -3.2052
   70MOL   H20126559   4.138   7.665   2.187 -1.6124  0.4136 -0.4571
   70MOL   H20226560   3.936   7.765   2.165  1.0137 -1.6600 -1.9790
   70MOL   H20326561   3.900   7.709   2.322 -1.5962  0.3216 -0.2406
   70MOL   H20426562   3.694   7.754   2.185  0.3738  0.1025 -1.4739
   70MOL   H20526563   3.740   7.471   2.284  2.3820  2.0535  0.1917
   70MOL   H20626564   3.660   7.604   2.376  2.9245  1.2824  0.2473
   70MOL   H20726565   3.586   7.521   2.235 -0.0605  0.0348  0.1244
   70MOL   H20826566   3.710   7.496   2.045  0.3098 -0.6269  0.2797
   70MOL   H20926567   3.631   7.638   1.987  0.9324  1.3799 -0.4932
   70MOL   H21026568   3.799   7.629   1.964  0.4092 -0.4972  0.3236
   70MOL   C21126569   4.176   7.472   2.105  0.3811  1.1070 -0.4857
   70MOL   C21226570   4.206   7.531   1.966 -0.8370 -0.4836 -1.1578
   70MOL   O21326571   4.291   7.645   1.989  0.3900 -0.0942 -0.0693
   70MOL   C21426572   4.243   7.769   1.945 -0.4610 -0.2628  0.4589
   70MOL   C21526573   4.345   0.053   1.988 -0.7134 -0.1287  0.2198
   70MOL   C21626574   4.481   0.038   1.915  0.5475 -0.0127 -0.1932
   70MOL   C21726575   4.295   0.198   1.976 -0.3709  0.3917  0.4895
   70MOL   H21826576   4.117   7.383   2.087  1.0889  1.1303 -3.1498
   70MOL   H21926577   4.274   7.448   2.147 -0.1761 -1.3106 -0.5184
   70MOL   H22026578   4.108   7.559   1.928 -0.5682 -0.3821 -1.7880
   70MOL   H22126579   4.145   7.788   1.988 -0.7749  1.2643 -0.8752
   70MOL   H22226580   4.247   7.769   1.836  1.5741  2.2890  0.4827
   70MOL   H22326581   4.367   0.046   2.094 -1.1964 -2.2177  0.2192
   70MOL   H22426582   4.556   0.097   1.967 -1.4192  1.8878  0.5697
   70MOL   H22526583   4.521   7.762   1.927  1.2342 -0.0387 -2.4503
   70MOL   H22626584   4.473   0.056   1.808 -1.2191  1.1871  0.1176
   70MOL   H22726585   4.203   0.222   2.030 -0.4413  0.0006  0.5437
   70MOL   H22826586   4.284   0.226   1.871  1.6478 -0.8122 -0.0652
   70MOL   H22926587   4.370   0.266   2.015  0.2287 -0.2115  0.3899
   70MOL   C23026588   4.273   7.431   1.876 -0.6460  0.7349 -0.0103
   70MOL   C23126589   4.302   7.469   1.725  0.3422 -0.5343 -0.0770
   70MOL   O23226590   4.373   7.365   1.666  0.1877  0.3847 -0.0024
   70MOL   C23326591   4.516   7.366   1.699  0.2360  0.5280 -0.1185
   70MOL   C23426592   4.605   7.276   1.609  0.3598  0.2924 -0.1864
   70MOL   C23526593   4.600   7.329   1.463 -0.2378  0.0160  0.3237
   70MOL   C23626594   4.745   7.280   1.659  0.1102  0.4791  0.0010
   70MOL   H23726595   4.207   7.344   1.873 -1.4672  1.4082 -1.9731
   70MOL   H23826596   4.361   7.413   1.938 -1.8111  0.1148  1.5070
   70MOL   H23926597   4.356   7.563   1.718  0.3817 -0.5911 -0.5001
   70MOL   H24026598   4.556   7.468   1.705  1.6956  0.2658 -3.8296
   70MOL   H24126599   4.516   7.318   1.797  3.7906 -0.2007 -0.4035
   70MOL   H24226600   4.570   7.173   1.605 -3.4564  1.4595  1.2802
   70MOL   H24326601   4.494   7.332   1.436  0.4790 -0.6236 -2.7114
   70MOL   H24426602   4.664   7.268   1.399 -1.4059 -2.1206  1.1208
   70MOL   H24526603   4.638   7.430   1.472 -2.7182  1.1797 -1.6243
   70MOL   H24626604   4.817   7.216   1.610 -0.7862 -0.0371 -0.6502
   70MOL   H24726605   4.787   7.379   1.639  2.1285 -0.6864 -1.6323
   70MOL   H24826606   4.751   7.268   1.767 -0.4412  0.3067  0.0159
   70MOL   C24926607   4.161   7.478   1.657 -0.2648  0.6426  0.2283
   70MOL   C25026608   4.154   7.544   1.519  0.6129  0.0876 -0.8976
   70MOL   O25126609   4.018   7.549   1.485 -0.1676 -0.1227 -0.1260
   70MOL   C25226610   3.967   7.439   1.412 -0.0303  0.2412  0.0201
   70MOL   C25326611   3.816   7.411   1.432  0.5482  0.2389  0.1242
   70MOL   C25426612   3.776   7.463   1.571 -0.8706 -0.3993  0.2793
   70MOL   C25526613   3.787   7.262   1.423 -0.1745  0.6105  0.8205
   70MOL   H25626614   4.103   7.544   1.721  0.7258  0.3754  1.4303
   70MOL   H25726615   4.096   7.391   1.672 -0.1273  0.3971 -0.5573
   70MOL   H25826616   4.215   7.486   1.449  0.6990 -1.7754  0.6650
   70MOL   H25926617   3.995   7.465   1.309 -0.2247 -0.9454 -0.3419
   70MOL   H26026618   4.033   7.354   1.428  0.0646  0.4686  0.8240
   70MOL   H26126619   3.756   7.456   1.353  1.7128  2.0223  0.2204
   70MOL   H26226620   3.667   7.457   1.582 -0.9329 -1.1630 -0.6346
   70MOL   H26326621   3.806   7.564   1.598 -1.8822 -0.1302  0.4446
   70MOL   H26426622   3.816   7.386   1.637 -0.9971 -0.0093  0.8100
   70MOL   H26526623   3.848   7.209   1.496  1.9436 -0.7560 -1.9042
   70MOL   H26626624   3.683   7.239   1.448 -0.1950 -0.0444  0.1186
   70MOL   H26726625   3.803   7.228   1.321 -1.5052 -0.1372  0.8494
   70MOL   C26826626   4.211   7.686   1.519  0.0702 -0.5772  0.0617
   70MOL   C26926627   4.216   7.761   1.383 -0.8141 -0.7860  0.3931
   70MOL   O27026628   4.326   7.696   1.319  0.6556  0.2387  0.0175
   70MOL   C27126629   4.282   7.627   1.206 -0.4092  0.1825 -0.1132
   70MOL   C27226630   4.402   7.557   1.148 -0.5032 -0.2143  0.4189
   70MOL   C27326631   4.382   7.458   1.027 -0.1394 -0.5350  0.4033
   70MOL   C27426632   4.534   7.634   1.136  0.2068  0.6130  0.1324
   70MOL   H27526633   4.316   7.680   1.545  0.3909  1.6205 -0.6135
   70MOL   H27626634   4.163   7.740   1.601 -1.5548 -2.6774  0.5472
   70MOL   H27726635   4.125   7.772   1.324 -1.7752 -1.4012  1.7368
   70MOL   H27826636   4.202   7.555   1.224  0.8065 -0.4853  3.0338
   70MOL   H27926637   4.250   7.694   1.126  0.3780  0.5117 -0.1516
   70MOL   H28026638   4.422   7.484   1.227 -2.0306 -0.4430  0.5978
   70MOL   H28126639   4.303   7.386   1.051 -1.1856  0.5691  0.2790
   70MOL   H28226640   4.475   7.408   1.001  0.0598 -0.3969  0.8400
   70MOL   H28326641   4.355   7.511   0.936 -1.2732  0.6514  1.4100
   70MOL   H28426642   4.612   7.574   1.089  0.0969 -1.5776  2.6743
   70MOL   H28526643   4.569   7.663   1.235  0.2443 -0.3251  0.3995
   70MOL   H28626644   4.532   7.727   1.079  0.9226 -0.5734 -1.8674
   70MOL   C28726645   4.265   0.077   1.409  0.1519  0.0385 -0.2708
   70MOL   C28826646   4.265   0.171   1.290 -0.1309 -0.2690 -0.8863
   70MOL   O28926647   4.363   0.272   1.300 -0.3641 -0.2502 -0.5757
   70MOL   C29026648   4.495   0.231   1.286 -0.3098 -0.6233  0.0458
   70MOL   C29126649   4.569   0.348   1.221  0.0823 -0.3479  0.4021
   70MOL   C29226650   4.588   0.462   1.323  0.0503 -0.1570  0.0061
   70MOL   C29326651   4.495   0.388   1.092 -0.0439 -0.3614 -0.5474
   70MOL   H29426652   4.361   0.055   1.457  0.2239  0.3267 -0.2805
   70MOL   H29526653   4.217   0.122   1.496 -3.5926 -0.4422 -1.9901
   70MOL   H29626654   4.287   0.125   1.194  1.6523  0.5062 -0.8776
   70MOL   H29726655   4.539   0.216   1.385 -0.4642  2.3811  0.6351
   70MOL   H29826656   4.511   0.142   1.225 -1.5050 -1.2229  0.5952
   70MOL   H29926657   4.670   0.315   1.196 -0.6757 -2.8543  0.5208
   70MOL   H30026658   4.490   0.500   1.353 -1.0696 -2.1653 -1.0468
   70MOL   H30126659   4.653   0.544   1.290  0.7195 -1.2146 -1.3597
   70MOL   H30226660   4.636   0.434   1.416 -1.0485  0.0944  0.6570
   70MOL   H30326661   4.553   0.464   1.040  2.6630 -2.8272 -1.2955
   70MOL   H30426662   4.498   0.310   1.015  2.4225  2.1098 -3.0755
   70MOL   H30526663   4.391   0.415   1.109  0.6244 -0.1826  4.0551
   70MOL   C30626664   4.133   0.262   1.282 -0.1673 -0.5384  0.1911
   70MOL   C30726665   4.004   0.183   1.254 -0.0719  0.5388 -0.4917
   70MOL   O30826666   3.886   0.262   1.272 -0.4361 -0.2274 -0.3742
   70MOL   C30926667   3.817   0.270   1.396  0.1725 -0.3552 -0.2119
   70MOL   C31026668   3.677   0.330   1.376  0.4163  0.4775 -0.2816
   70MOL   C31126669   3.681   0.463   1.301 -0.0962  0.1933  0.4633
   70MOL   C31226670   3.599   0.338   1.497 -0.6495  0.4908 -0.6244
   70MOL   H31326671   4.151   0.337   1.204  0.4613  1.9792  2.6952
   70MOL   H31426672   4.111   0.318   1.373  3.0920  1.9710 -0.4787
   70MOL   H31526673   3.988   0.103   1.326  2.8431  0.8828  0.6310
   70MOL   H31626674   3.878   0.333   1.462 -0.2437  0.4416 -0.5897
   70MOL   H31726675   3.804   0.172   1.443  2.4044 -1.2567 -1.3688
   70MOL   H31826676   3.620   0.260   1.315  1.5843  0.6680 -1.6192
   70MOL   H31926677   3.753   0.472   1.220 -0.5605  1.8846  0.2205
   70MOL   H32026678   3.719   0.536   1.373  0.4614  1.1004 -0.7307
   70MOL   H32126679   3.584   0.494   1.261 -0.9758  0.1195  2.4919
   70MOL   H32226680   3.495   0.359   1.470 -1.8425 -1.9154  1.9161
   70MOL   H32326681   3.639   0.414   1.564 -2.9177  0.2621  1.0505
   70MOL   H32426682   3.589   0.241   1.544  0.4913  1.8430  2.5093
   70MOL   C32526683   3.993   0.117   1.111 -0.7564  0.5797  0.1322
   70MOL   C32626684   4.040   0.194   0.980 -0.0035  0.2196 -0.7729
   70MOL   O32726685   4.040   0.117   0.859 -0.2578 -0.3238  0.4355
   70MOL   C32826686   4.127   0.004   0.862 -0.0191 -0.3548 -0.4437
   70MOL   C32926687   4.127   7.758   0.722 -0.3567 -0.0951  0.1233
   70MOL   C33026688   4.229   7.645   0.725  0.0907  0.0655  0.6213
   70MOL   C33126689   3.991   7.703   0.689  0.6306 -0.1647 -0.1470
   70MOL   H33226690   3.891   0.086   1.087 -0.2116 -2.3066  1.3907
   70MOL   H33326691   4.045   0.022   1.123  1.3915  1.7100 -0.1395
   70MOL   H33426692   4.141   0.225   1.007 -0.9542  2.9572 -0.2366
   70MOL   H33526693   4.227   0.032   0.895 -0.0211 -0.2669 -0.5095
   70MOL   H33626694   4.090   7.759   0.937  3.3747 -1.0875  0.6539
   70MOL   H33726695   4.145   0.008   0.645 -0.2348 -1.2901 -1.0095
   70MOL   H33826696   4.204   7.577   0.807 -1.2438  0.5326  0.6124
   70MOL   H33926697   4.247   7.594   0.631 -0.5500 -1.7314  1.4701
   70MOL   H34026698   4.326   7.685   0.757  0.6279 -0.5001 -0.2870
   70MOL   H34126699   3.914   7.779   0.677 -0.4057 -0.9750  1.2662
   70MOL   H34226700   3.994   7.631   0.608  2.2766 -0.1572 -0.1222
   70MOL   H34326701   3.958   7.647   0.776 -2.7774  0.0319 -1.2321
   70MOL   C34426702   3.953   0.319   0.948  0.5777  0.3201  0.0627
   70MOL   C34526703   4.003   0.422   0.853  0.8016  0.6214  0.2273
   70MOL   O34626704   3.891   0.510   0.817  0.4711 -0.0722 -0.1848
   70MOL   C34726705   3.811   0.476   0.706 -0.1381  0.0655 -1.2204
   70MOL   C34826706   3.686   0.561   0.703  0.1869 -0.1120 -0.5354
   70MOL   C34926707   3.597   0.527   0.583  0.0617  1.0744 -0.6869
   70MOL   C35026708   3.722   0.712   0.710  0.1536  0.4715 -0.2358
   70MOL   H35126709   3.921   0.373   1.037  1.7636 -0.2583  0.8490
   70MOL   H35226710   3.856   0.282   0.914  0.9588 -0.9965  0.3698
   70MOL   H35326711   4.038   0.378   0.760  0.2363  0.4698  0.0889
   70MOL   H35426712   3.777   0.374   0.715 -1.0305  0.2808 -2.1134
   70MOL   H35526713   3.864   0.492   0.612 -1.1548 -0.4506 -1.8871
   70MOL   H35626714   3.634   0.542   0.797  1.4811 -1.4817 -0.0728
   70MOL   H35726715   3.536   0.438   0.601 -1.2264  2.0472 -0.1776
   70MOL   H35826716   3.651   0.509   0.490 -1.6801 -1.7308 -1.2426
   70MOL   H35926717   3.528   0.609   0.564 -0.2489  1.3370  1.4284
   70MOL   H36026718   3.643   0.775   0.669  0.8470  1.3150 -0.3048
   70MOL   H36126719   3.754   0.727   0.813  0.6375 -0.8158 -0.1970
   70MOL   H36226720   3.814   0.727   0.653  1.0040 -1.6576  0.5554
   70MOL   C36326721   4.120   0.507   0.912  0.2054 -0.3483  0.3040
   70MOL   C36426722   4.174   0.618   0.821 -0.8917 -0.0230 -0.0339
   70MOL   O36526723   4.263   0.699   0.895 -0.3067 -0.5886  0.4378
   70MOL   C36626724   4.312   0.805   0.816  0.3826 -0.2359  0.2069
   70MOL   C36726725   4.407   0.882   0.910  0.3760 -0.1958 -0.0099
   70MOL   C36826726   4.535   0.794   0.944 -0.7996 -0.2074 -0.1070
   70MOL   C36926727   4.335   0.958   1.020  0.4180  0.5727  0.2671
   70MOL   H37026728   4.079   0.559   0.999  1.5708 -1.1205  1.4393
   70MOL   H37126729   4.201   0.443   0.947 -0.4233 -0.4598  1.5860
   70MOL   H37226730   4.099   0.686   0.780  0.4452  0.3175 -1.9424
   70MOL   H37326731   4.372   0.761   0.736 -2.0682 -2.0823 -0.6739
   70MOL   H37426732   4.235   0.868   0.772 -0.5859 -0.7374  1.1812
   70MOL   H37526733   4.444   0.967   0.852  1.7945 -1.1189 -0.4904
   70MOL   H37626734   4.508   0.709   1.007 -0.2761 -1.2967 -1.3243
   70MOL   H37726735   4.606   0.865   0.986 -1.7001  1.2452 -0.9911
   70MOL   H37826736   4.580   0.765   0.849 -2.9890 -1.5404 -0.7772
   70MOL   H37926737   4.391   0.992   1.107 -0.0102 -0.3644  0.9225
   70MOL   H38026738   4.261   0.891   1.064  0.1988 -1.6950 -3.3175
   70MOL   H38126739   4.283   1.043   0.976 -0.2184  0.5045  0.8825
   70MOL   H38226740   4.225   0.574   0.735 -1.6362  0.1058 -0.5445
   71MOL     C126741   7.264   2.654   2.456  1.0551 -0.4726 -0.2253
   71MOL     C226742   7.196   2.783   2.405  0.7409 -0.0769  0.4169
   71MOL     O326743   7.059   2.763   2.408 -0.2241 -0.2010 -0.9349
   71MOL     C426744   6.984   2.840   2.311 -0.3096 -0.8006 -0.3432
   71MOL     C526745   6.851   2.770   2.279  0.6403 -0.0759  0.0193
   71MOL     C626746   6.866   2.653   2.176 -0.0222  0.3505  0.1824
   71MOL     C726747   6.739   2.877   2.230  0.1684 -0.0466 -0.1681
   71MOL     H826748   7.208   2.620   2.543 -0.1713  1.0775 -0.3872
   71MOL     H926749   7.255   2.575   2.381 -0.7248  0.0829 -0.6306
   71MOL    H1026750   7.221   2.794   2.299 -0.2660 -4.4976 -0.3812
   71MOL    H1126751   7.037   2.842   2.216  0.8824 -0.4736  0.3232
   71MOL    H1226752   6.962   2.942   2.343  1.0603 -1.4139  2.6608
   71MOL    H1326753   6.819   2.723   2.372 -2.2279 -1.1883 -1.4432
   71MOL    H1426754   6.891   2.697   2.079  0.6770  2.4286  1.2672
   71MOL    H1526755   6.948   2.587   2.204 -0.8510 -0.7962 -0.1016
   71MOL    H1626756   6.770   2.603   2.174  0.7299 -1.0928 -0.5489
   71MOL    H1726757   6.783   2.917   2.139 -0.3633 -1.8967 -1.2628
   71MOL    H1826758   6.638   2.845   2.202  1.6196 -2.2246 -3.1875
   71MOL    H1926759   6.725   2.960   2.300  1.5060  0.1020 -0.0661
   71MOL    H2026760   7.370   2.671   2.477  1.2949 -0.7574 -1.1851
   71MOL    C2126761   7.238   2.902   2.486  0.2219 -0.0523  1.0182
   71MOL    C2226762   7.380   2.951   2.464 -0.6805  0.2361  0.4417
   71MOL    O2326763   7.390   2.980   2.322 -0.2170  0.1060  0.3566
   71MOL    C2426764   7.475   2.897   2.244  0.1941 -0.7464  0.2840
   71MOL    C2526765   7.472   2.937   2.094 -1.2542  0.1934 -0.4529
   71MOL    C2626766   7.333   2.904   2.041  0.0590 -0.6973  0.1264
   71MOL    C2726767   7.500   3.081   2.074 -0.0912 -0.4225  0.6780
   71MOL    H2826768   7.176   2.988   2.460 -2.2257 -2.1919 -0.5460
   71MOL    H2926769   7.217   2.873   2.589  5.5036  0.4875  2.3915
   71MOL    H3026770   7.440   2.869   2.502 -1.4152 -1.6754 -2.3734
   71MOL    H3126771   7.448   2.792   2.254 -1.7548 -0.5121 -1.9414
   71MOL    H3226772   7.569   2.904   2.298 -0.7806  3.0863  1.6546
   71MOL    H3326773   7.554   2.887   2.043 -1.5640 -0.9715  0.1771
   71MOL    H3426774   7.325   2.909   1.933  3.7385  2.9711 -0.0765
   71MOL    H3526775   7.263   2.980   2.077 -0.4599 -1.3857  0.5963
   71MOL    H3626776   7.307   2.807   2.083  0.5941 -0.8354  0.1477
   71MOL    H3726777   7.419   3.152   2.087  0.3619 -0.2092  2.3951
   71MOL    H3826778   7.586   3.110   2.134 -0.2668 -1.1500  1.2901
   71MOL    H3926779   7.526   3.103   1.970  1.1529  0.2225  1.1175
   71MOL    C4026780   7.410   3.083   2.544 -0.3224  0.4626 -0.4486
   71MOL    C4126781   7.552   3.133   2.519 -0.4928 -0.1120  0.8547
   71MOL    O4226782   7.628   3.047   2.609  0.0922 -0.2519  0.2119
   71MOL    C4326783   7.764   3.027   2.567  0.0862 -0.5197 -0.3464
   71MOL    C4426784   0.025   2.983   2.686 -0.0204 -0.0253  0.0264
   71MOL    C4526785   0.035   3.094   2.792  0.0995  0.6336 -0.1959
   71MOL    C4626786   7.816   2.846   2.740 -0.6063 -0.3882  0.3277
   71MOL    H4726787   7.399   3.062   2.650  0.1304  0.0519 -0.4827
   71MOL    H4826788   7.333   3.156   2.519 -0.2052  0.4796 -0.7648
   71MOL    H4926789   7.572   3.101   2.417  0.8168  1.6796  0.5267
   71MOL    H5026790   7.797   3.125   2.532  1.2202 -0.5040  0.7428
   71MOL    H5126791   7.768   2.952   2.488  2.0472  0.2579 -1.0325
   71MOL    H5226792   0.127   2.968   2.649  0.3704  0.9609  0.6733
   71MOL    H5326793   0.047   3.194   2.749  2.0182  0.6463  0.3217
   71MOL    H5426794   7.771   3.094   2.855 -0.5361 -1.6042 -1.0393
   71MOL    H5526795   0.120   3.083   2.859 -2.1129  0.3667  2.6545
   71MOL    H5626796   0.060   2.830   2.824  1.6344 -0.0901 -1.4132
   71MOL    H5726797   0.019   2.767   2.671  2.1635  0.2236  0.6689
   71MOL    H5826798   7.712   2.842   2.774 -0.8078 -1.5548 -0.4051
   71MOL    C5926799   7.585   3.282   2.543  0.0327  1.0208 -0.1980
   71MOL    C6026800   7.531   3.393   2.453  0.5567 -0.4581  0.2045
   71MOL    O6126801   7.385   3.407   2.457 -0.2637 -0.1099  0.3568
   71MOL    C6226802   7.329   3.417   2.591 -0.2573 -0.9770  0.5112
   71MOL    C6326803   7.335   3.556   2.658  0.0824  0.1739  0.0098
   71MOL    C6426804   7.471   3.608   2.701 -0.5838 -0.0671  0.1505
   71MOL    C6526805   7.256   3.657   2.577 -0.2300 -1.3842 -0.3620
   71MOL    H6626806   7.691   3.302   2.529  0.3036  3.0244  3.8441
   71MOL    H6726807   7.563   3.294   2.650 -1.0253  1.9281 -0.5128
   71MOL    H6826808   7.576   3.489   2.481  2.1399 -0.7144 -1.3519
   71MOL    H6926809   7.224   3.391   2.574  0.0862 -2.3430  0.3803
   71MOL    H7026810   7.366   3.339   2.657  0.7417  1.3333  2.7456
   71MOL    H7126811   7.282   3.526   2.748 -0.8623  0.0547 -0.5710
   71MOL    H7226812   7.518   3.527   2.756 -0.1478 -1.0708 -1.6660
   71MOL    H7326813   7.456   3.695   2.765  1.6691 -0.2964  1.0266
   71MOL    H7426814   7.515   3.638   2.606  0.2007 -1.7206 -0.0323
   71MOL    H7526815   7.306   3.672   2.481  1.4089 -0.9417  0.5474
   71MOL    H7626816   7.155   3.622   2.558 -1.1352  0.3199  1.1386
   71MOL    H7726817   7.246   3.752   2.628 -1.8177 -0.6602 -1.9554
   71MOL    C7826818   7.565   3.374   2.301  0.1822  0.1894 -0.1466
   71MOL    C7926819   7.515   3.483   2.213 -0.4769  0.0028 -0.1308
   71MOL    O8026820   7.631   3.555   2.170  0.5029 -0.0809 -0.6575
   71MOL    C8126821   7.643   3.685   2.223 -0.3503 -0.2660 -0.2698
   71MOL    C8226822   7.778   3.761   2.192 -0.7397 -0.2391 -0.1590
   71MOL    C8326823   7.777   3.898   2.267  0.1553  0.3377 -0.0172
   71MOL    C8426824   7.802   3.786   2.041  0.4157  0.6183  0.2875
   71MOL    H8526825   7.513   3.284   2.270  1.6269 -0.4229 -0.8479
   71MOL    H8626826   7.673   3.360   2.292  0.5448 -1.8433  5.4755
   71MOL    H8726827   7.443   3.550   2.260 -0.7975 -0.5589  0.1859
   71MOL    H8826828   7.557   3.744   2.190 -0.4184  0.4653  1.1687
   71MOL    H8926829   7.635   3.673   2.331 -1.2591 -1.6668 -0.4723
   71MOL    H9026830   0.041   3.706   2.227  0.2252  1.1845 -0.2725
   71MOL    H9126831   7.773   3.878   2.374  2.7794  0.7879  0.2189
   71MOL    H9226832   7.686   3.943   2.228 -0.3076  1.7141  2.5601
   71MOL    H9326833   0.047   3.950   2.249 -0.0965  0.7118 -0.2639
   71MOL    H9426834   0.083   3.802   2.022  0.9423  0.0148  2.5503
   71MOL    H9526835   7.738   3.866   2.005  0.8838  0.6939 -0.3849
   71MOL    H9626836   7.764   3.701   1.983  0.8046  1.4007 -1.1138
   71MOL    C9726837   7.446   3.422   2.091 -0.5188 -0.2272 -0.1955
   71MOL    C9826838   7.378   3.529   2.002 -0.4946  0.7456  0.0175
   71MOL    O9926839   7.274   3.476   1.922 -0.4921 -0.6601 -0.1379
   71MOL   C10026840   7.146   3.473   1.988  0.3655 -0.2644  0.0750
   71MOL   C10126841   7.069   3.359   1.918  0.0003  0.1743 -0.6134
   71MOL   C10226842   7.045   3.386   1.774  0.9876 -0.1643 -0.9235
   71MOL   C10326843   7.133   3.216   1.928  0.3039 -0.7339  0.0629
   71MOL   H10426844   7.372   3.352   2.128 -1.3408  0.9974  0.4967
   71MOL   H10526845   7.518   3.367   2.030  0.0226 -2.4621  2.3635
   71MOL   H10626846   7.342   3.605   2.071 -0.2216 -0.3096  1.3488
   71MOL   H10726847   7.089   3.566   1.988 -1.3997 -1.3197 -0.3283
   71MOL   H10826848   7.148   3.441   2.093 -2.0697  0.5561  0.4040
   71MOL   H10926849   6.979   3.360   1.980  1.2912 -0.5211  1.3310
   71MOL   H11026850   7.142   3.388   1.725  1.4458 -0.1773 -0.0238
   71MOL   H11126851   6.990   3.299   1.736  0.6349  0.1739 -1.1920
   71MOL   H11226852   6.999   3.484   1.764 -3.3424 -1.8897  0.5965
   71MOL   H11326853   7.156   3.181   2.029  0.7903 -2.5968 -0.6887
   71MOL   H11426854   7.062   3.144   1.887 -2.1541  1.7410 -0.2243
   71MOL   H11526855   7.229   3.226   1.879  1.4780 -0.7590  2.2845
   71MOL   C11626856   7.483   3.593   1.915 -0.3786 -0.9469 -0.2058
   71MOL   C11726857   7.452   3.744   1.857 -0.0545  0.3773 -0.1864
   71MOL   O11826858   7.454   3.823   1.977 -0.0115  0.0409  0.0145
   71MOL   C11926859   7.336   3.902   1.993  0.1964  0.5896 -0.1842
   71MOL   C12026860   7.351   4.037   1.922 -0.6097  0.2490 -0.4541
   71MOL   C12126861   7.217   4.125   1.927 -0.2712  0.1743  0.0500
   71MOL   C12226862   7.476   4.114   1.964  0.9132 -0.5530 -0.0037
   71MOL   H12326863   7.583   3.603   1.957 -0.4435 -2.1541  0.2550
   71MOL   H12426864   7.501   3.529   1.829 -2.2965 -1.5739 -0.1844
   71MOL   H12526865   7.355   3.747   1.807 -0.7723  1.2792  1.2273
   71MOL   H12626866   7.341   3.906   2.102  0.7542  0.0088 -0.1841
   71MOL   H12726867   7.241   3.855   1.968  1.3016 -1.7650 -0.1971
   71MOL   H12826868   7.358   4.015   1.815  1.4320 -0.9581 -0.0994
   71MOL   H12926869   7.218   4.216   1.867  2.7980 -0.7897 -1.4660
   71MOL   H13026870   7.201   4.155   2.030 -0.5580  0.6080 -0.1193
   71MOL   H13126871   7.128   4.070   1.896 -0.6536  1.0443 -0.4060
   71MOL   H13226872   7.463   4.147   2.067  1.8953 -1.7262  0.5179
   71MOL   H13326873   7.563   4.048   1.970  1.0894 -0.3607 -0.4007
   71MOL   H13426874   7.505   4.192   1.894  0.3416 -2.3506 -2.3242
   71MOL   C13526875   7.550   3.798   1.754 -0.4283 -0.6233 -0.4546
   71MOL   C13626876   7.552   3.733   1.621  0.1268 -0.0477 -0.7435
   71MOL   O13726877   7.429   3.772   1.565 -0.0097 -0.2101  0.4098
   71MOL   C13826878   7.348   3.666   1.520 -0.2971  0.6228  0.3743
   71MOL   C13926879   7.201   3.698   1.470 -0.4408  0.7652 -0.5221
   71MOL   C14026880   7.130   3.570   1.410  0.6112  0.3920 -0.1426
   71MOL   C14126881   7.118   3.768   1.576  0.0461  0.2843 -0.0422
   71MOL   H14226882   7.539   3.905   1.739 -0.2536 -0.8517 -2.3816
   71MOL   H14326883   7.650   3.790   1.796 -0.3248  0.8944 -0.3899
   71MOL   H14426884   7.562   3.626   1.638 -0.6132 -0.3953 -2.4107
   71MOL   H14526885   7.337   3.594   1.601 -0.5316  2.1735  1.7393
   71MOL   H14626886   7.395   3.613   1.437  1.7224  0.4268  1.5975
   71MOL   H14726887   7.229   3.752   1.380 -0.7320 -0.9658 -1.6618
   71MOL   H14826888   7.188   3.517   1.335 -0.5597 -2.3880  0.8451
   71MOL   H14926889   7.031   3.579   1.365 -0.2564 -0.5802  1.5175
   71MOL   H15026890   7.113   3.493   1.485  2.1515  1.4575  1.3299
   71MOL   H15126891   7.089   3.692   1.649  1.4689  0.0263  0.2582
   71MOL   H15226892   7.166   3.846   1.636  1.0465  0.3950 -0.9812
   71MOL   H15326893   7.029   3.815   1.534  0.9612  0.3065 -1.9855
   71MOL   C15426894   7.664   3.790   1.534 -0.3236  0.2359  0.5633
   71MOL   C15526895   7.811   3.748   1.573 -0.4222 -0.4329  0.0842
   71MOL   O15626896   7.801   3.604   1.587 -0.6953  0.3644 -0.1092
   71MOL   C15726897   0.074   3.543   1.675  0.3294  0.3074  0.0014
   71MOL   C15826898   0.029   3.392   1.689  0.7730  0.1255 -0.1582
   71MOL   C15926899   7.720   3.367   1.751 -1.4238  0.1485  0.2104
   71MOL   C16026900   0.053   3.325   1.546  0.2018  0.0375 -0.0579
   71MOL   H16126901   7.661   3.899   1.533 -0.0618  0.2468 -1.0033
   71MOL   H16226902   7.625   3.765   1.435 -0.7466  1.2780  0.4621
   71MOL   H16326903   0.023   3.780   1.671  1.3463 -2.7544  0.2186
   71MOL   H16426904   0.076   3.587   1.775 -2.7079 -0.6954  0.5706
   71MOL   H16526905   0.170   3.549   1.624  0.0140 -1.6402 -0.8596
   71MOL   H16626906   0.093   3.360   1.772  0.6678  1.3016  0.3965
   71MOL   H16726907   7.724   3.408   1.852  1.9140  0.4945 -0.0116
   71MOL   H16826908   7.705   3.260   1.771 -0.1734  0.1030  0.9564
   71MOL   H16926909   7.641   3.422   1.700 -1.2530 -0.6147 -0.8857
   71MOL   H17026910   7.801   3.346   1.472 -2.0845  1.6898  2.6498
   71MOL   H17126911   0.153   3.353   1.512 -0.3734  0.9322 -1.0221
   71MOL   H17226912   0.056   3.218   1.562 -0.2567  0.0130 -0.1381
   71MOL   C17326913   0.091   3.788   1.469 -0.0608 -0.4316  0.1834
   71MOL   C17426914   0.072   3.753   1.324  0.2084  0.4682 -0.3240
   71MOL   O17526915   0.161   3.825   1.244 -0.4358 -1.0481  0.0665
   71MOL   C17626916   0.304   3.804   1.264 -0.3233  0.1794  0.3356
   71MOL   C17726917   0.389   3.858   1.153  0.1031  0.1958  0.1864
   71MOL   C17826918   0.539   3.862   1.189  0.3314 -0.4018 -0.0899
   71MOL   C17926919   0.350   3.781   1.024 -0.5516 -0.4331  0.1607
   71MOL   H18026920   0.099   3.896   1.478  1.6183 -0.5225 -0.0460
   71MOL   H18126921   0.189   3.754   1.503 -0.4070 -0.1200  1.5318
   71MOL   H18226922   7.799   3.802   1.314 -0.4224 -0.7740 -0.3167
   71MOL   H18326923   0.328   3.699   1.282 -2.1793 -0.2307  0.5464
   71MOL   H18426924   0.328   3.860   1.354  0.6952  0.9948 -0.4448
   71MOL   H18526925   0.358   3.961   1.134 -2.1272 -0.1569  1.7380
   71MOL   H18626926   0.546   3.947   1.257  0.1156  1.4353 -2.2979
   71MOL   H18726927   0.560   3.771   1.245  0.3460  0.4576  1.3241
   71MOL   H18826928   0.609   3.869   1.107  2.5969 -0.2425  1.7982
   71MOL   H18926929   0.247   3.800   0.994 -0.6146 -1.3314 -0.2037
   71MOL   H19026930   0.378   3.677   1.037  1.0637  0.3153  3.0609
   71MOL   H19126931   0.414   3.818   0.945 -0.4591  0.7774  0.7898
   71MOL   C19226932   0.059   3.602   1.299 -0.3022  0.4149 -0.6340
   71MOL   C19326933   0.045   3.551   1.154 -0.7639 -0.1570 -0.3974
   71MOL   O19426934   7.731   3.557   1.125 -0.0626  0.2210 -0.0194
   71MOL   C19526935   7.690   3.668   1.052  0.0160  0.2580  0.8140
   71MOL   C19626936   7.545   3.634   0.997  0.2657 -0.2637 -0.9568
   71MOL   C19726937   7.444   3.609   1.116  0.0069 -0.2440 -0.8702
   71MOL   C19826938   7.548   3.523   0.889 -0.2936 -0.2061  0.0900
   71MOL   H19926939   7.801   3.564   1.359  0.3892 -1.1291 -0.6357
   71MOL   H20026940   0.144   3.552   1.345  0.5704  1.3126 -1.2665
   71MOL   H20126941   0.092   3.629   1.095 -0.2407  1.1804  1.7365
   71MOL   H20226942   7.762   3.688   0.974 -3.1051  0.1826 -2.2127
   71MOL   H20326943   7.679   3.755   1.118 -0.5625  2.0480 -1.5608
   71MOL   H20426944   7.506   3.726   0.953 -1.3615 -0.5576 -0.1457
   71MOL   H20526945   7.349   3.608   1.062 -0.9883 -0.5379  0.8603
   71MOL   H20626946   7.456   3.520   1.179  1.4911  0.9600  0.6026
   71MOL   H20726947   7.463   3.686   1.190 -0.0882 -0.5951 -0.4778
   71MOL   H20826948   7.454   3.501   0.839 -1.4965  0.5353  1.9629
   71MOL   H20926949   7.609   3.553   0.804  1.8808  1.9427  2.2858
   71MOL   H21026950   7.593   3.431   0.924  0.9555  0.7480  1.0456
   71MOL   C21126951   0.097   3.406   1.146  0.6666  0.2394 -0.4957
   71MOL   C21226952   0.085   3.350   1.002 -0.6580 -0.5305 -0.1609
   71MOL   O21326953   0.168   3.435   0.920 -0.1079  0.1480 -0.2203
   71MOL   C21426954   0.136   3.436   0.779  0.5615 -0.2897  0.2846
   71MOL   C21526955   0.216   3.559   0.716 -0.0468 -0.4688  0.5689
   71MOL   C21626956   0.255   3.536   0.572 -0.7770  0.3018 -0.0841
   71MOL   C21726957   0.144   3.683   0.750 -0.5022 -0.2652 -0.7317
   71MOL   H21826958   0.049   3.333   1.211  0.7073  0.1556 -0.5589
   71MOL   H21926959   0.201   3.405   1.180 -0.3699 -0.9863  2.8309
   71MOL   H22026960   7.810   3.363   0.960 -0.5298  0.3410 -0.2060
   71MOL   H22126961   0.030   3.444   0.756  0.8468 -1.2299 -1.3941
   71MOL   H22226962   0.161   3.346   0.723 -0.4738  1.3867 -3.0274
   71MOL   H22326963   0.304   3.551   0.781  0.1119 -1.7952  0.2110
   71MOL   H22426964   0.327   3.617   0.561  1.3141 -1.6302 -1.0121
   71MOL   H22526965   0.308   3.445   0.546  0.0295  0.7508 -0.0427
   71MOL   H22626966   0.176   3.538   0.497 -0.9981  0.7941  0.1567
   71MOL   H22726967   0.056   3.703   0.688 -2.2737 -1.7505  1.2113
   71MOL   H22826968   0.226   3.751   0.729 -0.5531 -0.7806 -2.7192
   71MOL   H22926969   0.116   3.694   0.854  1.1020  0.1198 -0.3316
   71MOL   C23026970   0.126   3.204   0.983  0.3616  0.2598  0.5802
   71MOL   C23126971   0.270   3.148   0.997 -0.5140  0.0928 -0.2194
   71MOL   O23226972   0.257   3.012   1.008 -0.2140  0.2375 -0.4441
   71MOL   C23326973   0.296   2.948   1.136  0.3065  0.4094 -0.1103
   71MOL   C23426974   0.247   2.805   1.144  0.5297  0.0426 -0.1801
   71MOL   C23526975   0.311   2.714   1.027 -0.1364 -0.8437  0.1037
   71MOL   C23626976   0.274   2.755   1.294 -0.5439 -0.7692 -0.5808
   71MOL   H23726977   0.083   3.174   0.887 -0.6083  1.8803  0.4992
   71MOL   H23826978   0.058   3.142   1.043  0.9908  0.4928  1.5508
   71MOL   H23926979   0.308   3.200   1.085  0.8922 -0.3863 -0.5236
   71MOL   H24026980   0.404   2.950   1.149  0.3237 -2.3409  0.4731
   71MOL   H24126981   0.254   3.011   1.215 -0.1248  0.0052 -0.0149
   71MOL   H24226982   0.139   2.813   1.136  0.4992  1.5165  1.3209
   71MOL   H24326983   0.268   2.614   1.028 -2.8616  0.2543 -0.2609
   71MOL   H24426984   0.417   2.698   1.046  0.2770 -1.9740 -2.8944
   71MOL   H24526985   0.312   2.766   0.931  0.9040  0.5991  0.8792
   71MOL   H24626986   0.230   2.659   1.324 -0.5536 -0.4784  0.3494
   71MOL   H24726987   0.382   2.747   1.306 -0.5447  2.4762  2.3223
   71MOL   H24826988   0.228   2.822   1.367  0.9037  0.5254 -0.8557
   71MOL   C24926989   0.349   3.180   0.871  0.2012 -0.2003  0.0173
   71MOL   C25026990   0.492   3.120   0.875 -0.2741 -0.4869 -0.0346
   71MOL   O25126991   0.534   3.133   0.737  0.2572 -0.1836 -0.7405
   71MOL   C25226992   0.519   3.028   0.645 -0.1982 -0.2544 -0.2870
   71MOL   C25326993   0.574   3.064   0.498 -0.0366 -0.2902 -0.2664
   71MOL   C25426994   0.490   3.176   0.448 -0.7421  0.9680  0.3707
   71MOL   C25526995   0.568   2.948   0.395 -0.7035  0.0382  0.9480
   71MOL   H25626996   0.350   3.289   0.869 -1.9833 -0.1456  0.9967
   71MOL   H25726997   0.298   3.138   0.785  1.0149 -0.4107 -0.3707
   71MOL   H25826998   0.490   3.019   0.915  0.0123 -1.3433 -2.1392
   71MOL   H25926999   0.566   2.937   0.681  0.1848  0.6722  1.6099
   71MOL   H26027000   0.415   2.997   0.632 -0.2947  0.6509 -1.7195
   71MOL   H26127001   0.679   3.089   0.515 -0.2657  0.5531 -0.0711
   71MOL   H26227002   0.535   3.236   0.369  1.4735 -1.0333  0.0788
   71MOL   H26327003   0.476   3.253   0.524 -0.0373  0.1783  1.3164
   71MOL   H26427004   0.392   3.139   0.418  0.1602 -0.4100 -0.8945
   71MOL   H26527005   0.607   2.857   0.441  1.0787  0.5987  0.5933
   71MOL   H26627006   0.467   2.922   0.363 -0.7808  0.4115  0.8853
   71MOL   H26727007   0.629   2.956   0.305 -2.0974 -1.5519 -0.1741
   71MOL   C26827008   0.594   3.196   0.960 -0.0581  0.3666  0.5978
   71MOL   C26927009   0.729   3.116   0.968 -0.2481  0.1300 -0.0526
   71MOL   O27027010   0.700   3.013   1.062 -0.0482 -0.0912 -0.4687
   71MOL   C27127011   0.776   2.892   1.047  0.2411  0.0972 -0.0330
   71MOL   C27227012   0.804   2.811   1.169  0.0527 -0.0087  0.2694
   71MOL   C27327013   0.933   2.853   1.244 -0.3864  0.1748 -0.9243
   71MOL   C27427014   0.692   2.792   1.265 -0.0325  0.7615 -0.1732
   71MOL   H27527015   0.554   3.217   1.060 -2.1503  1.6283 -0.4786
   71MOL   H27627016   0.605   3.291   0.908 -0.1186  0.5947  0.9940
   71MOL   H27727017   0.747   3.076   0.868 -0.7086 -0.0735 -0.0587
   71MOL   H27827018   0.705   2.844   0.980 -0.1745 -0.7268  0.9865
   71MOL   H27927019   0.868   2.926   0.999 -0.3635  0.3790 -1.0086
   71MOL   H28027020   0.827   2.712   1.128 -0.2247  0.3943 -0.8602
   71MOL   H28127021   0.956   2.782   1.324  0.4321  1.9433  0.4519
   71MOL   H28227022   0.905   2.943   1.298 -2.0294 -0.1219 -1.2435
   71MOL   H28327023   1.012   2.878   1.174  0.3939  0.0158 -0.1172
   71MOL   H28427024   0.710   2.714   1.339 -0.8865 -1.5139 -2.2795
   71MOL   H28527025   0.612   2.750   1.203  0.2033 -2.2548  1.4527
   71MOL   H28627026   0.665   2.887   1.310  0.0143  1.2809 -1.2525
   71MOL   C28727027   0.851   3.193   1.016 -0.5963  0.0453  0.2862
   71MOL   C28827028   0.965   3.188   0.911  0.2183 -0.4095  0.0146
   71MOL   O28927029   1.084   3.239   0.976 -0.0785  0.5105  0.1280
   71MOL   C29027030   1.160   3.146   1.058 -0.0511 -0.0286  0.2114
   71MOL   C29127031   1.291   3.201   1.090 -0.2343  0.2010  0.2012
   71MOL   C29227032   1.269   3.312   1.192  0.7057  0.4193 -0.5121
   71MOL   C29327033   1.352   3.255   0.964  0.5305  0.4005  0.0305
   71MOL   H29427034   0.884   3.149   1.110 -0.0115 -0.3025 -0.0840
   71MOL   H29527035   0.824   3.295   1.045  1.2063  0.0408  2.1245
   71MOL   H29627036   0.998   3.087   0.887 -0.9602 -0.7925 -0.0184
   71MOL   H29727037   1.105   3.116   1.148  0.2596 -2.2996 -0.3108
   71MOL   H29827038   1.178   3.059   0.995 -0.9318 -0.5159  0.6151
   71MOL   H29927039   1.351   3.123   1.136 -0.7402 -0.1104  0.3361
   71MOL   H30027040   1.183   3.372   1.165 -1.7626 -1.5809  2.4565
   71MOL   H30127041   1.351   3.381   1.211 -0.7502  2.3084 -0.9824
   71MOL   H30227042   1.226   3.257   1.276 -1.1326  0.9589 -1.0824
   71MOL   H30327043   1.453   3.291   0.984  0.6596  0.5807 -0.9123
   71MOL   H30427044   1.369   3.174   0.892 -0.0692  0.7891 -0.5493
   71MOL   H30527045   1.296   3.335   0.917  0.7418  0.6634  0.2227
   71MOL   C30627046   0.940   3.271   0.778  0.5256 -0.1137 -0.3048
   71MOL   C30727047   1.035   3.252   0.663 -0.2586  0.1331 -0.9664
   71MOL   O30827048   0.999   3.127   0.604 -0.1649  0.2871 -0.0494
   71MOL   C30927049   1.106   3.033   0.619 -0.1483  0.1586  0.6106
   71MOL   C31027050   1.044   2.897   0.582 -1.0972 -0.0834 -0.0271
   71MOL   C31127051   0.993   2.891   0.439 -0.1366 -0.1635  0.1413
   71MOL   C31227052   0.937   2.837   0.683  0.2970 -0.4630 -0.2525
   71MOL   H31327053   0.930   3.374   0.812 -1.9170 -1.3817  3.0952
   71MOL   H31427054   0.841   3.244   0.741  0.0754  0.5998  0.3540
   71MOL   H31527055   1.129   3.238   0.716 -1.8596  0.3063  2.0551
   71MOL   H31627056   1.150   3.024   0.719 -2.4610  2.7469  1.9124
   71MOL   H31727057   1.183   3.068   0.550 -2.5031  2.5741 -0.8977
   71MOL   H31827058   1.130   2.830   0.586 -0.7975  0.3730  1.3589
   71MOL   H31927059   0.996   2.790   0.397 -2.1805 -0.0265 -0.4030
   71MOL   H32027060   1.051   2.954   0.372  1.5591 -2.0351 -0.2067
   71MOL   H32127061   0.886   2.909   0.432 -0.3715 -0.6698  2.2392
   71MOL   H32227062   0.985   2.836   0.781  0.5563  0.7654 -0.3685
   71MOL   H32327063   0.907   2.734   0.662 -1.7159 -0.0843  0.5993
   71MOL   H32427064   0.859   2.913   0.689 -0.9124 -1.6565 -0.3866
   71MOL   C32527065   1.033   3.381   0.576 -0.1872 -0.0700  0.1775
   71MOL   C32627066   0.897   3.408   0.512  0.5213 -0.2139 -0.1014
   71MOL   O32727067   0.823   3.499   0.597  1.0479  0.4321 -0.4653
   71MOL   C32827068   0.688   3.462   0.605  0.1988 -1.1167 -0.4537
   71MOL   C32927069   0.612   3.585   0.659  0.0984  0.5667 -0.2465
   71MOL   C33027070   0.675   3.627   0.795  0.9818  0.6872 -0.4804
   71MOL   C33127071   0.602   3.699   0.564 -0.4222 -0.0251 -0.1238
   71MOL   H33227072   1.112   3.366   0.503  2.3124 -0.8540  2.9102
   71MOL   H33327073   1.077   3.467   0.628  2.0413 -0.7562 -0.5196
   71MOL   H33427074   0.848   3.314   0.487 -1.1324  0.2357  1.3101
   71MOL   H33527075   0.653   3.448   0.503  0.5980  0.5281 -0.8388
   71MOL   H33627076   0.679   3.376   0.671 -0.3895 -0.3996  0.4163
   71MOL   H33727077   0.516   3.541   0.686  0.4260  0.6826  1.1852
   71MOL   H33827078   0.763   3.689   0.780  1.6881  0.1924  1.4861
   71MOL   H33927079   0.598   3.679   0.852 -0.9915 -2.5566 -0.0586
   71MOL   H34027080   0.701   3.535   0.847  1.0966  1.1878  0.3434
   71MOL   H34127081   0.541   3.686   0.475  0.1010 -0.6917 -0.3909
   71MOL   H34227082   0.580   3.793   0.615  1.5754  0.4671 -0.0861
   71MOL   H34327083   0.699   3.729   0.521 -0.0115  0.8696  1.3866
   71MOL   C34427084   0.910   3.479   0.377 -0.0136 -0.3501  0.3558
   71MOL   C34527085   0.790   3.496   0.277 -0.5982 -0.0427  0.2715
   71MOL   O34627086   0.824   3.589   0.166 -0.7560  0.5866 -0.2659
   71MOL   C34727087   0.810   3.728   0.187  0.2314 -0.2386 -0.0140
   71MOL   C34827088   0.843   3.806   0.064  0.3216  0.4768 -0.3069
   71MOL   C34927089   0.974   3.764   0.002 -0.6689  0.2341 -0.7886
   71MOL   C35027090   0.837   3.953   0.086 -0.7008  0.0328  0.1843
   71MOL   H35127091   0.992   3.436   0.320  1.0272 -0.8023  2.1348
   71MOL   H35227092   0.946   3.580   0.401  0.1620 -0.6656  1.4759
   71MOL   H35327093   0.704   3.538   0.329  0.0684  1.7344 -0.0061
   71MOL   H35427094   0.865   3.766   0.273 -3.8210  0.5661  2.3680
   71MOL   H35527095   0.713   3.761   0.224 -0.5770  0.6421 -2.8090
   71MOL   H35627096   0.765   3.787   7.815  1.0142 -0.4591 -0.8055
   71MOL   H35727097   1.063   3.771   0.064 -1.4546 -0.6554  0.4921
   71MOL   H35827098   0.996   3.818   7.735 -1.2725  1.5648 -0.1646
   71MOL   H35927099   0.971   3.659   7.796  0.4478  0.0520 -0.2701
   71MOL   H36027100   0.914   3.986   0.156  0.3287  0.2867 -1.0645
   71MOL   H36127101   0.840   4.012   7.819 -0.2088  0.6958  0.6248
   71MOL   H36227102   0.741   3.976   0.131  0.2989 -0.8780  2.9101
   71MOL   C36327103   0.745   3.366   0.208  0.0879  0.4121 -0.0678
   71MOL   C36427104   0.612   3.386   0.121 -0.3583 -1.0961 -0.5199
   71MOL   O36527105   0.576   3.258   0.067 -0.3082  0.0964  0.1620
   71MOL   C36627106   0.461   3.262   7.813  0.3060 -0.6162 -0.3293
   71MOL   C36727107   0.428   3.124   7.761 -0.5138  0.3089 -0.1136
   71MOL   C36827108   0.385   3.028   0.040 -0.1500 -0.3483 -0.5216
   71MOL   C36927109   0.544   3.075   7.671 -0.2966  0.4540 -0.5677
   71MOL   H37027110   0.824   3.325   0.146 -0.6588  0.0495 -0.7969
   71MOL   H37127111   0.718   3.297   0.288 -0.6796 -0.8459 -1.3991
   71MOL   H37227112   0.621   3.460   0.042 -1.0258 -0.9187 -0.4332
   71MOL   H37327113   0.378   3.300   0.048  0.7368  0.7811 -0.5935
   71MOL   H37427114   0.488   3.325   7.728  0.3624 -0.2046 -0.0063
   71MOL   H37527115   0.343   3.147   7.697 -0.6618 -0.4694 -0.2009
   71MOL   H37627116   0.366   2.938   7.806  0.0007 -0.5276 -0.2932
   71MOL   H37727117   0.294   3.070   0.083  0.0367  0.0309 -0.4923
   71MOL   H37827118   0.456   3.010   0.120 -0.5385 -4.3316 -0.9584
   71MOL   H37927119   0.629   3.034   7.725  0.0477  1.0459 -0.6559
   71MOL   H38027120   0.589   3.154   7.611  1.9114  0.1115  0.5751
   71MOL   H38127121   0.509   2.993   7.608  1.0533 -2.4828  2.3763
   71MOL   H38227122   0.531   3.409   0.190  0.0809  0.8724 -0.6302
   72MOL     C127123   4.193   1.583   3.175  0.4348  0.9883  0.0404
   72MOL     C227124   4.202   1.697   3.074  0.0499 -0.8327  0.0947
   72MOL     O327125   4.315   1.671   2.995  0.6847 -0.6358 -0.4128
   72MOL     C427126   4.417   1.771   2.981 -0.3583  0.2340 -0.0370
   72MOL     C527127   4.548   1.708   2.936  0.2407 -0.0539  0.5135
   72MOL     C627128   4.546   1.626   2.804 -0.1548  0.2223 -0.2631
   72MOL     C727129   4.600   1.630   3.057  0.1983  0.3406  0.0933
   72MOL     H827130   4.261   1.573   3.260 -1.2833  1.3314  1.4915
   72MOL     H927131   4.101   1.591   3.233 -0.3801  3.9461 -1.5949
   72MOL    H1027132   4.205   1.794   3.123  2.6068 -0.2918 -1.0625
   72MOL    H1127133   4.428   1.830   3.071  2.2317  1.8049 -1.3195
   72MOL    H1227134   4.381   1.836   2.901  0.9487  1.0197  0.0041
   72MOL    H1327135   4.610   1.796   2.915 -2.2658  1.6379  0.0292
   72MOL    H1427136   4.514   1.693   2.724 -1.4471  1.1462  1.0213
   72MOL    H1527137   4.644   1.584   2.780 -0.5120 -1.5855  1.2927
   72MOL    H1627138   4.477   1.542   2.809 -0.1032  0.2112  0.2380
   72MOL    H1727139   4.708   1.616   3.055  0.0960 -0.5731  0.6342
   72MOL    H1827140   4.573   1.692   3.143 -0.5622  1.7092 -1.1102
   72MOL    H1927141   4.545   1.536   3.056  2.4696 -1.0296  0.8540
   72MOL    H2027142   4.195   1.483   3.132  1.5547  0.3354  1.5559
   72MOL    C2127143   4.075   1.682   2.990 -0.2947 -1.1809  0.5225
   72MOL    C2227144   4.043   1.796   2.889 -0.1831 -0.4044  0.6828
   72MOL    O2327145   3.938   1.781   2.794  0.6368 -0.4717 -0.2181
   72MOL    C2427146   3.936   1.663   2.707  0.5469  0.0844  0.5715
   72MOL    C2527147   3.810   1.659   2.622 -0.5532  0.8306  0.3642
   72MOL    C2627148   3.804   1.777   2.526 -0.6739  0.2980 -0.1011
   72MOL    C2727149   3.805   1.524   2.539  0.1944 -0.7199 -0.2766
   72MOL    H2827150   4.084   1.582   2.948 -0.3182 -1.6502  1.6446
   72MOL    H2927151   3.992   1.662   3.057  0.5586 -1.4195  1.5111
   72MOL    H3027152   4.132   1.805   2.828 -0.8945 -0.5344 -0.3959
   72MOL    H3127153   3.946   1.569   2.762 -1.0892  0.0507  0.8563
   72MOL    H3227154   4.029   1.666   2.651 -0.8176 -1.0402 -1.8341
   72MOL    H3327155   3.731   1.660   2.697 -1.9079 -0.9863 -0.9825
   72MOL    H3427156   3.701   1.782   2.489 -1.2023 -2.3123  0.8900
   72MOL    H3527157   3.871   1.765   2.441 -1.5715 -1.9212 -0.5448
   72MOL    H3627158   3.818   1.876   2.570 -1.2718  0.1487  0.4360
   72MOL    H3727159   3.883   1.536   2.465  1.5443  1.4954  1.4646
   72MOL    H3827160   3.811   1.428   2.592 -1.2231 -0.9940 -0.5883
   72MOL    H3927161   3.713   1.527   2.480 -0.5915 -0.5494  0.9295
   72MOL    C4027162   4.020   1.936   2.949 -0.1527 -0.0571 -0.3588
   72MOL    C4127163   3.879   1.968   2.996 -0.2915 -0.2383  0.2832
   72MOL    O4227164   3.882   2.099   3.054 -0.1367  0.6537 -0.0124
   72MOL    C4327165   3.802   2.195   2.975  0.0312  0.1278 -0.4557
   72MOL    C4427166   3.817   2.346   3.031  0.6755 -0.1225 -0.6224
   72MOL    C4527167   3.743   2.440   2.943 -0.2929  0.3950 -0.1177
   72MOL    C4627168   3.762   2.362   3.173 -0.3201 -0.4026 -0.2519
   72MOL    H4727169   4.045   2.021   2.885  0.3004 -0.8853 -1.2809
   72MOL    H4827170   4.087   1.951   3.034 -1.9449 -0.1701  1.1159
   72MOL    H4927171   3.809   1.945   2.915  2.4534 -2.0301 -1.6514
   72MOL    H5027172   3.699   2.162   2.991  0.3106 -0.3330  0.4298
   72MOL    H5127173   3.812   2.183   2.867 -1.6135 -2.1248 -0.4081
   72MOL    H5227174   3.923   2.372   3.030  0.3379  1.2712 -2.1698
   72MOL    H5327175   3.637   2.417   2.948 -0.3382  0.3140 -1.1810
   72MOL    H5427176   3.753   2.542   2.979  0.2776 -0.1780  1.3636
   72MOL    H5527177   3.767   2.424   2.838 -0.5018 -1.6193  0.1226
   72MOL    H5627178   3.782   2.462   3.210  0.2417  0.2758 -2.3594
   72MOL    H5727179   3.816   2.302   3.246 -1.1266  1.4062  1.9029
   72MOL    H5827180   3.656   2.335   3.173 -0.7269  1.1682  0.2171
   72MOL    C5927181   3.821   1.881   3.118 -0.2339 -0.5216 -0.1670
   72MOL    C6027182   3.723   1.773   3.069 -0.6972  0.5314  0.1337
   72MOL    O6127183   3.603   1.846   3.026 -0.1755  0.1126 -0.2214
   72MOL    C6227184   3.566   1.814   2.895  0.2240  0.6851 -0.1254
   72MOL    C6327185   3.458   1.911   2.857  1.1505 -0.0627 -0.9756
   72MOL    C6427186   3.405   1.879   2.715  0.3025  0.6366  0.1118
   72MOL    C6527187   3.332   1.919   2.956 -0.4655  0.2960  0.5347
   72MOL    H6627188   3.747   1.947   3.162 -0.6806 -0.3899 -1.0904
   72MOL    H6727189   3.886   1.838   3.194  1.1663  2.2651  0.2735
   72MOL    H6827190   3.758   1.706   2.990  1.0991  2.3420 -0.6724
   72MOL    H6927191   3.646   1.822   2.822  0.0035 -2.4246 -0.8020
   72MOL    H7027192   3.522   1.715   2.878 -0.5966  1.0149  0.0167
   72MOL    H7127193   3.496   2.013   2.850 -0.3827  0.4769 -1.7276
   72MOL    H7227194   3.373   1.774   2.713 -0.5980  0.8998  0.3645
   72MOL    H7327195   3.482   1.904   2.643 -0.9805  2.8771 -0.5408
   72MOL    H7427196   3.320   1.941   2.689  1.8309  2.4570 -0.6417
   72MOL    H7527197   3.276   1.826   2.947 -0.1374  0.1525 -0.0351
   72MOL    H7627198   3.368   1.934   3.058 -1.3971  1.9974  0.6380
   72MOL    H7727199   3.265   2.004   2.943  1.3133  1.6732  0.1268
   72MOL    C7827200   3.678   1.682   3.179 -0.6367 -0.4709 -0.6461
   72MOL    C7927201   3.596   1.558   3.144 -0.4938  0.0878 -0.0699
   72MOL    O8027202   3.693   1.465   3.111  0.1858  0.8761  0.0062
   72MOL    C8127203   3.712   1.410   2.978  0.0302  0.1299 -0.6723
   72MOL    C8227204   3.793   1.284   3.010  0.3958  0.1610 -0.4005
   72MOL    C8327205   3.935   1.327   3.012 -0.2949  0.1229  0.1569
   72MOL    C8427206   3.767   1.186   2.903 -0.0208  0.0024 -0.5322
   72MOL    H8527207   3.618   1.743   3.247 -0.2863  0.2630 -0.9944
   72MOL    H8627208   3.773   1.653   3.224 -0.5049 -0.4616 -0.9145
   72MOL    H8727209   3.529   1.582   3.062  0.7828  1.6740 -0.6761
   72MOL    H8827210   3.612   1.395   2.937 -0.2392  0.8070 -0.2704
   72MOL    H8927211   3.761   1.481   2.911  0.3968  0.6680  0.1622
   72MOL    H9027212   3.762   1.237   3.103 -2.1444 -1.4077 -1.9676
   72MOL    H9127213   3.958   1.380   3.104  1.8008 -1.0099  0.3216
   72MOL    H9227214   3.975   1.390   2.932  2.5030 -2.2501 -0.4311
   72MOL    H9327215   4.001   1.240   3.015  2.6653  2.2219 -1.5524
   72MOL    H9427216   3.809   1.087   2.918  0.3916  0.3535  0.6535
   72MOL    H9527217   3.794   1.230   2.806 -0.5230  0.0236 -0.6632
   72MOL    H9627218   3.660   1.166   2.900  0.2740 -1.8039  0.5787
   72MOL    C9727219   3.520   1.509   3.267  0.8445  0.2023 -0.1776
   72MOL    C9827220   3.434   1.385   3.241  0.6261  0.8765  0.4981
   72MOL    O9927221   3.317   1.422   3.163 -0.2935  0.0699 -0.2336
   72MOL   C10027222   3.305   1.363   3.037  0.7735  0.0962  0.2450
   72MOL   C10127223   3.164   1.395   2.995  0.2739 -0.3873  0.2148
   72MOL   C10227224   3.063   1.337   3.093 -0.0362  0.0602 -0.3588
   72MOL   C10327225   3.145   1.543   2.972  0.3108 -0.7455 -0.1699
   72MOL   H10427226   3.457   1.590   3.303  0.5831  1.1127 -2.5495
   72MOL   H10527227   3.597   1.486   3.340  1.3499  0.2488 -0.6953
   72MOL   H10627228   3.490   1.304   3.193 -1.5461 -1.5816  1.9750
   72MOL   H10727229   3.312   1.255   3.048 -1.9060  0.0051  1.6167
   72MOL   H10827230   3.384   1.391   2.967  0.8510  0.3032  0.4123
   72MOL   H10927231   3.155   1.342   2.900  2.8357 -0.4501 -0.0334
   72MOL   H11027232   3.068   1.380   3.194 -2.6205 -0.0437 -0.1689
   72MOL   H11127233   2.965   1.353   3.050 -0.7101 -0.7432  0.8519
   72MOL   H11227234   3.082   1.231   3.110 -0.3981  0.0373 -0.0915
   72MOL   H11327235   3.195   1.570   2.879 -0.1405  2.8459  0.5535
   72MOL   H11427236   3.041   1.577   2.961  1.4699  2.4691 -1.8126
   72MOL   H11527237   3.186   1.600   3.055 -0.7663  0.0110 -0.1413
   72MOL   C11627238   3.380   1.336   3.371 -0.5096  0.7264  0.0046
   72MOL   C11727239   3.287   1.213   3.368  0.4294 -0.2798 -0.8801
   72MOL   O11827240   3.361   1.101   3.319  0.4303 -0.1057  0.4262
   72MOL   C11927241   3.293   1.014   3.228 -0.4152  0.0525 -0.0232
   72MOL   C12027242   3.407   0.924   3.174  0.6816 -0.3336  0.3031
   72MOL   C12127243   3.347   0.806   3.098 -0.7788 -0.4323 -0.4273
   72MOL   C12227244   3.500   1.004   3.087 -0.5095  0.1361  0.2540
   72MOL   H12327245   3.471   1.314   3.427  0.5903  0.4469 -1.8580
   72MOL   H12427246   3.333   1.422   3.419 -3.6587 -0.5811 -0.6116
   72MOL   H12527247   3.195   1.239   3.315 -0.4529 -1.6085 -0.0145
   72MOL   H12627248   3.232   1.072   3.159  1.1948  0.0363 -1.4957
   72MOL   H12727249   3.230   0.953   3.293 -0.0596 -0.7908 -0.4629
   72MOL   H12827250   3.462   0.886   3.260  0.7249  1.3425  1.0314
   72MOL   H12927251   3.272   0.762   3.165  1.2055 -2.2678  0.6306
   72MOL   H13027252   3.428   0.737   3.075  0.6941  0.4263  2.0531
   72MOL   H13127253   3.300   0.833   3.004 -0.3750  2.6557  0.2045
   72MOL   H13227254   3.574   0.947   3.030  1.0478  1.9000  0.4962
   72MOL   H13327255   3.453   1.062   3.008  4.1209 -0.1181 -2.8643
   72MOL   H13427256   3.567   1.066   3.147 -0.3702  0.4149 -0.1861
   72MOL   C13527257   3.232   1.180   3.507  1.3817 -0.5262 -0.6021
   72MOL   C13627258   3.129   1.275   3.572 -0.3300  0.1288  0.4428
   72MOL   O13727259   3.010   1.268   3.501 -0.4770 -0.6472  0.0715
   72MOL   C13827260   2.928   1.383   3.480 -0.0227 -0.1407 -0.2744
   72MOL   C13927261   2.781   1.361   3.443  0.0567 -0.1938 -0.3188
   72MOL   C14027262   2.698   1.490   3.435  0.1355  0.2473  0.0810
   72MOL   C14127263   2.762   1.283   3.310  0.6084 -0.2215 -1.0776
   72MOL   H14227264   3.176   1.087   3.497 -0.7401  0.5666  0.8528
   72MOL   H14327265   3.309   1.151   3.579 -0.3855  1.4622  2.1938
   72MOL   H14427266   3.158   1.380   3.558  0.9254 -0.2407  0.1982
   72MOL   H14527267   2.972   1.447   3.404 -2.7058  1.7730 -0.2756
   72MOL   H14627268   2.917   1.435   3.575  0.3985 -0.2704 -0.1545
   72MOL   H14727269   2.737   1.301   3.522 -1.0470 -1.8576 -2.1595
   72MOL   H14827270   2.744   1.555   3.361  1.5728  1.7499  2.2380
   72MOL   H14927271   2.698   1.539   3.532 -1.5440  0.5942 -0.0737
   72MOL   H15027272   2.596   1.461   3.411 -0.0576  0.1369  1.0395
   72MOL   H15127273   2.844   1.213   3.298  1.0093  0.0690 -0.0705
   72MOL   H15227274   2.662   1.243   3.298  0.3249 -0.3026  1.2871
   72MOL   H15327275   2.779   1.363   3.238 -1.4910  0.0505 -1.2858
   72MOL   C15427276   3.108   1.262   3.721 -0.2154 -0.3047 -0.1940
   72MOL   C15527277   3.233   1.293   3.806  0.6577 -0.1941 -0.0063
   72MOL   O15627278   3.294   1.400   3.739 -0.3055  0.0101 -0.5493
   72MOL   C15727279   3.436   1.392   3.753  0.6446  0.2408 -0.9280
   72MOL   C15827280   3.481   1.527   3.687  0.4645  0.0055 -0.0055
   72MOL   C15927281   3.438   1.640   3.791 -0.0453 -0.5560  0.3206
   72MOL   C16027282   3.635   1.521   3.660  0.2043  0.2643 -0.7328
   72MOL   H16127283   3.071   1.160   3.734  0.4619 -0.3592  1.5210
   72MOL   H16227284   3.040   1.339   3.758 -0.5927 -1.3946  1.4804
   72MOL   H16327285   3.301   1.207   3.803  0.0398 -0.6396 -1.6424
   72MOL   H16427286   3.482   1.313   3.693 -0.5543 -0.4267 -0.9942
   72MOL   H16527287   3.460   1.381   3.859 -0.9733  1.2196 -0.4409
   72MOL   H16627288   3.429   1.527   3.591  2.9098 -0.9128 -1.3605
   72MOL   H16727289   3.331   1.654   3.806 -0.0179 -0.2883  0.2581
   72MOL   H16827290   3.466   1.741   3.761  0.7870 -0.2804  1.9935
   72MOL   H16927291   3.482   1.620   3.889 -0.5382  1.6718  1.0150
   72MOL   H17027292   3.684   1.477   3.747  0.4959  1.1403 -0.4546
   72MOL   H17127293   3.643   1.448   3.579 -1.5704 -1.8393  0.9346
   72MOL   H17227294   3.692   1.605   3.621  0.8478  0.6140  0.9101
   72MOL   C17327295   3.200   1.324   3.958  0.2832 -0.1209 -0.3510
   72MOL   C17427296   3.131   1.207   4.028  0.2264  0.2286  0.3674
   72MOL   O17527297   3.228   1.103   4.006  0.2034  0.0248  0.1677
   72MOL   C17627298   3.182   0.971   4.010  0.6219  0.0017  0.2138
   72MOL   C17727299   3.304   0.873   3.990 -0.3690  0.1203  0.0004
   72MOL   C17827300   3.283   0.742   4.070  0.2175 -0.2260 -0.1161
   72MOL   C17927301   3.346   0.849   3.844 -0.4281 -0.9256 -0.3632
   72MOL   H18027302   3.291   1.349   4.011 -0.4826 -0.8688  1.3518
   72MOL   H18127303   3.132   1.410   3.963  1.7917  0.9864  1.7377
   72MOL   H18227304   3.038   1.190   3.974  0.0513 -0.5649  0.9144
   72MOL   H18327305   3.096   0.978   3.943 -0.0138  1.1903  1.1074
   72MOL   H18427306   3.143   0.954   4.111 -2.8080  1.3632 -0.7862
   72MOL   H18527307   3.386   0.927   4.037 -0.1110 -0.7048  0.5006
   72MOL   H18627308   3.200   0.688   4.024  2.2493 -3.7160  0.2273
   72MOL   H18727309   3.373   0.683   4.062  0.7095  0.4364  0.4858
   72MOL   H18827310   3.254   0.757   4.174  1.0336 -1.9623  0.3750
   72MOL   H18927311   3.436   0.787   3.855  1.7215  1.7697 -2.1222
   72MOL   H19027312   3.378   0.944   3.801  1.5412 -0.7334  1.3836
   72MOL   H19127313   3.279   0.792   3.781 -0.5907  0.2287 -1.2426
   72MOL   C19227314   3.104   1.229   4.183  0.3133 -0.0144 -0.3936
   72MOL   C19327315   2.998   1.330   4.217  0.5942 -0.1733 -0.2219
   72MOL   O19427316   3.017   1.368   4.358  0.2344 -0.2890 -0.5986
   72MOL   C19527317   3.112   1.468   4.390 -0.2207 -0.7828  0.5345
   72MOL   C19627318   3.145   1.446   4.539  0.0390  0.5940  0.0724
   72MOL   C19727319   3.134   1.575   4.618  0.5920 -0.6947 -0.5526
   72MOL   C19827320   3.288   1.395   4.568  0.2308  0.0660 -0.7624
   72MOL   H19927321   3.201   1.247   4.228  0.3941 -3.9300  1.1704
   72MOL   H20027322   3.078   1.133   4.227 -0.2418 -0.4877 -1.7139
   72MOL   H20127323   3.019   1.423   4.163 -1.1496  1.3296  1.5745
   72MOL   H20227324   3.089   1.570   4.361 -0.3151 -0.2010  2.5538
   72MOL   H20327325   3.203   1.441   4.336  0.2987  2.0055 -0.0426
   72MOL   H20427326   3.081   1.378   4.595  2.4748  0.5084  2.8681
   72MOL   H20527327   3.187   1.659   4.571 -0.6224 -0.3567 -1.3586
   72MOL   H20627328   3.030   1.609   4.627  0.7635 -0.5577  0.9234
   72MOL   H20727329   3.164   1.553   4.720  0.6582  2.0152  0.0712
   72MOL   H20827330   3.362   1.472   4.547  1.6930 -1.1128 -0.0840
   72MOL   H20927331   3.305   1.351   4.667 -1.8904  1.8641  0.4429
   72MOL   H21027332   3.324   1.321   4.496  1.5125 -0.3333  0.2675
   72MOL   C21127333   2.856   1.285   4.172 -0.4522  0.1591 -0.5841
   72MOL   C21227334   2.745   1.385   4.196  0.1341 -0.5746  0.9956
   72MOL   O21327335   2.765   1.492   4.103 -0.0031 -0.3040  0.3659
   72MOL   C21427336   2.720   1.618   4.160 -0.5094  0.0163 -0.5973
   72MOL   C21527337   2.741   1.740   4.066  0.0456 -0.7219  0.2888
   72MOL   C21627338   2.887   1.782   4.016 -0.5207 -0.3510  0.2898
   72MOL   C21727339   2.644   1.726   3.945 -0.1472  0.3067 -0.3584
   72MOL   H21827340   2.832   1.187   4.213 -1.2828 -0.2566 -2.0164
   72MOL   H21927341   2.854   1.265   4.065 -2.0890 -0.0415 -0.5374
   72MOL   H22027342   2.753   1.429   4.296  1.0198 -1.1832  1.1950
   72MOL   H22127343   2.784   1.641   4.246 -0.7006 -2.6610  0.3122
   72MOL   H22227344   2.617   1.603   4.193 -0.1882 -0.6223  0.1348
   72MOL   H22327345   2.706   1.830   4.118 -0.5962  0.4319 -2.0514
   72MOL   H22427346   2.901   1.869   3.952 -1.9116 -1.7407 -1.9913
   72MOL   H22527347   2.953   1.788   4.103 -1.2034  1.3820  0.7223
   72MOL   H22627348   2.934   1.705   3.955  0.8970 -0.8805  1.9978
   72MOL   H22727349   2.658   1.808   3.875 -0.0913 -0.3369 -1.1162
   72MOL   H22827350   2.541   1.712   3.977  0.0845  0.7795  0.6126
   72MOL   H22927351   2.666   1.632   3.893  0.3000 -1.4518  2.8858
   72MOL   C23027352   2.607   1.321   4.164  0.2322  0.0373 -0.1186
   72MOL   C23127353   2.548   1.227   4.265  0.1076  0.3971  0.5055
   72MOL   O23227354   2.551   1.280   4.396 -0.6736  0.6009 -0.3884
   72MOL   C23327355   2.651   1.224   4.487  0.5861 -0.7033  0.1650
   72MOL   C23427356   2.664   1.303   4.615  0.2896 -0.0565  1.5462
   72MOL   C23527357   2.764   1.420   4.606  0.7121  1.0279  0.4472
   72MOL   C23627358   2.534   1.357   4.671 -0.0528  0.1145 -0.8316
   72MOL   H23727359   2.614   1.273   4.067  1.1436  1.0493 -0.5638
   72MOL   H23827360   2.539   1.406   4.150  0.6492  0.2034 -1.2415
   72MOL   H23927361   2.614   1.140   4.270  1.3893  1.3224  0.1575
   72MOL   H24027362   2.615   1.125   4.514  0.8646 -0.8983 -0.1765
   72MOL   H24127363   2.752   1.213   4.447 -0.3376  3.4533 -3.6909
   72MOL   H24227364   2.712   1.239   4.689 -0.9236 -2.2810  0.4575
   72MOL   H24327365   2.856   1.382   4.562  0.0305 -0.4051  0.2171
   72MOL   H24427366   2.787   1.466   4.702  1.5658  1.5681 -0.0146
   72MOL   H24527367   2.728   1.496   4.537 -1.3398  1.3580  1.8304
   72MOL   H24627368   2.466   1.274   4.693  0.0032  0.1973 -0.3361
   72MOL   H24727369   2.543   1.413   4.764 -1.8860 -1.3315  0.2773
   72MOL   H24827370   2.482   1.428   4.608 -3.6404 -1.7189 -0.1094
   72MOL   C24927371   2.407   1.192   4.222 -0.5968 -0.4453  0.4272
   72MOL   C25027372   2.412   1.085   4.110 -0.5164 -0.1220  0.7490
   72MOL   O25127373   2.481   0.971   4.158  0.1687 -0.3402  0.2168
   72MOL   C25227374   2.532   0.886   4.058  0.0240  0.1598  0.4904
   72MOL   C25327375   2.638   0.792   4.118 -0.5696  0.5021  0.3290
   72MOL   C25427376   2.602   0.717   4.245  1.0608  0.2927 -0.4723
   72MOL   C25527377   2.790   0.850   4.115 -0.2404 -0.7896 -0.2489
   72MOL   H25627378   2.357   1.282   4.185  2.8862  0.7331 -1.6427
   72MOL   H25727379   2.352   1.147   4.305  0.2388 -1.5688  0.3937
   72MOL   H25827380   2.467   1.119   4.022 -1.0921  1.5714  1.0070
   72MOL   H25927381   2.445   0.837   4.014 -0.4639  1.1561  0.3470
   72MOL   H26027382   2.570   0.942   3.972 -0.9382 -2.6943 -1.8934
   72MOL   H26127383   2.642   0.722   4.035  3.5596  0.8853  0.0991
   72MOL   H26227384   2.672   0.641   4.280 -0.1841  0.1545  1.8240
   72MOL   H26327385   2.498   0.685   4.236  0.3138  2.8635 -1.3565
   72MOL   H26427386   2.605   0.793   4.323  0.1771  0.1301 -0.2737
   72MOL   H26527387   2.807   0.913   4.027  0.6174  0.8904  1.0912
   72MOL   H26627388   2.822   0.909   4.201  3.3845 -1.0348 -1.3553
   72MOL   H26727389   2.870   0.779   4.095 -1.0707 -2.0621  0.8732
   72MOL   C26827390   2.269   1.042   4.071 -0.4221  0.1402 -0.3969
   72MOL   C26927391   2.193   1.151   3.995  0.4883  0.0056 -0.1089
   72MOL   O27027392   2.055   1.109   3.986 -0.7884  0.8381  0.5090
   72MOL   C27127393   1.983   1.123   4.115 -0.6904 -0.1593  0.2899
   72MOL   C27227394   1.850   1.044   4.094 -0.5276  0.8582 -0.2552
   72MOL   C27327395   1.878   0.897   4.105 -0.1383 -0.6117 -0.0150
   72MOL   C27427396   1.739   1.091   4.188 -0.0796  0.0147 -0.0908
   72MOL   H27527397   2.223   1.023   4.167 -0.4287 -0.7027 -0.5583
   72MOL   H27627398   2.269   0.961   3.997  0.8055 -1.2300  1.0660
   72MOL   H27727399   2.205   1.244   4.050  0.9175  0.6388 -1.2531
   72MOL   H27827400   2.032   1.085   4.205 -0.6027  0.3244  0.4488
   72MOL   H27927401   1.968   1.230   4.133  1.1770  0.2973 -0.7648
   72MOL   H28027402   1.804   1.063   3.997 -1.3826  2.6591  0.4789
   72MOL   H28127403   1.947   0.855   4.032 -0.3851  1.3714 -1.4252
   72MOL   H28227404   1.788   0.839   4.087  1.0161 -2.1288 -0.9946
   72MOL   H28327405   1.908   0.862   4.204  0.9885  1.3437  0.3765
   72MOL   H28427406   1.744   1.047   4.287  0.9490  0.6223  0.1389
   72MOL   H28527407   1.642   1.061   4.149 -1.0369 -0.9222  2.8891
   72MOL   H28627408   1.736   1.199   4.202 -1.6756  0.4625 -3.4451
   72MOL   C28727409   2.260   1.174   3.855  0.2716 -0.0505  0.1339
   72MOL   C28827410   2.189   1.287   3.776 -0.6550  0.3700  0.4076
   72MOL   O28927411   2.267   1.300   3.662 -0.4917  0.5652 -0.1365
   72MOL   C29027412   2.210   1.249   3.540 -0.8548 -0.3169  0.2084
   72MOL   C29127413   2.291   1.301   3.419 -0.1069  0.2619  0.0057
   72MOL   C29227414   2.273   1.454   3.391 -0.1955  0.0510  0.8632
   72MOL   C29327415   2.256   1.215   3.292 -0.1706  0.0562  0.5860
   72MOL   H29427416   2.254   1.079   3.802  0.1019 -1.4700  2.5835
   72MOL   H29527417   2.366   1.200   3.857  0.7384 -1.9107  1.5381
   72MOL   H29627418   2.085   1.269   3.751 -0.3070  1.9169 -2.3295
   72MOL   H29727419   2.214   1.140   3.531 -1.8656 -0.2075 -1.9727
   72MOL   H29827420   2.103   1.266   3.533 -0.5192  0.9831 -3.0310
   72MOL   H29927421   2.394   1.274   3.442 -0.6251 -2.2255 -0.4510
   72MOL   H30027422   2.164   1.462   3.392 -0.4853 -2.7422 -1.3410
   72MOL   H30127423   2.308   1.483   3.293 -0.5983  1.0392  1.0046
   72MOL   H30227424   2.328   1.527   3.452  0.2075  2.4100 -2.2045
   72MOL   H30327425   2.326   1.239   3.211 -1.4928  0.4958 -0.4424
   72MOL   H30427426   2.276   1.110   3.314 -0.0330  0.2120  1.2196
   72MOL   H30527427   2.156   1.228   3.252  1.2602  1.8109 -2.6407
   72MOL   C30627428   2.196   1.424   3.846  0.1559  0.0610  0.1943
   72MOL   C30727429   2.113   1.531   3.782  0.0001 -0.2689 -0.2591
   72MOL   O30827430   1.979   1.517   3.829 -0.2193 -0.1491 -0.4009
   72MOL   C30927431   1.882   1.478   3.732 -0.3646 -0.1859 -0.7759
   72MOL   C31027432   1.753   1.463   3.804  0.3152 -0.5234  0.4273
   72MOL   C31127433   1.690   1.600   3.841 -0.0227 -0.3867 -0.3351
   72MOL   C31227434   1.763   1.376   3.920  0.1117 -0.5771  0.4602
   72MOL   H31327435   2.301   1.450   3.861  0.6506 -1.9486  0.3494
   72MOL   H31427436   2.149   1.410   3.943 -1.2105 -1.6965 -0.6980
   72MOL   H31527437   2.113   1.528   3.674 -0.7997 -0.5018 -0.2559
   72MOL   H31627438   1.907   1.382   3.688 -0.6805 -1.0665  0.9209
   72MOL   H31727439   1.873   1.551   3.651 -0.7845 -1.2737 -1.7146
   72MOL   H31827440   1.685   1.412   3.736 -1.1543  3.2496 -1.0395
   72MOL   H31927441   1.765   1.652   3.902  2.5919 -1.9809 -2.0787
   72MOL   H32027442   1.596   1.592   3.895 -0.5046  0.6337 -1.0100
   72MOL   H32127443   1.664   1.658   3.752 -1.9969  0.0255  0.4851
   72MOL   H32227444   1.827   1.416   3.999  2.0135 -0.8778 -0.9161
   72MOL   H32327445   1.791   1.273   3.895 -1.3710 -1.1977  1.2467
   72MOL   H32427446   1.670   1.357   3.974  0.3932 -1.8370  0.5393
   72MOL   C32527447   2.155   1.672   3.828 -0.6483 -0.2695 -0.1481
   72MOL   C32627448   2.062   1.796   3.779  0.7369  0.5333 -0.3325
   72MOL   O32727449   2.129   1.913   3.818  0.5427  0.1411 -0.3276
   72MOL   C32827450   2.108   1.960   3.944 -0.0317  0.3688 -0.3984
   72MOL   C32927451   2.228   2.054   3.979  0.7892 -0.0037  0.1974
   72MOL   C33027452   2.187   2.145   4.097 -1.1289 -0.1244  0.0099
   72MOL   C33127453   2.357   1.970   4.005  0.1022  0.8603  0.6837
   72MOL   H33227454   2.259   1.688   3.802 -0.3753 -2.2079 -0.3282
   72MOL   H33327455   2.149   1.680   3.936 -2.6607  0.0445 -0.2623
   72MOL   H33427456   1.959   1.783   3.814 -1.2114  3.0884 -4.7412
   72MOL   H33527457   2.013   2.013   3.945 -0.9332 -1.0980 -3.1107
   72MOL   H33627458   2.107   1.887   4.024  0.0149  0.7433 -0.0539
   72MOL   H33727459   2.245   2.112   3.888 -0.6602 -2.5908 -1.7936
   72MOL   H33827460   2.274   2.205   4.125  0.0412 -2.1952  0.8876
   72MOL   H33927461   2.108   2.212   4.066 -0.0907  1.2737  0.2992
   72MOL   H34027462   2.152   2.091   4.185  1.9410  0.2234  1.5520
   72MOL   H34127463   2.347   1.909   4.094 -1.7279 -2.3653 -1.6284
   72MOL   H34227464   2.372   1.906   3.918 -2.2289  1.1083  0.0630
   72MOL   H34327465   2.454   2.018   4.022  0.0832  0.4687  1.9677
   72MOL   C34427466   2.071   1.808   3.632  0.8014  0.4185 -0.2253
   72MOL   C34527467   1.965   1.910   3.574 -0.4046  0.1717  0.4387
   72MOL   O34627468   1.988   1.934   3.435  0.1352 -0.2406  0.3318
   72MOL   C34727469   2.070   2.045   3.407  0.2109 -0.4391  0.0752
   72MOL   C34827470   2.048   2.090   3.264 -0.4055 -1.2805  0.0097
   72MOL   C34927471   1.895   2.125   3.244  0.1223  0.5444 -0.3219
   72MOL   C35027472   2.097   1.988   3.158  0.0005  0.4050 -0.1735
   72MOL   H35127473   2.047   1.710   3.589 -0.6975  0.7182 -0.1051
   72MOL   H35227474   2.171   1.846   3.612  1.3731 -1.4894 -1.1113
   72MOL   H35327475   1.962   2.002   3.633 -0.5988 -0.2619  1.1046
   72MOL   H35427476   2.171   2.026   3.443  0.8747  0.9126 -1.0194
   72MOL   H35527477   2.033   2.117   3.480  0.4805 -1.2068  0.9757
   72MOL   H35627478   2.109   2.180   3.262 -1.4647 -0.5691 -1.8806
   72MOL   H35727479   1.822   2.044   3.244 -2.0252  2.4329 -1.0574
   72MOL   H35827480   1.878   2.173   3.148 -0.6304  1.2212  0.1379
   72MOL   H35927481   1.865   2.203   3.315  0.9853 -0.3752  1.0844
   72MOL   H36027482   2.053   1.890   3.176 -0.4151  0.1637 -2.4236
   72MOL   H36127483   2.087   2.014   3.053 -1.2521 -0.3607 -0.2569
   72MOL   H36227484   2.204   1.975   3.172 -0.1332  0.4578  0.9883
   72MOL   C36327485   1.824   1.858   3.576 -0.0862  0.2828 -0.3397
   72MOL   C36427486   1.715   1.952   3.545 -0.2768 -0.4495 -0.1769
   72MOL   O36527487   1.592   1.894   3.570 -0.0867  0.5956  0.3082
   72MOL   C36627488   1.487   1.972   3.524  0.0117 -0.2156 -0.4443
   72MOL   C36727489   1.350   1.931   3.578  0.3977  0.2762 -0.8099
   72MOL   C36827490   1.232   2.021   3.535  0.6825  0.1495 -0.1547
   72MOL   C36927491   1.344   1.889   3.724  0.0343  0.6308 -0.5879
   72MOL   H37027492   1.826   1.771   3.510  0.1913 -1.0436  1.3664
   72MOL   H37127493   1.807   1.819   3.677 -1.8999 -2.8396 -1.7716
   72MOL   H37227494   1.716   1.977   3.439  1.3536 -0.2593 -0.1332
   72MOL   H37327495   1.501   2.073   3.562 -2.2701  0.4867 -1.3579
   72MOL   H37427496   1.475   1.977   3.415 -1.1529  3.3997 -0.2179
   72MOL   H37527497   1.327   1.844   3.517 -0.9234  1.5138 -2.1067
   72MOL   H37627498   1.137   1.974   3.561  1.0347 -0.8077 -0.5841
   72MOL   H37727499   1.223   2.030   3.426 -1.1863  0.6486  0.0155
   72MOL   H37827500   1.236   2.121   3.577 -1.4132  0.2943 -0.2575
   72MOL   H37927501   1.418   1.814   3.750 -0.2262  1.3281  2.2416
   72MOL   H38027502   1.252   1.833   3.739  0.6809 -0.7736 -1.6746
   72MOL   H38127503   1.357   1.979   3.784 -0.2631  0.3704 -0.1383
   72MOL   H38227504   1.725   2.045   3.601 -2.3601  1.2209 -2.4707
   73MOL     C127505   7.504   6.884   1.731 -0.4144  0.0160 -0.6713
   73MOL     C227506   7.546   6.742   1.685 -0.0394  0.2386  0.0888
   73MOL     O327507   7.657   6.694   1.765  0.1008  0.0352  0.2360
   73MOL     C427508   7.786   6.746   1.750 -0.2595 -0.1231 -0.4521
   73MOL     C527509   0.056   6.649   1.673 -0.2630 -0.1350 -0.0854
   73MOL     C627510   0.017   6.635   1.518 -0.1853  0.2312  0.1706
   73MOL     C727511   0.080   6.523   1.756 -0.7149 -0.0335 -0.6256
   73MOL     H827512   7.406   6.925   1.705 -0.0166  1.1125 -0.4361
   73MOL     H927513   7.521   6.892   1.838  0.9291 -0.5222 -0.8416
   73MOL    H1027514   7.586   6.750   1.584 -0.1266  3.3894  0.2389
   73MOL    H1127515   0.003   6.737   1.851  1.7151  2.1805 -0.9963
   73MOL    H1227516   7.773   6.851   1.724  1.6782  0.1169 -0.5067
   73MOL    H1327517   0.152   6.699   1.658 -0.3429  0.0126 -0.1005
   73MOL    H1427518   0.021   6.728   1.462 -2.0450  1.0761  1.3772
   73MOL    H1527519   0.074   6.562   1.461  0.3572  0.5304  0.3336
   73MOL    H1627520   7.739   6.600   1.501 -0.0440  0.0379 -0.2721
   73MOL    H1727521   0.148   6.551   1.837  0.3010  0.0822 -1.5149
   73MOL    H1827522   7.817   6.471   1.796  0.0306 -1.4877 -0.8517
   73MOL    H1927523   0.146   6.457   1.701 -0.9947  1.1478 -2.4167
   73MOL    H2027524   7.568   6.961   1.689 -1.3222  1.5349  0.6904
   73MOL    C2127525   7.434   6.643   1.690 -0.0278 -0.2990  0.5368
   73MOL    C2227526   7.308   6.677   1.611  1.2101 -0.2182  0.5996
   73MOL    O2327527   7.338   6.697   1.468  0.0337 -0.2392 -0.2012
   73MOL    C2427528   7.293   6.825   1.423  0.4509 -0.8879 -0.3823
   73MOL    C2527529   7.299   6.795   1.272 -0.0013 -0.4607 -0.2633
   73MOL    C2627530   7.447   6.774   1.212 -0.1676 -0.0018 -0.0670
   73MOL    C2727531   7.206   6.679   1.234 -0.2177 -0.0486  0.1761
   73MOL    H2827532   7.461   6.544   1.654  0.2182  0.4471 -1.3993
   73MOL    H2927533   7.405   6.630   1.794 -0.2666 -1.1517  0.3647
   73MOL    H3027534   7.259   6.763   1.655 -0.5615 -0.2890 -1.1893
   73MOL    H3127535   7.375   6.890   1.454  0.1933 -1.2573  1.1540
   73MOL    H3227536   7.194   6.862   1.446  0.6802 -0.4445 -0.1109
   73MOL    H3327537   7.267   6.889   1.227  0.2673  1.0483  2.5748
   73MOL    H3427538   7.437   6.761   1.104  1.2259 -1.7371  0.0052
   73MOL    H3527539   7.486   6.684   1.259  0.3367  1.1888  1.8187
   73MOL    H3627540   7.505   6.863   1.234 -1.2876  0.4994  0.9428
   73MOL    H3727541   7.159   6.691   1.137  0.2434  3.0320  0.2980
   73MOL    H3827542   7.255   6.582   1.225 -2.5473 -1.2901  0.4625
   73MOL    H3927543   7.121   6.671   1.301  1.3821  3.4032  2.7784
   73MOL    C4027544   7.218   6.555   1.630  0.2044 -0.3868 -0.1754
   73MOL    C4127545   7.072   6.564   1.591  0.1440 -0.0041  0.6447
   73MOL    O4227546   7.033   6.661   1.687 -0.0931  0.3938 -0.0849
   73MOL    C4327547   6.950   6.752   1.639  0.2797 -0.0169  0.1776
   73MOL    C4427548   6.935   6.866   1.749 -0.2142  1.1323  0.4606
   73MOL    C4527549   7.061   6.951   1.767  0.5245 -0.7509  0.4429
   73MOL    C4627550   6.813   6.955   1.725  0.2627  0.0789 -0.8243
   73MOL    H4727551   7.211   6.547   1.739 -1.1006 -1.0059 -0.2918
   73MOL    H4827552   7.265   6.464   1.593 -0.3696 -1.8745  2.6073
   73MOL    H4927553   7.058   6.597   1.488 -0.4050  0.5131  0.8862
   73MOL    H5027554   6.858   6.705   1.605 -0.3999 -0.4916  2.5645
   73MOL    H5127555   6.987   6.808   1.553 -1.1242 -0.5535 -0.7981
   73MOL    H5227556   6.934   6.816   1.846  0.7954 -0.8675 -0.5296
   73MOL    H5327557   7.112   6.986   1.676  0.1961  0.0474  0.5599
   73MOL    H5427558   7.048   7.044   1.822  0.0556 -0.6793  0.2110
   73MOL    H5527559   7.139   6.902   1.824  1.2632  2.5554  2.4204
   73MOL    H5627560   6.809   6.982   1.619  0.8257 -2.6694 -1.6035
   73MOL    H5727561   6.819   7.047   1.782  0.6219 -0.5918  0.2389
   73MOL    H5827562   6.718   6.904   1.737  1.9793 -2.3703  3.3777
   73MOL    C5927563   6.999   6.429   1.618 -0.1801 -0.5343  0.0026
   73MOL    C6027564   7.040   6.298   1.543 -0.7958 -0.3383  0.0751
   73MOL    O6127565   7.171   6.248   1.577  0.5521  0.5404 -0.2960
   73MOL    C6227566   7.177   6.194   1.708  0.3414  0.0751  0.8090
   73MOL    C6327567   7.324   6.137   1.740  0.2379 -0.5421  0.0574
   73MOL    C6427568   7.360   6.043   1.628  0.0128  0.0553 -0.6412
   73MOL    C6527569   7.420   6.256   1.751 -0.0377  0.3812 -0.9766
   73MOL    H6627570   6.895   6.453   1.598  0.0372  1.0673  0.8078
   73MOL    H6727571   6.991   6.410   1.725 -1.6617 -1.4265 -0.2573
   73MOL    H6827572   6.960   6.238   1.583 -0.3277 -1.7398 -1.0430
   73MOL    H6927573   7.160   6.266   1.788  0.9661 -0.4650  1.4296
   73MOL    H7027574   7.104   6.115   1.722 -1.4107  1.8382  2.0009
   73MOL    H7127575   7.319   6.082   1.834  0.8432 -0.1264  0.3391
   73MOL    H7227576   7.302   5.950   1.628 -0.0864  0.1186 -0.7975
   73MOL    H7327577   7.462   6.005   1.632  0.3105  0.9600  0.7302
   73MOL    H7427578   7.350   6.091   1.531 -1.3998 -3.9942 -2.6358
   73MOL    H7527579   7.432   6.314   1.660  0.8734  1.1836 -0.3645
   73MOL    H7627580   7.366   6.327   1.813  0.3079 -0.3735  0.2053
   73MOL    H7727581   7.515   6.230   1.799 -1.6112 -0.5567  1.7695
   73MOL    C7827582   7.043   6.314   1.392 -0.5388  0.2110  0.8936
   73MOL    C7927583   7.037   6.174   1.321  0.1527  0.0896 -0.1137
   73MOL    O8027584   6.908   6.118   1.338 -0.2833 -0.1128 -0.1233
   73MOL    C8127585   6.900   5.976   1.327 -0.7243 -0.3650 -0.1906
   73MOL    C8227586   6.760   5.954   1.279  0.0600 -0.4403  0.3876
   73MOL    C8327587   6.707   5.809   1.273 -0.8019  0.2328 -0.3102
   73MOL    C8427588   6.735   6.020   1.141 -0.3253 -0.7463  0.0027
   73MOL    H8527589   7.143   6.349   1.365  0.4763 -2.9256  0.4176
   73MOL    H8627590   6.969   6.386   1.357 -0.0712 -0.6737 -2.0657
   73MOL    H8727591   7.111   6.110   1.370 -1.8675 -2.0897  0.1598
   73MOL    H8827592   6.971   5.924   1.263  1.1159 -0.5194  1.9364
   73MOL    H8927593   6.902   5.934   1.427  0.6481 -0.5480 -0.2866
   73MOL    H9027594   6.696   6.002   1.353  0.5432  0.1415  0.4320
   73MOL    H9127595   6.720   5.761   1.176 -3.0781 -0.8759 -0.0767
   73MOL    H9227596   6.598   5.805   1.276 -0.7486 -0.4196  1.7974
   73MOL    H9327597   6.744   5.745   1.354 -2.3439 -0.0556  0.1723
   73MOL    H9427598   6.765   6.123   1.125  1.1907 -1.2699 -0.6465
   73MOL    H9527599   6.630   6.010   1.116 -0.1914 -2.1937 -0.0756
   73MOL    H9627600   6.781   5.962   1.061 -0.2651 -1.7157  0.7287
   73MOL    C9727601   7.051   6.189   1.167 -0.2910  0.5639  0.6439
   73MOL    C9827602   7.189   6.237   1.116 -0.3495  0.3630 -0.0948
   73MOL    O9927603   7.188   6.278   0.984 -0.6506  0.2751 -0.0022
   73MOL   C10027604   7.159   6.419   0.963  0.0084  0.3835  0.0918
   73MOL   C10127605   7.161   6.457   0.813  0.0871 -0.1285 -0.0529
   73MOL   C10227606   7.079   6.585   0.786  0.7786 -0.1655  0.5852
   73MOL   C10327607   7.305   6.470   0.758 -0.3766 -0.1738 -0.4211
   73MOL   H10427608   6.978   6.264   1.135  0.5517  1.4881  0.8827
   73MOL   H10527609   7.023   6.092   1.124 -2.0886  1.1922  0.3492
   73MOL   H10627610   7.238   6.316   1.172 -0.6955  2.4043 -2.5896
   73MOL   H10727611   7.228   6.475   1.028  0.5693 -1.4566  1.1206
   73MOL   H10827612   7.061   6.434   1.008 -0.0306  0.6040 -0.0677
   73MOL   H10927613   7.115   6.366   0.776 -0.8529 -1.5462  4.2979
   73MOL   H11027614   6.973   6.583   0.811  0.7863  1.1542  0.7660
   73MOL   H11127615   7.121   6.669   0.841 -0.5782  0.6396  0.4290
   73MOL   H11227616   7.098   6.600   0.680 -1.7003  0.6389  0.2285
   73MOL   H11327617   7.347   6.556   0.809 -0.9926  1.2477 -2.2644
   73MOL   H11427618   7.355   6.379   0.792  0.0276  0.5998  1.0983
   73MOL   H11527619   7.309   6.485   0.650  0.9327  1.3632 -0.1643
   73MOL   C11627620   7.286   6.109   1.119 -0.0864 -0.8651  0.7978
   73MOL   C11727621   7.431   6.141   1.093 -0.3845  0.3654 -0.2305
   73MOL   O11827622   7.470   6.220   1.204  1.0368 -0.0540  0.0034
   73MOL   C11927623   7.540   6.337   1.174  0.1294  0.5091 -0.0611
   73MOL   C12027624   7.610   6.385   1.303 -0.1542 -0.2128 -0.2542
   73MOL   C12127625   7.513   6.384   1.418  0.2819  0.8851 -0.1257
   73MOL   C12227626   7.747   6.306   1.322  0.2313  0.6742  0.1120
   73MOL   H12327627   7.281   6.062   1.217  0.3009  0.7015  1.5764
   73MOL   H12427628   7.252   6.030   1.052  2.5331  0.3859 -2.1651
   73MOL   H12527629   7.443   6.197   1.000 -2.3509  0.5432 -0.3946
   73MOL   H12627630   7.476   6.419   1.143  3.5905  3.1919 -0.4312
   73MOL   H12727631   7.613   6.339   1.092 -1.4416  0.6838 -1.4733
   73MOL   H12827632   7.629   6.492   1.288 -2.4205  0.3045  0.4271
   73MOL   H12927633   7.553   6.428   1.510 -1.4419 -0.6434  1.3947
   73MOL   H13027634   7.483   6.284   1.449  0.9966  0.8755  0.5589
   73MOL   H13127635   7.420   6.437   1.399 -0.8437 -0.9522  0.0736
   73MOL   H13227636   7.729   6.198   1.318  0.7715  0.5478  0.9069
   73MOL   H13327637   7.819   6.341   1.248  0.4899  0.1714  0.1226
   73MOL   H13427638   7.785   6.332   1.421  1.5181 -1.0850  0.1095
   73MOL   C13527639   7.520   6.017   1.088  0.7728 -0.2955 -0.8085
   73MOL   C13627640   7.667   6.050   1.045 -0.2849  0.6144  0.4266
   73MOL   O13727641   7.730   5.919   1.059  0.0462  0.6693  0.0313
   73MOL   C13827642   0.012   5.916   1.152  0.4767 -0.5768 -0.5577
   73MOL   C13927643   0.057   5.773   1.161 -0.3353  0.2676 -0.2428
   73MOL   C14027644   0.139   5.718   1.039 -0.1521  0.2369 -0.4124
   73MOL   C14127645   0.143   5.750   1.286 -0.3047 -0.2987  0.1193
   73MOL   H14227646   7.519   5.954   1.177 -2.4226  0.9863  0.1514
   73MOL   H14327647   7.478   5.949   1.014  1.0868 -0.5396 -0.7631
   73MOL   H14427648   7.716   6.125   1.108  1.0830  0.2724 -0.2206
   73MOL   H14527649   7.802   5.955   1.248  0.7649 -2.4975  0.3495
   73MOL   H14627650   0.094   5.986   1.136  0.3661  0.0760  1.6198
   73MOL   H14727651   7.797   5.704   1.165  0.3004 -0.5718 -1.2298
   73MOL   H14827652   0.235   5.769   1.028  0.4229 -0.9777 -1.0199
   73MOL   H14927653   0.087   5.731   0.945  0.1743  0.3198 -0.5846
   73MOL   H15027654   0.154   5.611   1.052 -0.3971  0.1763 -0.6450
   73MOL   H15127655   0.179   5.647   1.289  0.4214 -0.0146  3.3883
   73MOL   H15227656   0.221   5.825   1.298 -0.2627 -0.5764  1.6420
   73MOL   H15327657   0.080   5.758   1.375 -0.9506  1.3707 -0.4734
   73MOL   C15427658   7.689   6.088   0.897  0.0280 -0.5360  0.6256
   73MOL   C15527659   0.017   6.111   0.848  0.4096  1.0172 -0.3126
   73MOL   O15627660   0.016   6.137   0.705  0.0578  0.2107 -0.1074
   73MOL   C15727661   0.046   6.027   0.627 -0.4508  0.1636  0.8036
   73MOL   C15827662   0.062   6.063   0.477  0.9259  0.1266 -0.0171
   73MOL   C15927663   0.153   6.186   0.458 -0.0835 -0.2515  0.1886
   73MOL   C16027664   0.109   5.956   0.392 -0.0411  0.7165  0.0460
   73MOL   H16127665   7.637   6.181   0.875 -1.5705 -1.9136 -1.5783
   73MOL   H16227666   7.629   6.017   0.840 -1.4172  1.1033  0.0768
   73MOL   H16327667   0.063   6.017   0.880 -1.2945 -0.6877 -2.7302
   73MOL   H16427668   7.793   5.950   0.633  0.8493 -1.5306 -2.5506
   73MOL   H16527669   0.141   5.984   0.659  0.4833  1.4064 -0.2849
   73MOL   H16627670   7.789   6.098   0.443  1.7278  0.3600 -2.1484
   73MOL   H16727671   0.252   6.165   0.497  1.0326  0.1569 -2.3700
   73MOL   H16827672   0.112   6.278   0.499  0.1425 -1.1303  2.4594
   73MOL   H16927673   0.159   6.202   0.350  1.8109 -1.6149  0.0753
   73MOL   H17027674   0.043   5.870   0.405 -0.2779  1.3603  3.6239
   73MOL   H17127675   0.088   5.988   0.290 -2.8364 -1.3574 -0.0951
   73MOL   H17227676   0.217   5.943   0.396 -0.2019 -0.6637  0.0224
   73MOL   C17327677   0.091   6.227   0.923 -0.4533  0.4536 -0.3770
   73MOL   C17427678   0.243   6.231   0.889 -0.2875 -0.0135  0.0891
   73MOL   O17527679   0.287   6.364   0.881 -0.2944 -0.6352 -0.5518
   73MOL   C17627680   0.278   6.416   0.752 -0.9875  0.2160  0.7370
   73MOL   C17727681   0.347   6.554   0.769 -0.4639  0.4803  0.0344
   73MOL   C17827682   0.490   6.558   0.820  0.0568  0.1883 -0.5163
   73MOL   C17927683   0.340   6.621   0.631 -0.3142 -0.0197 -0.1263
   73MOL   H18027684   0.045   6.320   0.891  0.2953  0.6643 -0.8589
   73MOL   H18127685   0.079   6.215   1.031  0.0073  5.5320  0.3686
   73MOL   H18227686   0.266   6.184   0.793  2.9562  2.5232 -0.4838
   73MOL   H18327687   0.175   6.422   0.718 -0.7472  0.2715 -0.0035
   73MOL   H18427688   0.337   6.356   0.683 -1.3784 -0.5135  1.0423
   73MOL   H18527689   0.288   6.609   0.842  0.3898 -0.1719  1.2216
   73MOL   H18627690   0.495   6.523   0.923  2.5688  1.5118 -0.1567
   73MOL   H18727691   0.558   6.498   0.759 -0.0909 -0.3051 -0.1970
   73MOL   H18827692   0.528   6.660   0.818 -0.5331  0.5114  2.9923
   73MOL   H18927693   0.394   6.716   0.628  1.6888 -1.1096  0.3510
   73MOL   H19027694   0.234   6.618   0.607 -0.7436  2.0990  1.3278
   73MOL   H19127695   0.385   6.563   0.550  0.6417  1.3892 -0.6291
   73MOL   C19227696   0.321   6.152   0.999 -0.5241  0.6709  1.0533
   73MOL   C19327697   0.473   6.175   1.005  0.8039  0.7412 -0.2171
   73MOL   O19427698   0.520   6.103   0.888 -0.3162 -0.0202  0.0154
   73MOL   C19527699   0.627   6.169   0.816 -0.0243 -0.7409  0.3901
   73MOL   C19627700   0.648   6.122   0.665 -0.2268  0.1907  0.4200
   73MOL   C19727701   0.534   6.131   0.571  0.3699 -0.3117  0.5886
   73MOL   C19827702   0.714   5.979   0.675  0.2909 -0.3936 -0.0176
   73MOL   H19927703   0.302   6.046   0.981  0.0237  0.6050  0.8344
   73MOL   H20027704   0.282   6.175   1.097 -0.7848 -0.9366  1.3461
   73MOL   H20127705   0.490   6.282   0.996  2.2542  0.4536 -1.1736
   73MOL   H20227706   0.717   6.148   0.873 -0.6900  0.0465  1.7624
   73MOL   H20327707   0.608   6.277   0.814 -0.1670 -0.7526  0.9460
   73MOL   H20427708   0.728   6.190   0.634  1.0018 -1.3110  0.2454
   73MOL   H20527709   0.564   6.065   0.490  2.5495  0.3600  0.8144
   73MOL   H20627710   0.440   6.085   0.605  1.2646 -3.4381 -0.9701
   73MOL   H20727711   0.519   6.228   0.525 -3.8460  0.3892  3.1140
   73MOL   H20827712   0.737   5.938   0.577  0.6841 -0.6564  0.1791
   73MOL   H20927713   0.805   5.977   0.736 -1.3060 -1.9942  2.4464
   73MOL   H21027714   0.650   5.913   0.734 -1.7111  0.6662 -0.9875
   73MOL   C21127715   0.523   6.116   1.136 -0.2879 -0.2642 -0.0431
   73MOL   C21227716   0.672   6.131   1.158  0.7617  0.1166  0.5191
   73MOL   O21327717   0.698   6.268   1.148  0.5720  0.2360  0.1252
   73MOL   C21427718   0.825   6.299   1.087 -0.2675  0.4952  0.6958
   73MOL   C21527719   0.875   6.431   1.143 -0.1113 -0.0497 -0.4159
   73MOL   C21627720   1.014   6.460   1.091 -0.0856 -0.3316 -0.0864
   73MOL   C21727721   0.776   6.543   1.124  0.5166 -0.2205 -0.0772
   73MOL   H21827722   0.514   6.008   1.124  0.1535 -0.7558  3.7108
   73MOL   H21927723   0.463   6.143   1.222  0.6567  2.7097 -0.2595
   73MOL   H22027724   0.729   6.071   1.087 -2.3182 -0.6089 -1.4507
   73MOL   H22127725   0.803   6.312   0.981 -1.3956 -0.4293  0.8120
   73MOL   H22227726   0.895   6.218   1.105  0.4466  1.3959  2.1107
   73MOL   H22327727   0.897   6.418   1.249  2.1381  4.2072 -0.2450
   73MOL   H22427728   1.013   6.454   0.982 -1.7373  0.4522 -0.1234
   73MOL   H22527729   1.060   6.553   1.125  0.7876 -0.4492 -0.9384
   73MOL   H22627730   1.076   6.381   1.134  0.3367 -1.1363 -2.1291
   73MOL   H22727731   0.689   6.511   1.182 -1.9554  1.0675 -2.9740
   73MOL   H22827732   0.743   6.552   1.021  1.2731  0.8402 -0.2362
   73MOL   H22927733   0.812   6.643   1.149 -0.8307  0.3335 -0.2797
   73MOL   C23027734   0.710   6.088   1.301 -0.1098 -0.2729 -0.1721
   73MOL   C23127735   0.675   5.938   1.330  0.0019  0.2692  0.0729
   73MOL   O23227736   0.765   5.867   1.245  0.1148 -0.3500  0.1979
   73MOL   C23327737   0.700   5.756   1.175 -0.4660  0.3790 -0.1104
   73MOL   C23427738   0.800   5.695   1.079  0.6116  0.2122  0.7022
   73MOL   C23527739   0.814   5.796   0.971  0.7370 -1.0311  0.2874
   73MOL   C23627740   0.939   5.648   1.144  0.9385 -0.0560  0.1621
   73MOL   H23727741   0.655   6.161   1.360 -0.2772 -1.1861  0.8097
   73MOL   H23827742   0.817   6.100   1.315 -0.3609  0.8221  0.8159
   73MOL   H23927743   0.573   5.906   1.312 -0.2884 -0.2346  2.4990
   73MOL   H24027744   0.665   5.688   1.253 -0.0648  1.2209  0.8287
   73MOL   H24127745   0.610   5.789   1.125 -0.3394  5.0081  2.3923
   73MOL   H24227746   0.747   5.610   1.036  3.5767 -1.8485  0.9736
   73MOL   H24327747   0.870   5.770   0.881 -1.2732  0.7273 -1.5685
   73MOL   H24427748   0.873   5.877   1.014 -0.5841  1.3549 -2.2087
   73MOL   H24527749   0.723   5.843   0.932  0.6940  0.8888  2.5986
   73MOL   H24627750   1.000   5.601   1.067  2.8631  2.5042  0.0507
   73MOL   H24727751   1.002   5.725   1.190 -0.4670  1.4078 -0.3279
   73MOL   H24827752   0.917   5.577   1.224 -1.2601 -0.1212 -0.4706
   73MOL   C24927753   0.705   5.897   1.477 -0.1937 -0.1404 -0.8737
   73MOL   C25027754   0.587   5.840   1.553 -0.3447 -1.2521 -0.1117
   73MOL   O25127755   0.479   5.931   1.555  0.8349 -0.2883  0.1609
   73MOL   C25227756   0.481   6.043   1.642 -0.0569  1.0755 -0.3079
   73MOL   C25327757   0.342   6.107   1.656 -0.5673 -0.0566  0.0183
   73MOL   C25427758   0.220   6.018   1.649  0.2085 -0.1462  0.9450
   73MOL   C25527759   0.321   6.235   1.572  0.5158  0.5455  0.3679
   73MOL   H25627760   0.735   5.987   1.531  0.3854 -0.2732 -0.9785
   73MOL   H25727761   0.785   5.824   1.491 -0.8353 -0.2606  2.5919
   73MOL   H25827762   0.608   5.826   1.659 -1.7477  3.6372  0.9507
   73MOL   H25927763   0.510   6.020   1.744  1.5411  0.7167 -0.8223
   73MOL   H26027764   0.558   6.108   1.598  1.0989 -1.1542 -1.6871
   73MOL   H26127765   0.337   6.147   1.757  1.4974 -0.2642  0.2200
   73MOL   H26227766   0.227   5.927   1.708  1.0400 -0.4245  0.4261
   73MOL   H26327767   0.192   5.991   1.547 -0.4679  1.1369  0.7713
   73MOL   H26427768   0.131   6.073   1.680  1.0003  1.0497  1.1308
   73MOL   H26527769   0.389   6.316   1.599  0.6575  0.7425 -0.5452
   73MOL   H26627770   0.345   6.213   1.468 -0.7288  2.4529 -0.3503
   73MOL   H26727771   0.221   6.280   1.580 -0.3001 -0.7399 -1.9764
   73MOL   C26827772   0.537   5.701   1.500  0.1829  0.3762  0.5484
   73MOL   C26927773   0.625   5.567   1.498  0.4602 -0.2284  0.5033
   73MOL   O27027774   0.543   5.455   1.474 -0.3414 -0.7140 -0.1961
   73MOL   C27127775   0.506   5.445   1.338  0.1673  0.5416 -0.4573
   73MOL   C27227776   0.432   5.306   1.322 -0.4039 -0.3767 -0.0314
   73MOL   C27327777   0.282   5.299   1.360 -0.2928  0.1756 -0.4314
   73MOL   C27427778   0.464   5.258   1.180 -0.7661  0.3612  0.1910
   73MOL   H27527779   0.483   5.711   1.405  0.3979 -2.7794  0.0375
   73MOL   H27627780   0.450   5.687   1.564  0.3675 -1.2371  0.4634
   73MOL   H27727781   0.700   5.575   1.418  1.4517  1.0790  1.5482
   73MOL   H27827782   0.447   5.533   1.314 -0.4038 -0.4164 -2.7491
   73MOL   H27927783   0.594   5.431   1.275  0.9078 -0.5546  0.8120
   73MOL   H28027784   0.484   5.235   1.386 -1.7200 -0.2592  1.2231
   73MOL   H28127785   0.235   5.201   1.350 -1.4530  0.7470 -0.6820
   73MOL   H28227786   0.222   5.369   1.303 -0.3024  0.6465  0.1581
   73MOL   H28327787   0.271   5.319   1.467  1.6591 -0.8373 -0.0218
   73MOL   H28427788   0.433   5.337   1.111  1.6341  0.3731 -0.9254
   73MOL   H28527789   0.414   5.166   1.148 -0.6325  0.0944  0.7572
   73MOL   H28627790   0.572   5.249   1.170 -0.7270 -2.7609  2.8358
   73MOL   C28727791   0.705   5.546   1.633  0.2873  0.1215  0.7020
   73MOL   C28827792   0.814   5.418   1.614 -0.8179  0.0051  0.1612
   73MOL   O28927793   0.880   5.380   1.736 -0.4963  0.3150 -0.0738
   73MOL   C29027794   0.800   5.329   1.833  0.7363 -0.2252  0.1343
   73MOL   C29127795   0.881   5.264   1.942 -0.6577 -0.2293  0.2407
   73MOL   C29227796   0.967   5.361   2.030 -0.1888 -0.7197 -0.1058
   73MOL   C29327797   0.956   5.137   1.890 -0.9613  0.5949 -0.6173
   73MOL   H29427798   0.620   5.514   1.693 -1.4045  0.9852 -1.1741
   73MOL   H29527799   0.755   5.635   1.672 -0.2589  1.2540 -1.0819
   73MOL   H29627800   0.764   5.347   1.548  2.2668 -0.6411 -1.5583
   73MOL   H29727801   0.733   5.403   1.877  1.3078  0.2153  0.2666
   73MOL   H29827802   0.729   5.263   1.782 -3.5837  2.5167  2.3436
   73MOL   H29927803   0.811   5.226   2.016  1.1642  0.6470  2.5041
   73MOL   H30027804   0.913   5.450   2.059  2.1642  0.4529  0.8652
   73MOL   H30127805   1.040   5.402   1.960 -2.4668  1.5087 -1.2225
   73MOL   H30227806   1.019   5.314   2.114 -0.8828 -0.5947  0.3992
   73MOL   H30327807   0.896   5.081   1.819 -1.7830 -0.6813  1.0595
   73MOL   H30427808   1.045   5.175   1.840 -1.3079  2.5994  0.2209
   73MOL   H30527809   0.993   5.069   1.967  0.4407  1.3914 -0.5795
   73MOL   C30627810   0.941   5.468   1.532  0.2996  0.2515  0.5533
   73MOL   C30727811   1.027   5.347   1.483 -0.3981  0.5509  0.9441
   73MOL   O30827812   0.942   5.299   1.383 -0.2896  0.2187  0.2745
   73MOL   C30927813   0.950   5.168   1.334  0.1579 -0.1169 -0.1664
   73MOL   C31027814   0.905   5.162   1.188  0.4026  1.0667 -0.3481
   73MOL   C31127815   0.872   5.018   1.133 -0.8495 -0.4987  0.9056
   73MOL   C31227816   0.996   5.240   1.095 -0.0607  0.1067  0.2541
   73MOL   H31327817   0.993   5.537   1.597 -0.2628  1.2477 -0.0444
   73MOL   H31427818   0.928   5.521   1.437  1.1632  1.3367  1.0348
   73MOL   H31527819   1.038   5.271   1.561 -0.3312 -0.2499  0.1595
   73MOL   H31627820   0.900   5.089   1.390 -0.8264 -1.2332 -2.5301
   73MOL   H31727821   1.056   5.145   1.343  0.5704  1.4885 -0.6642
   73MOL   H31827822   0.811   5.217   1.179 -0.4279 -0.3690 -0.5200
   73MOL   H31927823   0.811   5.044   1.047  0.8000  1.6442  0.3350
   73MOL   H32027824   0.806   4.965   1.201  1.5370 -1.9974  2.1628
   73MOL   H32127825   0.964   4.965   1.107 -1.9835 -1.9047 -0.3148
   73MOL   H32227826   0.947   5.247   0.997  0.0517 -1.2584  0.0943
   73MOL   H32327827   1.092   5.191   1.080 -1.2149 -2.3800  0.7101
   73MOL   H32427828   1.008   5.343   1.130  2.5299 -0.5999  1.5881
   73MOL   C32527829   1.165   5.386   1.426  0.7661  0.0830  0.3772
   73MOL   C32627830   1.280   5.356   1.520  0.3636 -0.2770 -0.1481
   73MOL   O32727831   1.402   5.377   1.448  0.6616 -0.0631 -0.0732
   73MOL   C32827832   1.507   5.299   1.491  0.5155 -0.0034  0.0328
   73MOL   C32927833   1.618   5.302   1.381 -0.1373  0.2587  0.5417
   73MOL   C33027834   1.739   5.214   1.417 -0.7637 -0.3673 -0.4773
   73MOL   C33127835   1.571   5.258   1.242 -0.1118  0.5115  0.2884
   73MOL   H33227836   1.166   5.489   1.391 -0.9740 -1.3770 -4.2987
   73MOL   H33327837   1.177   5.336   1.330 -2.2359 -0.2350  0.1329
   73MOL   H33427838   1.270   5.252   1.550  2.2843 -0.8933 -1.5497
   73MOL   H33527839   1.544   5.325   1.590  0.2011  0.8914 -0.0790
   73MOL   H33627840   1.485   5.192   1.497 -1.7249  0.4536  0.7819
   73MOL   H33727841   1.651   5.406   1.377 -0.1715  0.2289 -0.5708
   73MOL   H33827842   1.821   5.246   1.353 -1.8906  1.3728 -1.1067
   73MOL   H33927843   1.762   5.217   1.524  1.0973 -1.3818 -0.8274
   73MOL   H34027844   1.726   5.106   1.420  1.8800 -0.8130 -3.0048
   73MOL   H34127845   1.647   5.282   1.167  1.3769 -3.9099  0.2204
   73MOL   H34227846   1.540   5.154   1.230  0.1249  0.0925  3.0587
   73MOL   H34327847   1.483   5.317   1.217  0.1503  0.8816  0.2443
   73MOL   C34427848   1.290   5.434   1.648  0.0384 -0.1868 -0.1011
   73MOL   C34527849   1.335   5.581   1.636 -0.7136  0.3226 -0.3169
   73MOL   O34627850   1.220   5.662   1.626 -0.5671 -0.1668 -0.1654
   73MOL   C34727851   1.218   5.763   1.534 -0.4789  0.1399  0.1634
   73MOL   C34827852   1.080   5.829   1.521 -0.1425 -0.2656  0.1294
   73MOL   C34927853   1.087   5.954   1.413 -0.5829  0.3005  0.0001
   73MOL   C35027854   1.029   5.866   1.657  0.5194 -0.4779 -0.0975
   73MOL   H35127855   1.364   5.378   1.706 -0.1046 -0.5132 -0.2304
   73MOL   H35227856   1.201   5.415   1.707  1.7288  1.2151  3.0340
   73MOL   H35327857   1.401   5.599   1.551  2.1113 -0.3909  1.6576
   73MOL   H35427858   1.238   5.712   1.440  2.4350 -0.6311  1.1298
   73MOL   H35527859   1.290   5.838   1.569 -0.8516  0.0722  1.0892
   73MOL   H35627860   1.002   5.761   1.486  0.0896 -0.8356  0.7052
   73MOL   H35727861   0.989   5.989   1.382 -0.5442 -0.2811 -0.8074
   73MOL   H35827862   1.138   5.913   1.325 -0.8643  0.8069 -0.3997
   73MOL   H35927863   1.145   6.042   1.441  0.1578 -0.3235  0.4385
   73MOL   H36027864   1.033   5.779   1.723  0.0378  1.0392  2.0094
   73MOL   H36127865   1.090   5.943   1.704 -0.1290  1.2601 -2.0289
   73MOL   H36227866   0.926   5.901   1.659  0.3020 -1.1726  1.7604
   73MOL   C36327867   1.425   5.639   1.756  0.4550 -0.1487 -0.1511
   73MOL   C36427868   1.561   5.581   1.771 -0.6825 -0.3712 -0.2574
   73MOL   O36527869   1.620   5.633   1.888 -0.3811 -0.2421 -0.1623
   73MOL   C36627870   1.756   5.587   1.898  0.0028  0.9719  0.3441
   73MOL   C36727871   1.832   5.674   1.999  0.0524  0.3603  0.0071
   73MOL   C36827872   1.772   5.671   2.138  0.2692 -0.2090  0.7446
   73MOL   C36927873   1.829   5.817   1.945 -0.2513 -0.6327  0.2119
   73MOL   H37027874   1.436   5.746   1.770  0.3727 -0.1556 -0.0370
   73MOL   H37127875   1.365   5.623   1.846  0.6769  0.4301  0.1061
   73MOL   H37227876   1.620   5.604   1.683  1.3326 -2.4334  0.4905
   73MOL   H37327877   1.763   5.482   1.929  3.0893  1.3541  1.1001
   73MOL   H37427878   1.804   5.595   1.801  0.1148  0.5131  0.3595
   73MOL   H37527879   1.932   5.629   1.999 -0.8762 -1.7809 -1.1863
   73MOL   H37627880   1.794   5.576   2.186  1.0596 -0.8995 -0.9832
   73MOL   H37727881   1.666   5.688   2.154  0.0525 -1.9017  1.1469
   73MOL   H37827882   1.828   5.741   2.201 -1.0125 -0.3719  2.1066
   73MOL   H37927883   1.895   5.884   1.999 -2.7720 -0.4617  3.2605
   73MOL   H38027884   1.732   5.866   1.958 -0.7384 -1.7149  0.8038
   73MOL   H38127885   1.852   5.834   1.840 -0.0458  0.0021  0.3583
   73MOL   H38227886   1.564   5.472   1.775  1.6481 -0.2983  0.2716
   74MOL     C127887   6.087   0.307   3.890  0.0680  0.0918  0.6966
   74MOL     C227888   6.116   0.352   3.748 -0.8727  0.3906 -0.4898
   74MOL     O327889   6.264   0.350   3.756  0.4869 -1.1478 -0.4887
   74MOL     C427890   6.314   0.483   3.750  0.1849  0.3532 -0.0743
   74MOL     C527891   6.467   0.476   3.760  0.3462 -0.1146  0.6216
   74MOL     C627892   6.515   0.437   3.903 -0.5545  0.3921  0.2588
   74MOL     C727893   6.516   0.617   3.719  0.0257 -0.0418 -0.4005
   74MOL     H827894   6.131   0.372   3.966  2.4685 -0.1471 -0.4399
   74MOL     H927895   5.978   0.303   3.892  0.0182 -0.0312 -1.2979
   74MOL    H1027896   6.083   0.453   3.724  0.6534  0.6500 -1.5792
   74MOL    H1127897   6.273   0.546   3.830 -0.8427 -2.1460  1.4014
   74MOL    H1227898   6.289   0.529   3.655 -0.3024  1.9610  0.8077
   74MOL    H1327899   6.501   0.397   3.693  1.1770  1.2862 -0.6499
   74MOL    H1427900   6.527   0.534   3.950 -0.1364  0.8425 -0.7698
   74MOL    H1527901   6.447   0.371   3.957 -0.4531  2.0748  2.5055
   74MOL    H1627902   6.616   0.396   3.905 -1.2298 -1.3114  2.1749
   74MOL    H1727903   6.475   0.696   3.781 -1.3443 -0.4975 -0.7066
   74MOL    H1827904   6.622   0.618   3.746  0.1869 -1.5184 -0.8848
   74MOL    H1927905   6.503   0.655   3.618 -0.3656 -1.9688 -1.1070
   74MOL    H2027906   6.125   0.206   3.907  1.2090  0.3996  0.0035
   74MOL    C2127907   6.061   0.249   3.643  0.2578  1.3486  0.2437
   74MOL    C2227908   6.096   0.296   3.500  0.0011  0.2139  0.8345
   74MOL    O2327909   6.100   0.175   3.417 -1.0496  0.5045 -0.4982
   74MOL    C2427910   6.213   0.096   3.443 -0.1671 -0.1538 -0.3828
   74MOL    C2527911   6.246   0.015   3.316 -0.3305 -0.6010  0.4007
   74MOL    C2627912   6.256   0.112   3.201  0.3255  0.1535  0.3252
   74MOL    C2727913   6.354   7.738   3.331 -0.4181 -0.1073 -0.2359
   74MOL    H2827914   6.116   0.158   3.666  0.1699  1.4450  0.8577
   74MOL    H2927915   5.957   0.220   3.659  0.8971 -1.0183  0.2768
   74MOL    H3027916   6.192   0.347   3.497  0.6299 -1.0269 -0.7600
   74MOL    H3127917   6.196   0.022   3.521  1.1232 -1.6398 -1.4555
   74MOL    H3227918   6.303   0.151   3.472  0.8264 -1.9935  0.1252
   74MOL    H3327919   6.160   7.777   3.293 -0.3871 -0.5704  0.5298
   74MOL    H3427920   6.170   0.177   3.187  0.6119  0.3962 -0.3283
   74MOL    H3527921   6.258   0.062   3.105 -2.1907 -3.2133  1.9183
   74MOL    H3627922   6.350   0.168   3.199 -0.5287  1.6276  0.4225
   74MOL    H3727923   6.453   7.783   3.328 -0.8376  1.0906  2.5545
   74MOL    H3827924   6.331   7.676   3.418 -0.5232 -0.3877 -0.4602
   74MOL    H3927925   6.350   7.677   3.240 -0.7762  0.8089 -0.8368
   74MOL    C4027926   5.990   0.391   3.440  0.0913 -0.2914  0.1207
   74MOL    C4127927   6.038   0.450   3.301 -0.4954 -0.8636  0.1943
   74MOL    O4227928   6.145   0.551   3.320 -0.5714 -0.8735  0.1345
   74MOL    C4327929   6.242   0.547   3.215  0.2747  0.0105  0.4140
   74MOL    C4427930   6.356   0.643   3.227  0.0978 -0.1670 -0.5815
   74MOL    C4527931   6.452   0.627   3.104 -0.3115  0.0110  0.0068
   74MOL    C4627932   6.310   0.786   3.239  0.3450  0.4525  0.8535
   74MOL    H4727933   5.957   0.470   3.507 -0.6248 -2.4683  2.4160
   74MOL    H4827934   5.900   0.331   3.426  0.3054 -0.3984 -0.8630
   74MOL    H4927935   6.083   0.368   3.245 -1.2314 -1.4948  0.5128
   74MOL    H5027936   6.184   0.580   3.129  0.7107  0.7868  0.4192
   74MOL    H5127937   6.277   0.445   3.200  0.8561  0.3168 -0.3085
   74MOL    H5227938   6.395   0.637   3.328  0.0023  2.2161 -0.3623
   74MOL    H5327939   6.526   0.706   3.112 -0.4182  0.3574 -2.1490
   74MOL    H5427940   6.521   0.543   3.115  2.4937  2.6121  3.7411
   74MOL    H5527941   6.399   0.620   3.009 -0.5009  0.3184  0.0893
   74MOL    H5627942   6.388   0.862   3.248  0.7307  0.3719 -1.4334
   74MOL    H5727943   6.251   0.797   3.330 -0.4089 -0.3191  0.4644
   74MOL    H5827944   6.237   0.803   3.159  1.7026  0.9814 -0.3033
   74MOL    C5927945   5.931   0.501   3.201  0.0784  0.0431  0.1775
   74MOL    C6027946   5.863   0.638   3.219 -0.3288  0.0798 -0.3368
   74MOL    O6127947   5.758   0.620   3.127 -0.5646  0.2755 -0.7749
   74MOL    C6227948   5.637   0.574   3.179  0.1912  0.2309  0.5577
   74MOL    C6327949   5.558   0.562   3.048 -0.1236  0.3616 -1.2275
   74MOL    C6427950   5.547   0.695   2.965 -0.1433 -0.1339  0.1050
   74MOL    C6527951   5.611   0.438   2.969  0.3859 -0.0618 -0.2126
   74MOL    H6627952   5.863   0.416   3.196  1.0318 -0.7517  0.6638
   74MOL    H6727953   5.974   0.502   3.101  2.4172 -2.0705  1.1281
   74MOL    H6827954   5.842   0.651   3.325  0.3997  1.8674 -0.3954
   74MOL    H6927955   5.641   0.473   3.221  1.8239 -0.7395 -1.7865
   74MOL    H7027956   5.588   0.642   3.248 -0.1170  1.0387 -0.4453
   74MOL    H7127957   5.458   0.533   3.078  0.0732  0.0639 -0.8522
   74MOL    H7227958   5.499   0.781   3.011  2.7585  1.0329  1.0314
   74MOL    H7327959   5.487   0.682   2.875 -0.9154  0.0100  0.5902
   74MOL    H7427960   5.642   0.728   2.923 -0.8898  2.0855  0.0662
   74MOL    H7527961   5.715   0.452   2.940  0.9340 -0.0068  1.6938
   74MOL    H7627962   5.593   0.346   3.025  4.4856  0.0221  1.3727
   74MOL    H7727963   5.564   0.427   2.871 -0.1847 -0.0316  0.0521
   74MOL    C7827964   5.947   0.752   3.170  0.4067  0.1228 -0.4475
   74MOL    C7927965   5.894   0.897   3.156 -0.5637  0.4828 -0.7271
   74MOL    O8027966   5.862   0.950   3.287 -0.3743  0.4903 -0.1212
   74MOL    C8127967   5.733   0.998   3.305  0.5584 -0.6452 -0.7593
   74MOL    C8227968   5.691   0.999   3.453 -0.7705 -0.5985 -0.3991
   74MOL    C8327969   5.781   1.088   3.537 -0.4451 -0.1243  0.2302
   74MOL    C8427970   5.683   0.854   3.503 -0.5263 -0.4493  0.2022
   74MOL    H8527971   6.004   0.722   3.082  1.8882  0.9041  0.2214
   74MOL    H8627972   6.035   0.749   3.235  0.3795  1.3659 -0.3385
   74MOL    H8727973   5.802   0.889   3.098  0.0011 -0.4782 -1.5081
   74MOL    H8827974   5.722   1.096   3.259  0.1648 -1.6483 -2.8249
   74MOL    H8927975   5.660   0.933   3.258 -0.3316  0.9804 -1.6435
   74MOL    H9027976   5.591   1.041   3.463 -1.3962 -2.4376  1.6954
   74MOL    H9127977   5.767   1.071   3.644  0.4003  1.1776  0.5566
   74MOL    H9227978   5.768   1.190   3.503 -1.6446  0.1631  1.5040
   74MOL    H9327979   5.884   1.066   3.510 -1.2411 -2.1331 -1.3147
   74MOL    H9427980   5.651   0.836   3.606  0.5462 -1.5124  0.3646
   74MOL    H9527981   5.775   0.797   3.488  0.5098  0.8801  1.3361
   74MOL    H9627982   5.607   0.810   3.438 -1.4042  1.8160 -0.3617
   74MOL    C9727983   5.995   0.979   3.079  0.1571  0.0172 -0.0976
   74MOL    C9827984   5.954   1.123   3.038  0.0452 -0.0348 -0.3395
   74MOL    O9927985   6.036   1.146   2.923 -0.2816  0.2294 -0.2640
   74MOL   C10027986   5.962   1.132   2.802  0.3553  0.1909 -0.7766
   74MOL   C10127987   5.921   1.273   2.759  0.4081 -0.9028  0.5679
   74MOL   C10227988   6.032   1.386   2.759 -0.7167  0.3633 -0.1662
   74MOL   C10327989   5.841   1.255   2.625  0.5908 -0.1247 -0.1847
   74MOL   H10427990   6.032   0.918   2.996 -0.7622 -0.6394 -0.0226
   74MOL   H10527991   6.073   0.994   3.154  1.5028 -0.3808 -1.3729
   74MOL   H10627992   5.851   1.132   3.001 -0.1377 -1.5229 -0.2200
   74MOL   H10727993   5.876   1.065   2.798  0.7097 -0.3465  0.3456
   74MOL   H10827994   6.032   1.088   2.730  1.3237  0.7793 -0.2068
   74MOL   H10927995   5.846   1.314   2.826 -1.8356  0.1676 -2.4412
   74MOL   H11027996   5.998   1.479   2.714 -4.6005 -0.7777  0.1982
   74MOL   H11127997   6.063   1.406   2.862 -1.6988  0.7408  0.0579
   74MOL   H11227998   6.113   1.338   2.703 -0.2477  0.5595  0.3388
   74MOL   H11327999   5.746   1.205   2.646 -0.0300  1.6583  1.3316
   74MOL   H11428000   5.823   1.360   2.603 -0.1194  0.1801  1.7304
   74MOL   H11528001   5.889   1.206   2.540 -0.7757  1.1229 -1.7120
   74MOL   C11628002   5.968   1.241   3.136 -0.9692  0.4294 -0.0591
   74MOL   C11728003   6.112   1.254   3.195 -0.4413 -0.8572  0.2590
   74MOL   O11828004   6.152   1.389   3.180  0.1838 -0.1937  0.9217
   74MOL   C11928005   6.252   1.404   3.082  0.0777  0.4299  0.5879
   74MOL   C12028006   6.260   1.557   3.050  0.4274 -0.4067 -0.1609
   74MOL   C12128007   6.334   1.637   3.157 -0.2489  0.0655  0.2832
   74MOL   C12228008   6.320   1.598   2.915  0.2536 -0.2300  0.6315
   74MOL   H12328009   5.958   1.333   3.077  1.5718  0.3521 -0.7050
   74MOL   H12428010   5.889   1.256   3.209 -0.3296  0.9498  0.5309
   74MOL   H12528011   6.181   1.183   3.150  2.2605  1.0481  1.2244
   74MOL   H12628012   6.231   1.346   2.993  0.2548  1.2337  0.0126
   74MOL   H12728013   6.345   1.377   3.133  0.1749 -1.1648 -0.3933
   74MOL   H12828014   6.159   1.598   3.051  0.4633 -0.3192  1.1394
   74MOL   H12928015   6.287   1.627   3.255  3.6069 -2.4333  2.0001
   74MOL   H13028016   6.328   1.742   3.130  1.7708  0.3277  0.7169
   74MOL   H13128017   6.439   1.614   3.177 -0.1030 -1.1983 -1.8133
   74MOL   H13228018   6.428   1.584   2.918  0.2372 -0.6204 -0.3983
   74MOL   H13328019   6.268   1.534   2.843 -0.2042  1.0043 -0.1502
   74MOL   H13428020   6.306   1.701   2.882  0.9216 -0.2395  0.3133
   74MOL   C13528021   6.116   1.232   3.348  0.3643 -0.3068 -0.2245
   74MOL   C13628022   6.257   1.250   3.408 -0.0995  0.4878  0.3837
   74MOL   O13728023   6.269   1.226   3.547 -0.2510 -0.3577 -0.8756
   74MOL   C13828024   6.187   1.306   3.628  1.0603 -0.6669 -0.5012
   74MOL   C13928025   6.268   1.337   3.759  0.0846  0.2913  0.1818
   74MOL   C14028026   6.407   1.407   3.727  0.3975  0.4712 -0.2369
   74MOL   C14128027   6.188   1.423   3.851  0.2666  0.4002 -0.5063
   74MOL   H14228028   6.070   1.313   3.405 -0.3732 -0.6817 -0.2869
   74MOL   H14328029   6.061   1.142   3.376  0.0044 -0.0867 -0.2211
   74MOL   H14428030   6.282   1.355   3.392 -0.3420  0.5116  0.1612
   74MOL   H14528031   6.105   1.240   3.655  0.6211 -0.5541 -1.5629
   74MOL   H14628032   6.164   1.403   3.585  0.6443  0.0930  1.3726
   74MOL   H14728033   6.285   1.247   3.819  0.2304  1.1586  1.4445
   74MOL   H14828034   6.410   1.471   3.638  0.9821 -0.6698 -1.0540
   74MOL   H14928035   6.476   1.329   3.694 -0.3014 -1.0145  1.7609
   74MOL   H15028036   6.442   1.461   3.815 -3.2950 -0.3410  1.8310
   74MOL   H15128037   6.143   1.513   3.810  0.1319  0.1286 -0.9588
   74MOL   H15228038   6.094   1.373   3.876  0.8964 -0.5787 -0.0902
   74MOL   H15328039   6.229   1.434   3.952 -1.9800  1.3511  0.3513
   74MOL   C15428040   6.361   1.150   3.337 -0.1791 -0.0039  0.3767
   74MOL   C15528041   6.510   1.160   3.380  0.2817 -0.4035 -0.2079
   74MOL   O15628042   6.567   1.040   3.328  0.3184 -0.8159 -0.4244
   74MOL   C15728043   6.638   0.974   3.430  0.5830  0.5691  0.3514
   74MOL   C15828044   6.685   0.838   3.386  0.3144 -0.3054  0.6246
   74MOL   C15928045   6.750   0.840   3.243 -0.1454 -0.2084  0.4496
   74MOL   C16028046   6.788   0.773   3.487 -0.1099 -0.0826 -0.2933
   74MOL   H16128047   6.355   1.153   3.229  0.1122  0.4962  0.3771
   74MOL   H16228048   6.328   1.048   3.357  1.8566 -0.5210  1.1992
   74MOL   H16328049   6.515   1.170   3.488  4.2626  0.1245 -0.3812
   74MOL   H16428050   6.579   0.963   3.521 -1.4482 -0.4664 -1.0532
   74MOL   H16528051   6.726   1.035   3.446  0.1649  1.4921 -0.8115
   74MOL   H16628052   6.602   0.770   3.367  1.1221 -0.5853 -2.1095
   74MOL   H16728053   6.784   0.740   3.215  0.4748  0.1935 -0.2356
   74MOL   H16828054   6.845   0.891   3.232 -0.2711 -0.1225 -0.2294
   74MOL   H16928055   6.678   0.882   3.173  0.6701  2.0765  0.9638
   74MOL   H17028056   6.860   0.849   3.519  0.1321  0.0234 -1.0838
   74MOL   H17128057   6.730   0.756   3.578  0.2220  1.5696  0.2543
   74MOL   H17228058   6.841   0.685   3.452  1.8771  0.8351  0.2891
   74MOL   C17328059   6.568   1.291   3.316  0.6069  0.2312 -0.3681
   74MOL   C17428060   6.703   1.344   3.368 -0.1593  0.1088  0.2801
   74MOL   O17528061   6.734   1.468   3.306 -0.4856 -0.1017 -0.4215
   74MOL   C17628062   6.768   1.456   3.167  0.4539  0.2905 -0.1745
   74MOL   C17728063   6.817   1.590   3.110  0.8303 -0.0352  0.1558
   74MOL   C17828064   6.713   1.700   3.104  0.0860  0.1458 -0.8280
   74MOL   C17928065   6.944   1.642   3.181 -0.1392 -0.5155 -1.3949
   74MOL   H18028066   6.571   1.272   3.208 -1.4384  1.6472 -0.7062
   74MOL   H18128067   6.494   1.371   3.324  0.5103  0.1750 -0.6920
   74MOL   H18228068   6.780   1.269   3.351  0.2153  0.4530  0.4548
   74MOL   H18328069   6.670   1.432   3.125  1.0995  1.0554 -2.1765
   74MOL   H18428070   6.842   1.377   3.152  1.2928  1.1341 -0.5335
   74MOL   H18528071   6.847   1.568   3.008 -1.0329  1.1155 -0.6689
   74MOL   H18628072   6.756   1.794   3.067 -1.5672  2.1353  2.0747
   74MOL   H18728073   6.620   1.678   3.052  0.6538  0.3897 -1.9537
   74MOL   H18828074   6.685   1.714   3.208  1.8065  1.6216 -0.5344
   74MOL   H18928075   6.997   1.726   3.138  1.8794 -0.4898  1.0537
   74MOL   H19028076   7.021   1.565   3.185  0.3756  0.0268 -0.8104
   74MOL   H19128077   6.921   1.678   3.281 -0.8632 -3.1988 -0.5323
   74MOL   C19228078   6.706   1.388   3.512 -0.3919  0.2234  0.1582
   74MOL   C19328079   6.841   1.449   3.559  0.1224 -0.3075 -0.4050
   74MOL   O19428080   6.936   1.345   3.555 -0.6351  0.4804 -0.2214
   74MOL   C19528081   7.042   1.359   3.461  0.5969 -0.4285 -0.2084
   74MOL   C19628082   7.120   1.229   3.457 -0.1848 -0.0825 -0.6979
   74MOL   C19728083   7.240   1.232   3.375  0.1737  0.5656 -0.5285
   74MOL   C19828084   7.039   1.107   3.413  0.1146 -0.6840  0.0787
   74MOL   H19928085   6.689   1.303   3.580 -0.2171  1.1695  1.4041
   74MOL   H20028086   6.627   1.459   3.534 -1.4611 -1.2023  1.0296
   74MOL   H20128087   6.877   1.530   3.496  1.3377 -2.3682 -2.4386
   74MOL   H20228088   7.111   1.440   3.485  0.6587  0.1403 -2.2325
   74MOL   H20328089   6.995   1.391   3.368  0.6373  0.3746  0.0414
   74MOL   H20428090   7.163   1.219   3.557 -0.0859  1.6307 -0.5621
   74MOL   H20528091   7.325   1.281   3.422  2.6466 -3.1116 -1.0131
   74MOL   H20628092   7.270   1.128   3.362 -0.0975  0.3681  0.4200
   74MOL   H20728093   7.209   1.290   3.287 -1.5105  2.4817  1.2577
   74MOL   H20828094   6.995   1.140   3.319 -0.5959 -0.4976  0.4754
   74MOL   H20928095   7.097   1.019   3.385 -2.6000 -1.8591 -2.1438
   74MOL   H21028096   6.958   1.093   3.484  1.6394 -1.0649  1.7855
   74MOL   C21128097   6.832   1.497   3.703  0.1265  0.1081 -0.3591
   74MOL   C21228098   6.797   1.646   3.714 -0.1135 -0.7732  0.6423
   74MOL   O21328099   6.680   1.673   3.641 -0.0139  0.0899 -0.1810
   74MOL   C21428100   6.666   1.807   3.589 -0.3792  0.8743 -0.0714
   74MOL   C21528101   6.518   1.829   3.568  0.0667  0.2864  0.1402
   74MOL   C21628102   6.456   1.734   3.459  0.1962 -0.6900 -0.2567
   74MOL   C21728103   6.443   1.819   3.699  0.2156  0.2067  0.0089
   74MOL   H21828104   6.926   1.483   3.758  0.2164 -0.6992 -0.7042
   74MOL   H21928105   6.764   1.433   3.759  1.5511 -0.5057  0.7124
   74MOL   H22028106   6.879   1.700   3.668 -0.9965  0.2923  0.2843
   74MOL   H22128107   6.731   1.806   3.501 -1.2019 -1.8314 -0.6986
   74MOL   H22228108   6.694   1.877   3.668  1.2267  1.5196 -1.1573
   74MOL   H22328109   6.507   1.928   3.524  0.2667 -0.4962 -1.7172
   74MOL   H22428110   6.359   1.775   3.430  0.5940  0.6418  0.2637
   74MOL   H22528111   6.512   1.704   3.370 -1.6236  1.5837 -2.2664
   74MOL   H22628112   6.443   1.640   3.512  1.6448 -0.1695  1.0411
   74MOL   H22728113   6.473   1.884   3.782  0.8097  1.3650 -1.0949
   74MOL   H22828114   6.427   1.719   3.739 -0.0316  0.5236  0.7004
   74MOL   H22928115   6.338   1.845   3.691 -0.3767 -1.3443  2.2224
   74MOL   C23028116   6.762   1.698   3.853  0.2347  0.0616  0.0397
   74MOL   C23128117   6.886   1.679   3.948  0.1812 -0.6755  0.0335
   74MOL   O23228118   7.001   1.719   3.874 -1.0399 -0.9578  0.1993
   74MOL   C23328119   7.122   1.711   3.944  0.7858 -0.0314  0.3036
   74MOL   C23428120   7.179   1.572   3.966 -0.5851 -0.5806  0.4777
   74MOL   C23528121   7.223   1.527   3.829 -0.1927 -0.3340 -0.5595
   74MOL   C23628122   7.284   1.573   4.075  0.3533  0.3650 -0.0313
   74MOL   H23728123   6.688   1.627   3.891 -2.2988  2.4335 -0.2775
   74MOL   H23828124   6.727   1.800   3.871  3.0937  0.9103  1.0752
   74MOL   H23928125   6.893   1.575   3.980  1.2715 -0.0618  1.7968
   74MOL   H24028126   7.182   1.782   3.887 -1.6373  3.3319  1.7001
   74MOL   H24128127   7.117   1.765   4.039 -0.3819 -1.5640  1.1363
   74MOL   H24228128   7.098   1.510   4.004  0.0668  0.4926  3.8438
   74MOL   H24328129   7.141   1.503   3.761 -1.1702  4.0602 -1.0596
   74MOL   H24428130   7.282   1.436   3.831  2.1942  1.1950  3.1556
   74MOL   H24528131   7.272   1.608   3.776  0.2372 -0.1103  0.1761
   74MOL   H24628132   7.238   1.581   4.173  1.2193  1.5887  0.2825
   74MOL   H24728133   7.332   1.475   4.082  1.4455  0.8515 -0.6032
   74MOL   H24828134   7.361   1.649   4.069 -1.2623  1.8631 -2.7942
   74MOL   C24928135   6.861   1.765   4.079 -0.0293 -0.4163 -0.1735
   74MOL   C25028136   6.738   1.725   4.157 -0.6944  0.2300  0.0417
   74MOL   O25128137   6.746   1.581   4.182 -0.0781  0.4434  0.0865
   74MOL   C25228138   6.623   1.519   4.208 -0.4382 -0.2107 -0.1049
   74MOL   C25328139   6.615   1.416   4.099  0.1174  0.0986  0.1746
   74MOL   C25428140   6.474   1.363   4.104  1.1645  0.3158 -0.0224
   74MOL   C25528141   6.718   1.302   4.116 -0.9481  0.1402 -0.2071
   74MOL   H25628142   6.842   1.871   4.067  1.7058 -0.1390 -0.6244
   74MOL   H25728143   6.945   1.752   4.147 -0.4751 -0.2073  0.4229
   74MOL   H25828144   6.656   1.750   4.090 -1.0829 -1.8612 -0.3181
   74MOL   H25928145   6.607   1.479   4.308 -0.0360 -0.6041 -0.1956
   74MOL   H26028146   6.548   1.597   4.192  0.1000 -0.0201 -1.8294
   74MOL   H26128147   6.639   1.455   4.001  1.3970  0.5422  0.6598
   74MOL   H26228148   6.467   1.292   4.187 -0.8517 -0.2160 -0.6291
   74MOL   H26328149   6.456   1.309   4.011 -1.8555  0.9207  0.1882
   74MOL   H26428150   6.389   1.429   4.117  2.2990  1.9653 -0.7743
   74MOL   H26528151   6.694   1.238   4.202 -0.5965  1.1424  0.6509
   74MOL   H26628152   6.700   1.248   4.023  1.2534  0.9692 -1.1365
   74MOL   H26728153   6.820   1.341   4.120  0.0444 -2.2502 -1.0192
   74MOL   C26828154   6.725   1.783   4.297  0.4023  0.8973  0.0254
   74MOL   C26928155   6.701   1.936   4.307 -0.1513  0.1012  0.0634
   74MOL   O27028156   6.709   1.980   4.440  0.4288 -0.0760  0.1197
   74MOL   C27128157   6.841   2.006   4.491  0.2206  0.1720 -0.5497
   74MOL   C27228158   6.840   2.107   4.602  0.2443 -0.4656  0.2648
   74MOL   C27328159   6.985   2.126   4.665  0.4516  0.4609  0.3740
   74MOL   C27428160   6.780   2.244   4.559  0.5173 -0.5240  0.0013
   74MOL   H27528161   6.821   1.772   4.347  0.1402  2.0959  0.8156
   74MOL   H27628162   6.654   1.725   4.356  1.8951 -0.5151  0.4507
   74MOL   H27728163   6.781   1.989   4.256 -0.3870  0.1635 -0.2405
   74MOL   H27828164   6.875   1.908   4.526  1.4608  1.3611  1.6763
   74MOL   H27928165   6.907   2.038   4.411  2.2386  0.0497  1.0390
   74MOL   H28028166   6.771   2.066   4.676 -1.7731  0.3473 -1.1286
   74MOL   H28128167   7.059   2.170   4.599 -1.3145  1.9814 -0.6585
   74MOL   H28228168   7.014   2.035   4.717 -2.6987  0.4557  2.2651
   74MOL   H28328169   6.956   2.189   4.750  0.5818 -0.5480  1.1768
   74MOL   H28428170   6.791   2.316   4.640 -2.6635  0.4462 -0.3508
   74MOL   H28528171   6.674   2.236   4.534  0.1507  0.5900  1.1938
   74MOL   H28628172   6.835   2.284   4.474 -0.3138 -0.2190 -0.4043
   74MOL   C28728173   6.550   1.973   4.267 -0.9099 -0.1395 -0.1389
   74MOL   C28828174   6.523   2.127   4.273  0.5498  0.3124 -0.4683
   74MOL   O28928175   6.379   2.154   4.280  0.1651  0.1797 -0.5457
   74MOL   C29028176   6.324   2.181   4.413  0.2200 -0.4954 -0.1459
   74MOL   C29128177   6.169   2.202   4.411  0.5705 -0.0262  0.6820
   74MOL   C29228178   6.123   2.336   4.350  0.5325 -0.3168 -0.1986
   74MOL   C29328179   6.097   2.181   4.542  0.1935  0.0799  0.8997
   74MOL   H29428180   6.480   1.921   4.332  0.1915 -1.8068 -0.2335
   74MOL   H29528181   6.521   1.940   4.167  1.6803 -0.9831 -0.6613
   74MOL   H29628182   6.569   2.176   4.359  1.4729 -1.4845  0.0726
   74MOL   H29728183   6.345   2.089   4.467  1.9909 -0.6964 -1.1385
   74MOL   H29828184   6.373   2.272   4.449 -0.1587  0.1955 -1.3307
   74MOL   H29928185   6.143   2.118   4.346 -0.4559  1.9594 -1.5733
   74MOL   H30028186   6.126   2.425   4.412  1.4817  0.6601 -1.6066
   74MOL   H30128187   6.017   2.334   4.324  0.8465  1.1762 -1.6952
   74MOL   H30228188   6.177   2.361   4.258 -0.7533 -0.1216 -0.9217
   74MOL   H30328189   6.115   2.077   4.570 -0.3929 -0.9333 -2.2431
   74MOL   H30428190   6.139   2.239   4.624  1.3455 -1.4391  1.4080
   74MOL   H30528191   5.993   2.208   4.525  0.8839  1.7401 -0.9314
   74MOL   C30628192   6.569   2.207   4.146  0.6004 -0.2675 -0.0230
   74MOL   C30728193   6.558   2.363   4.150  0.2307 -0.1654 -0.1935
   74MOL   O30828194   6.634   2.408   4.267  0.3989  0.5596  0.5188
   74MOL   C30928195   6.645   2.548   4.293 -0.1140  0.3771  0.0900
   74MOL   C31028196   6.682   2.570   4.429  0.0201 -0.2752 -0.5450
   74MOL   C31128197   6.580   2.516   4.533  0.5721  0.0075  0.3259
   74MOL   C31228198   6.715   2.722   4.461 -0.3769 -0.9912 -0.0014
   74MOL   H31328199   6.523   2.172   4.054  1.5643 -0.5492 -0.4031
   74MOL   H31428200   6.675   2.189   4.127  0.6485 -1.1795  1.0533
   74MOL   H31528201   6.459   2.400   4.174  0.8543  1.7932 -0.5001
   74MOL   H31628202   6.548   2.593   4.271 -0.6761 -1.3536 -1.0727
   74MOL   H31728203   6.719   2.588   4.224  0.1726  1.2034  0.8613
   74MOL   H31828204   6.777   2.519   4.447 -0.9576 -1.5920  1.0814
   74MOL   H31928205   6.537   2.417   4.516  0.7044  0.0465 -0.2241
   74MOL   H32028206   6.501   2.590   4.548 -1.2652 -1.5343 -1.3591
   74MOL   H32128207   6.619   2.508   4.635  0.2596 -1.6268  0.3256
   74MOL   H32228208   6.746   2.726   4.566 -2.3129  1.2857  0.5256
   74MOL   H32328209   6.623   2.779   4.447  0.4042  0.2942  0.0239
   74MOL   H32428210   6.794   2.754   4.393 -0.9335  1.1909  0.3240
   74MOL   C32528211   6.593   2.436   4.016 -0.5969  0.4313 -0.5443
   74MOL   C32628212   6.492   2.433   3.897  0.4947  0.9110  0.1968
   74MOL   O32728213   6.485   2.559   3.835 -0.5620  0.4903  0.7787
   74MOL   C32828214   6.395   2.652   3.887  0.2169 -0.2059  0.1409
   74MOL   C32928215   6.396   2.782   3.800 -0.8509 -0.4921  0.4787
   74MOL   C33028216   6.269   2.872   3.827  0.6008  0.0385  0.5796
   74MOL   C33128217   6.520   2.873   3.811  0.2046  0.2682 -0.2110
   74MOL   H33228218   6.690   2.396   3.987 -0.9300 -0.6216 -0.2443
   74MOL   H33328219   6.610   2.541   4.041  0.6988 -0.1408  1.0651
   74MOL   H33428220   6.391   2.407   3.928  0.2607 -1.7079 -2.6416
   74MOL   H33528221   6.300   2.599   3.878  0.6154 -0.8848 -0.0900
   74MOL   H33628222   6.418   2.668   3.993  0.6342 -0.4767  0.0900
   74MOL   H33728223   6.390   2.748   3.696  0.0734  0.5267  0.0797
   74MOL   H33828224   6.175   2.821   3.808  0.2042  1.3822 -1.1856
   74MOL   H33928225   6.269   2.919   3.925 -1.8227  1.0263  0.1369
   74MOL   H34028226   6.269   2.959   3.761 -0.0600 -0.5832 -0.2619
   74MOL   H34128227   6.517   2.959   3.744  0.4753  1.0442  0.7733
   74MOL   H34228228   6.537   2.911   3.911 -1.0442 -1.9577  0.8839
   74MOL   H34328229   6.610   2.816   3.785  1.9090  3.0184 -0.4606
   74MOL   C34428230   6.539   2.328   3.781  0.6801  0.1058 -0.1849
   74MOL   C34528231   6.436   2.313   3.669 -0.0219  0.1097 -0.4936
   74MOL   O34628232   6.504   2.287   3.545  0.8376 -0.5328 -0.1680
   74MOL   C34728233   6.568   2.397   3.482 -0.2757 -0.1076  0.1834
   74MOL   C34828234   6.697   2.355   3.410  0.0219 -0.0692 -1.0556
   74MOL   C34928235   6.792   2.286   3.506 -0.0941  0.4000 -0.1138
   74MOL   C35028236   6.758   2.481   3.339  0.4927 -1.0945  0.1599
   74MOL   H35128237   6.562   2.230   3.824 -0.6837 -0.0133  0.2844
   74MOL   H35228238   6.636   2.371   3.756  0.6359  2.0068  2.6444
   74MOL   H35328239   6.384   2.408   3.653  1.0145  0.7780  0.1322
   74MOL   H35428240   6.579   2.482   3.549  0.1926 -1.8212  2.3370
   74MOL   H35528241   6.504   2.443   3.407  1.2551  0.1347 -1.0006
   74MOL   H35628242   6.673   2.285   3.330 -0.1454 -0.4723 -0.6564
   74MOL   H35728243   6.812   2.346   3.594  1.6392 -1.3980  0.7724
   74MOL   H35828244   6.887   2.272   3.455  0.7794  1.5496  1.1591
   74MOL   H35928245   6.766   2.181   3.518 -0.3064  0.3639 -0.8474
   74MOL   H36028246   6.713   2.504   3.242 -0.2677 -1.1957  0.4834
   74MOL   H36128247   6.746   2.571   3.400  2.2228  1.1474 -2.6892
   74MOL   H36228248   6.863   2.476   3.311  1.0834  0.4114  1.9876
   74MOL   C36328249   6.332   2.208   3.697  0.3464  0.2853  0.1071
   74MOL   C36428250   6.213   2.202   3.611 -0.1063 -0.5863 -0.6324
   74MOL   O36528251   6.128   2.096   3.620  0.3796  0.0626 -0.1413
   74MOL   C36628252   5.996   2.130   3.589 -0.6478  0.0304 -0.3948
   74MOL   C36728253   5.931   1.995   3.628 -0.2882  0.5696  0.3182
   74MOL   C36828254   5.928   1.890   3.511  0.1052 -0.0892  0.6817
   74MOL   C36928255   5.793   2.021   3.688  0.0509 -0.7967  0.4205
   74MOL   H37028256   6.388   2.114   3.690  0.6860  0.4809  0.1764
   74MOL   H37128257   6.299   2.220   3.800 -1.7275 -1.2717 -0.3378
   74MOL   H37228258   6.255   2.200   3.510  1.5275 -2.5644  0.0508
   74MOL   H37328259   5.964   2.206   3.661  2.5131  0.4370  0.6932
   74MOL   H37428260   5.990   2.157   3.484  0.8223 -1.0987 -0.7828
   74MOL   H37528261   5.983   1.947   3.712 -1.1556  0.0849  0.5805
   74MOL   H37628262   6.026   1.852   3.481  0.5909  0.5241  1.4623
   74MOL   H37728263   5.874   1.924   3.423  0.2112  1.3863  1.1798
   74MOL   H37828264   5.862   1.807   3.538 -1.0500  1.2406  2.0583
   74MOL   H37928265   5.740   1.927   3.674  0.3425 -1.1894  1.8379
   74MOL   H38028266   5.733   2.101   3.647 -0.3709 -0.3456  1.8743
   74MOL   H38128267   5.798   2.030   3.797  1.0192  0.5221  0.2900
   74MOL   H38228268   6.159   2.296   3.624 -1.7346 -1.6746  0.7255
   75MOL     C128269   6.076   1.031   2.409  0.5052 -0.7463  0.1373
   75MOL     C228270   6.004   0.929   2.319  0.3740  0.4031 -0.2445
   75MOL     O328271   5.972   0.993   2.193  0.0203 -0.6985 -0.3988
   75MOL     C428272   5.846   0.962   2.155  0.0731  0.0550  0.0265
   75MOL     C528273   5.842   0.980   2.004 -0.3336  0.3512  0.3553
   75MOL     C628274   5.846   1.129   1.969  0.2057 -0.0266  0.0407
   75MOL     C728275   5.736   0.889   1.936 -0.2334 -0.1798 -0.3856
   75MOL     H828276   6.178   1.045   2.372  0.0974  0.4249 -0.5586
   75MOL     H928277   6.030   1.128   2.391 -1.1202 -1.7521 -1.2846
   75MOL    H1028278   5.915   0.898   2.375 -0.1636  1.0865 -0.7074
   75MOL    H1128279   5.784   1.031   2.213  0.0104  1.3981 -1.6195
   75MOL    H1228280   5.820   0.859   2.180  0.1810  0.6682  2.8979
   75MOL    H1328281   5.933   0.939   1.961 -1.4516 -0.0647 -1.7027
   75MOL    H1428282   5.903   1.183   2.044 -0.8038  0.8515  0.1853
   75MOL    H1528283   5.885   1.150   1.869 -1.7737 -0.4835 -0.8480
   75MOL    H1628284   5.745   1.170   1.970  0.8915  1.8056 -1.3234
   75MOL    H1728285   5.752   0.783   1.958  2.9282  0.4369  0.4024
   75MOL    H1828286   5.634   0.918   1.961 -0.9734 -2.7639 -0.2139
   75MOL    H1928287   5.746   0.892   1.827 -1.6698  0.2680 -0.5166
   75MOL    H2028288   6.081   1.010   2.516 -0.5572 -1.7881 -0.0146
   75MOL    C2128289   6.095   0.808   2.285  0.0890  0.0848  0.1743
   75MOL    C2228290   6.131   0.731   2.406 -0.1318  0.3969 -0.2894
   75MOL    O2328291   6.012   0.703   2.477  0.5450 -0.5531  0.4404
   75MOL    C2428292   6.013   0.720   2.620 -0.4741 -0.2204  0.1754
   75MOL    C2528293   5.876   0.697   2.682 -0.0583  0.0391  0.2286
   75MOL    C2628294   5.765   0.786   2.630 -0.6790  0.1973  0.2369
   75MOL    C2728295   5.823   0.553   2.672 -0.6161  0.0580 -0.1198
   75MOL    H2828296   6.041   0.738   2.221 -0.5914  0.9472 -0.2052
   75MOL    H2928297   6.188   0.834   2.234 -0.9381  0.7043 -1.4258
   75MOL    H3028298   6.188   0.798   2.471  2.4081 -4.3715  2.7365
   75MOL    H3128299   6.062   0.811   2.654  0.1358 -0.2321 -0.6615
   75MOL    H3228300   6.076   0.641   2.662 -0.6385  1.0094  2.8381
   75MOL    H3328301   5.893   0.730   2.785  2.5756  1.0106 -0.4954
   75MOL    H3428302   5.753   0.761   2.524  0.5864  0.7741 -0.0534
   75MOL    H3528303   5.780   0.894   2.634 -0.9924  0.2301  0.5675
   75MOL    H3628304   5.671   0.763   2.681  1.6205 -2.4422  3.5154
   75MOL    H3728305   5.898   0.486   2.714 -0.9993 -1.2341 -1.4339
   75MOL    H3828306   5.729   0.522   2.715  0.5969 -3.2858  0.2318
   75MOL    H3928307   5.817   0.535   2.564  0.2752  0.0132 -0.1715
   75MOL    C4028308   6.213   0.596   2.390 -0.2525  0.0048 -0.4855
   75MOL    C4128309   6.351   0.616   2.325  0.3269  0.5007 -0.0494
   75MOL    O4228310   6.392   0.480   2.284 -0.7956  0.2327 -0.5907
   75MOL    C4328311   6.498   0.463   2.199  0.1742 -0.0328 -0.5661
   75MOL    C4428312   6.538   0.312   2.207  0.2329 -0.7025  0.6850
   75MOL    C4528313   6.541   0.263   2.356  0.4390  0.3001  0.9810
   75MOL    C4628314   6.428   0.234   2.126  0.1255  0.7414 -0.0296
   75MOL    H4728315   6.140   0.537   2.335 -0.8663 -1.2486  1.6352
   75MOL    H4828316   6.217   0.545   2.485  0.9882  2.1427  0.6609
   75MOL    H4928317   6.342   0.667   2.229  0.1511 -0.3610 -0.4930
   75MOL    H5028318   6.584   0.526   2.222 -1.0985  1.9019 -1.0472
   75MOL    H5128319   6.479   0.494   2.097  0.7116  0.1716 -0.6085
   75MOL    H5228320   6.631   0.306   2.151  1.1937 -0.6072  2.2558
   75MOL    H5328321   6.620   0.322   2.403  0.5762  2.2890 -1.6141
   75MOL    H5428322   6.444   0.267   2.406  0.3607  1.7644  0.7402
   75MOL    H5528323   6.564   0.156   2.362 -2.0077 -0.3976 -1.1873
   75MOL    H5628324   6.331   0.259   2.169 -0.2881 -0.5230 -0.2180
   75MOL    H5728325   6.448   0.128   2.142  2.1203  0.9309 -0.9939
   75MOL    H5828326   6.393   0.256   2.025 -0.2413  1.8587  0.3248
   75MOL    C5928327   6.443   0.709   2.414 -0.1563  0.5750 -0.3160
   75MOL    C6028328   6.458   0.679   2.567 -0.4200 -0.2919 -0.6059
   75MOL    O6128329   6.502   0.790   2.643  0.1752 -0.0028 -0.2724
   75MOL    C6228330   6.395   0.864   2.691  0.3307 -0.6982 -0.4774
   75MOL    C6328331   6.441   0.995   2.769 -0.2471 -0.5213  0.4806
   75MOL    C6428332   6.343   1.109   2.758 -0.2229  0.1624 -0.1286
   75MOL    C6528333   6.479   0.970   2.911  0.4909  0.9138  0.4087
   75MOL    H6628334   6.416   0.814   2.410 -1.8564  0.3520  3.2531
   75MOL    H6728335   6.546   0.699   2.378 -0.4023  1.7827 -1.4038
   75MOL    H6828336   6.368   0.639   2.614  1.1732 -2.7306  0.4260
   75MOL    H6928337   6.339   0.904   2.607 -0.5832  0.2359  0.5532
   75MOL    H7028338   6.324   0.814   2.757 -0.7919 -1.6693 -2.3905
   75MOL    H7128339   6.528   1.034   2.717  0.1555 -1.2194  0.6326
   75MOL    H7228340   6.243   1.076   2.785 -0.3943  1.0167  0.3129
   75MOL    H7328341   6.340   1.151   2.657  2.5419 -1.5183 -0.9546
   75MOL    H7428342   6.382   1.184   2.827  1.6848  1.6168 -2.7184
   75MOL    H7528343   6.543   1.043   2.959  2.6430 -1.1343  0.7711
   75MOL    H7628344   6.387   0.957   2.967  0.3468 -0.1930 -0.0577
   75MOL    H7728345   6.537   0.878   2.924  0.1461  0.7203  0.5865
   75MOL    C7828346   6.566   0.568   2.576  0.0782 -0.4169 -0.1806
   75MOL    C7928347   6.600   0.524   2.727 -0.1867 -0.6546 -0.1395
   75MOL    O8028348   6.645   0.393   2.728 -0.1501 -0.1204  0.4892
   75MOL    C8128349   6.545   0.291   2.747  0.0574 -0.2311 -0.7768
   75MOL    C8228350   6.595   0.158   2.701 -0.0506  0.2816 -0.4531
   75MOL    C8328351   6.486   0.062   2.659 -0.7416  0.3928  0.7038
   75MOL    C8428352   6.692   0.100   2.801  0.1754 -0.4385 -0.3556
   75MOL    H8528353   6.664   0.596   2.538 -0.8778 -1.1649 -3.3415
   75MOL    H8628354   6.537   0.480   2.519 -0.3260  0.0570 -0.7148
   75MOL    H8728355   6.508   0.529   2.786 -0.6478 -0.0529 -0.8888
   75MOL    H8828356   6.505   0.300   2.848  1.1262 -3.5701  0.0206
   75MOL    H8928357   6.469   0.324   2.677  0.0458  0.8540 -0.2603
   75MOL    H9028358   6.646   0.164   2.605 -0.8150 -0.4618 -0.9051
   75MOL    H9128359   6.534   7.792   2.633  1.2276  1.4321  0.4816
   75MOL    H9228360   6.418   0.102   2.583 -1.3658 -1.0319  0.5016
   75MOL    H9328361   6.427   0.039   2.747 -0.6792 -0.9738  0.4020
   75MOL    H9428362   6.652   0.084   2.901 -0.1078 -0.1315 -0.4195
   75MOL    H9528363   6.778   0.166   2.814  1.3640 -2.1318  0.6971
   75MOL    H9628364   6.725   0.003   2.762  2.2373 -0.2033  0.7217
   75MOL    C9728365   6.711   0.597   2.811 -0.5760 -0.1505  0.3455
   75MOL    C9828366   6.861   0.563   2.778 -0.4411 -0.8974  0.6403
   75MOL    O9928367   6.946   0.633   2.869 -0.4119 -0.1883 -0.2634
   75MOL   C10028368   7.033   0.553   2.938 -0.7213  0.7143  0.5380
   75MOL   C10128369   7.142   0.630   3.009 -0.2661 -0.6659 -0.4919
   75MOL   C10228370   7.212   0.720   2.908  0.2579 -0.6859 -0.4059
   75MOL   C10328371   7.099   0.693   3.144  0.3984 -0.3158  0.0987
   75MOL   H10428372   6.685   0.576   2.915  1.8280 -0.7931  0.8315
   75MOL   H10528373   6.701   0.705   2.802  2.5715  0.2591  1.4194
   75MOL   H10628374   6.858   0.457   2.805 -2.0452 -0.5923  1.7236
   75MOL   H10728375   7.081   0.488   2.865 -4.4059  0.1061 -1.4115
   75MOL   H10828376   6.985   0.477   2.999  0.0074  1.3336  1.9212
   75MOL   H10928377   7.218   0.560   3.042  0.1474  0.3965  0.8759
   75MOL   H11028378   7.141   0.774   2.845  0.4680 -0.5439 -0.5232
   75MOL   H11128379   7.284   0.790   2.951  0.8804 -2.1407  0.9700
   75MOL   H11228380   7.263   0.659   2.833  0.0016  0.6249 -1.6711
   75MOL   H11328381   7.181   0.754   3.182  0.2227 -0.1198  0.1614
   75MOL   H11428382   7.015   0.757   3.117  0.6864 -0.9850 -2.5542
   75MOL   H11528383   7.073   0.630   3.228 -1.3507  0.4079  0.1187
   75MOL   C11628384   6.913   0.593   2.641  0.5024  0.3544  0.2587
   75MOL   C11728385   6.916   0.465   2.554  0.6039 -0.2376 -0.1077
   75MOL   O11828386   6.970   0.495   2.431  0.3357  0.1378  0.2268
   75MOL   C11928387   6.890   0.565   2.333  0.0309  0.5625  0.3232
   75MOL   C12028388   6.974   0.583   2.201  0.1113  0.3586  0.7839
   75MOL   C12128389   7.020   0.448   2.147 -0.1767  0.4912 -0.0077
   75MOL   C12228390   6.879   0.648   2.108  1.0239 -0.3689  0.8269
   75MOL   H12328391   6.853   0.677   2.606 -1.8238 -1.5013 -0.3232
   75MOL   H12428392   7.015   0.632   2.644  0.2531  1.1077 -0.8354
   75MOL   H12528393   6.812   0.435   2.543  0.4058  1.7151 -4.2016
   75MOL   H12628394   6.862   0.665   2.364 -0.1399  0.2231  1.2855
   75MOL   H12728395   6.796   0.516   2.310  0.4163 -0.5233  1.0038
   75MOL   H12828396   7.061   0.644   2.223  0.5424  1.0564 -2.5068
   75MOL   H12928397   6.926   0.398   2.124  0.4042 -0.3847 -0.4998
   75MOL   H13028398   7.065   0.387   2.225 -1.8024 -0.7715 -0.0222
   75MOL   H13128399   7.090   0.441   2.064  3.1921  0.8605  2.7238
   75MOL   H13228400   6.841   0.741   2.151  1.2938  0.4414 -0.6709
   75MOL   H13328401   6.940   0.677   2.023 -0.0916  0.1920  0.2059
   75MOL   H13428402   6.797   0.581   2.080  0.8232 -0.2864  1.2089
   75MOL   C13528403   7.018   0.359   2.608 -0.6742  0.6869 -0.4017
   75MOL   C13628404   7.057   0.237   2.520 -0.0779  0.4063 -0.0278
   75MOL   O13728405   7.141   0.155   2.593 -0.6179 -0.3299 -0.0517
   75MOL   C13828406   7.281   0.186   2.596 -1.0043  0.1525  0.0294
   75MOL   C13928407   7.345   0.045   2.575 -0.3157 -0.1158 -0.0912
   75MOL   C14028408   7.498   0.056   2.593  0.0117  0.5570  0.6911
   75MOL   C14128409   7.287   7.755   2.664  0.6366  0.7805  0.3585
   75MOL   H14228410   7.103   0.417   2.645 -0.2061 -0.0608 -0.2881
   75MOL   H14328411   6.970   0.316   2.696  1.3405  1.5041  1.1587
   75MOL   H14428412   7.110   0.283   2.435  1.5120  1.5487  1.5341
   75MOL   H14528413   7.305   0.229   2.693 -3.5885 -0.1529  0.8569
   75MOL   H14628414   7.299   0.251   2.511  0.6537 -0.7189 -0.3005
   75MOL   H14728415   7.328   0.023   2.469 -0.9792  2.1578 -0.4763
   75MOL   H14828416   7.547   7.784   2.581 -0.1678  0.3577  1.5045
   75MOL   H14928417   7.524   0.086   2.695  2.4495  0.6992  0.0476
   75MOL   H15028418   7.548   0.117   2.518  1.0361 -0.0762  0.8521
   75MOL   H15128419   7.299   7.782   2.769  0.3343 -0.0591  0.6166
   75MOL   H15228420   7.186   7.720   2.645  2.3945 -3.1341 -2.6640
   75MOL   H15328421   7.351   7.670   2.639 -0.6106 -0.2193  0.5286
   75MOL   C15428422   6.927   0.155   2.488  0.5816  0.3724  0.0754
   75MOL   C15528423   6.958   0.039   2.388  0.4150 -0.4231  0.6393
   75MOL   O15628424   6.846   7.782   2.363  0.1470 -0.3324 -0.1675
   75MOL   C15728425   6.848   7.668   2.445 -0.0223  0.8038  0.4709
   75MOL   C15828426   6.731   7.591   2.420  0.3751  0.5529 -0.1556
   75MOL   C15928427   6.740   7.549   2.273  0.2049  0.8070  0.4564
   75MOL   C16028428   6.723   7.464   2.517  0.7892 -0.8673 -0.4748
   75MOL   H16128429   6.851   0.220   2.445  0.1998 -0.7494 -1.0050
   75MOL   H16228430   6.875   0.119   2.576 -0.5300  0.7705 -0.4042
   75MOL   H16328431   7.037   7.805   2.436  0.2872  0.4404  1.9277
   75MOL   H16428432   6.863   7.693   2.551  0.9587  0.5051  0.4105
   75MOL   H16528433   6.930   7.597   2.431 -0.5379  0.0664  1.1355
   75MOL   H16628434   6.637   7.643   2.437  0.5843 -0.0327  3.0158
   75MOL   H16728435   6.738   7.632   2.202  0.1284 -0.7175 -1.3753
   75MOL   H16828436   6.644   7.500   2.256 -0.6976  1.6221  2.9891
   75MOL   H16928437   6.830   7.492   2.249 -0.7896 -0.4614 -0.2911
   75MOL   H17028438   6.727   7.503   2.619  1.2184  1.0908 -1.2148
   75MOL   H17128439   6.629   7.409   2.509  0.9078 -0.9632 -1.2539
   75MOL   H17228440   6.805   7.394   2.501  0.6119 -0.6165 -2.6671
   75MOL   C17328441   7.016   0.089   2.251 -0.0179 -0.3805 -0.0736
   75MOL   C17428442   7.076   7.795   2.175  0.1196  1.1177  0.1012
   75MOL   O17528443   7.102   0.012   2.041 -0.2236  0.5439  0.0888
   75MOL   C17628444   7.000   7.804   1.944 -0.3422  0.5272  0.4555
   75MOL   C17728445   7.048   0.036   1.807 -0.0386 -0.4067  1.0975
   75MOL   C17828446   7.060   0.188   1.802  0.1448 -0.1387  0.0761
   75MOL   C17928447   7.176   7.786   1.758 -0.6637 -0.4605 -0.8429
   75MOL   H18028448   6.941   0.141   2.193 -1.1253 -2.1190 -0.2547
   75MOL   H18128449   7.093   0.166   2.262  0.2097 -0.6425  0.1995
   75MOL   H18228450   7.006   7.711   2.177  0.8311  0.5016 -0.8200
   75MOL   H18328451   6.907   0.035   1.960 -1.3104 -0.5495 -1.4021
   75MOL   H18428452   6.978   7.698   1.953 -3.2959  1.2515  3.1029
   75MOL   H18528453   6.969   0.001   1.741  1.4847 -1.9304  0.0369
   75MOL   H18628454   7.141   0.225   1.865  0.6897  1.2368 -1.3821
   75MOL   H18728455   7.094   0.221   1.704 -1.6800 -0.9923 -0.8718
   75MOL   H18828456   6.971   0.236   1.842 -1.0941 -2.5728  0.3522
   75MOL   H18928457   7.181   7.777   1.649  1.7331 -2.2452 -0.6184
   75MOL   H19028458   7.172   7.687   1.803 -0.6109 -0.5683 -1.0768
   75MOL   H19128459   7.264   0.012   1.796 -0.4924 -0.9633 -0.5748
   75MOL   C19228460   7.205   7.741   2.232  0.2811 -0.0106 -0.2327
   75MOL   C19328461   7.252   7.614   2.164  0.0616 -0.0381 -0.9242
   75MOL   O19428462   7.173   7.507   2.212  0.2391  0.4634 -0.4882
   75MOL   C19528463   7.196   7.379   2.154  0.2433 -1.0903  0.2435
   75MOL   C19628464   7.073   7.298   2.204 -0.4130 -0.7660 -0.4591
   75MOL   C19728465   7.058   7.281   2.352  0.4389 -0.3918  0.0292
   75MOL   C19828466   7.065   7.151   2.150  0.0357 -0.1425 -0.9771
   75MOL   H19928467   7.191   7.725   2.338 -1.5364  3.8442  0.1908
   75MOL   H20028468   7.284   7.816   2.225 -0.1253  0.4646  0.2640
   75MOL   H20128469   7.235   7.625   2.057 -0.7514  1.8604 -0.6293
   75MOL   H20228470   7.289   7.337   2.194  0.5154 -0.7377 -0.0143
   75MOL   H20328471   7.201   7.397   2.046 -2.3859 -1.7094  0.0048
   75MOL   H20428472   6.982   7.350   2.172  0.0062  0.4219  0.2493
   75MOL   H20528473   7.136   7.220   2.396  0.3946  0.2528  1.0272
   75MOL   H20628474   7.072   7.374   2.408  1.1708  0.0692 -0.9161
   75MOL   H20728475   6.964   7.230   2.376  0.5266 -0.3786  0.4063
   75MOL   H20828476   7.052   7.148   2.042  0.8397 -3.2739 -1.0597
   75MOL   H20928477   7.157   7.102   2.182 -1.6165 -1.3818  2.2061
   75MOL   H21028478   6.980   7.100   2.196  0.4942 -0.1149 -0.0859
   75MOL   C21128479   7.401   7.591   2.193  0.4428  0.3386 -0.0840
   75MOL   C21228480   7.513   7.699   2.180  0.3779  0.2953  0.4082
   75MOL   O21328481   7.647   7.643   2.190 -0.8053 -0.3657  0.3222
   75MOL   C21428482   7.695   7.612   2.319 -0.7825  0.3489  0.6750
   75MOL   C21528483   0.025   7.613   2.312  0.4448 -0.0691  1.2275
   75MOL   C21628484   0.087   7.748   2.280 -0.9626 -0.3884  0.1127
   75MOL   C21728485   0.091   7.548   2.426 -0.6206 -0.3651  0.0387
   75MOL   H21828486   7.440   7.511   2.130  3.0657 -0.0617  1.9907
   75MOL   H21928487   7.402   7.541   2.290  0.4506 -1.6342 -1.0623
   75MOL   H22028488   7.515   7.782   2.251 -1.6368  2.0030 -1.4548
   75MOL   H22128489   7.651   7.518   2.352  0.9885 -0.7127  0.0686
   75MOL   H22228490   7.658   7.683   2.393 -0.9365  2.0375 -0.9950
   75MOL   H22328491   0.057   7.543   2.235  0.6604 -1.1006  2.2469
   75MOL   H22428492   0.078   0.006   2.350  0.2018  1.6260 -2.0169
   75MOL   H22528493   0.195   7.728   2.279 -0.9707 -0.4594  0.6545
   75MOL   H22628494   0.059   7.784   2.181  0.6065 -3.7837 -1.6849
   75MOL   H22728495   0.196   7.525   2.407 -0.4942  0.3835 -0.1906
   75MOL   H22828496   0.031   7.468   2.471 -0.2344 -0.5367  0.2508
   75MOL   H22928497   0.094   7.620   2.507 -0.1775 -0.0574 -0.2511
   75MOL   C23028498   7.501   7.771   2.033 -0.1207 -0.0769  0.1802
   75MOL   C23128499   7.617   0.029   1.977  0.1206 -0.2225 -0.1226
   75MOL   O23228500   7.598   0.062   1.838  0.1528  0.3537 -0.1158
   75MOL   C23328501   7.646   7.787   1.741  0.0976  0.1352  0.0686
   75MOL   C23428502   7.574   7.814   1.607  0.1909 -0.4711 -0.5743
   75MOL   C23528503   7.583   0.136   1.566  0.1000 -0.0003 -0.0128
   75MOL   C23628504   7.622   7.714   1.499  0.0783  0.5833 -0.1539
   75MOL   H23728505   7.411   0.007   2.024 -0.7257 -0.7475  1.5725
   75MOL   H23828506   7.485   7.686   1.966  0.3955  1.2663 -1.6808
   75MOL   H23928507   7.709   7.798   1.996  1.6827  2.8521  1.6771
   75MOL   H24028508   7.752   7.811   1.729  0.3135  0.4283  2.3762
   75MOL   H24128509   7.630   7.684   1.772 -0.2527  0.8826  2.4917
   75MOL   H24228510   7.469   7.793   1.630  0.5790 -1.7073  0.1309
   75MOL   H24328511   7.684   0.164   1.535 -0.3467  0.2525 -1.2238
   75MOL   H24428512   7.557   0.210   1.643 -1.6446  0.1099 -0.6964
   75MOL   H24528513   7.513   0.158   1.486  1.3779 -0.5931 -1.3137
   75MOL   H24628514   7.728   7.691   1.509 -0.2638 -0.4008  1.2937
   75MOL   H24728515   7.577   7.616   1.516 -3.2851  2.2034  0.5963
   75MOL   H24828516   7.607   7.737   1.393  0.5342  1.8334  0.0469
   75MOL   C24928517   7.616   0.171   2.050  0.3494 -0.2567  1.0978
   75MOL   C25028518   7.705   0.277   1.976 -0.8341  0.8504  0.4289
   75MOL   O25128519   7.683   0.401   2.050  0.1819  0.2714 -0.2744
   75MOL   C25228520   7.584   0.485   2.002 -0.3249 -0.1002  0.1417
   75MOL   C25328521   7.513   0.568   2.117  0.0527 -0.1771  0.1482
   75MOL   C25428522   7.392   0.648   2.059  0.6540  0.0840 -0.0087
   75MOL   C25528523   7.617   0.657   2.191  0.4968 -0.5682 -0.0863
   75MOL   H25628524   7.642   0.149   2.153 -0.2956 -2.3362  0.8446
   75MOL   H25728525   7.515   0.212   2.053 -0.0352 -1.1493  0.6166
   75MOL   H25828526   7.668   0.287   1.874 -2.2884 -1.7908  0.6873
   75MOL   H25928527   7.617   0.540   1.914 -0.9583 -1.3836 -0.9105
   75MOL   H26028528   7.504   0.422   1.964 -1.1809  1.5991 -0.9435
   75MOL   H26128529   7.475   0.500   2.193  2.8491  0.4467  2.1834
   75MOL   H26228530   7.303   0.585   2.047  1.3942 -0.9363 -0.1759
   75MOL   H26328531   7.417   0.681   1.958  0.8344 -2.3935 -0.8226
   75MOL   H26428532   7.371   0.728   2.129 -1.1007 -1.2016  0.9756
   75MOL   H26528533   7.673   0.721   2.123  0.9295 -0.1258  0.6824
   75MOL   H26628534   7.576   0.712   2.275 -0.1137  0.0980 -0.8068
   75MOL   H26728535   7.700   0.600   2.232  1.4868 -0.6219 -2.1050
   75MOL   C26828536   0.030   0.239   1.976 -0.1628  0.0635  0.5541
   75MOL   C26928537   0.138   0.342   1.931 -0.1711 -1.1856 -0.7557
   75MOL   O27028538   0.161   0.342   1.793 -0.8757 -0.3064 -0.0856
   75MOL   C27128539   0.047   0.371   1.708 -0.7530  0.1579 -0.3167
   75MOL   C27228540   0.096   0.430   1.576  0.7524 -1.1180 -0.6955
   75MOL   C27328541   0.186   0.342   1.488 -0.1795 -0.4386  0.2591
   75MOL   C27428542   7.802   0.475   1.482  0.0303  0.2534  0.0172
   75MOL   H27528543   0.049   0.144   1.926  2.6551  1.0706 -0.3651
   75MOL   H27628544   0.046   0.223   2.083 -0.1175 -0.4856  0.4635
   75MOL   H27728545   0.101   0.440   1.962 -0.5869 -1.0818 -1.5760
   75MOL   H27828546   0.001   0.274   1.692 -1.1061 -0.1232  2.1621
   75MOL   H27928547   7.799   0.443   1.745  0.0365  0.3929  0.8087
   75MOL   H28028548   0.157   0.517   1.601 -1.3236  1.0165 -2.8107
   75MOL   H28128549   0.262   0.291   1.548 -0.1571 -1.0520 -0.2883
   75MOL   H28228550   0.244   0.403   1.419  0.1118 -3.0481 -1.8875
   75MOL   H28328551   0.134   0.255   1.448 -0.9808 -0.5984  1.6178
   75MOL   H28428552   0.015   0.532   1.397 -1.3507  0.3294 -0.5455
   75MOL   H28528553   7.748   0.558   1.529  0.2491 -0.0952  0.9066
   75MOL   H28628554   7.743   0.391   1.447 -1.0870  0.8784  0.3614
   75MOL   C28728555   0.280   0.328   2.005 -0.3178 -0.0310  0.4308
   75MOL   C28828556   0.273   0.348   2.162  0.4728  0.1355  0.1369
   75MOL   O28928557   0.334   0.472   2.194 -0.1886 -0.6280 -0.0045
   75MOL   C29028558   0.250   0.590   2.169  0.1907 -0.3741 -0.2431
   75MOL   C29128559   0.287   0.693   2.282  0.3293 -0.0966  1.0923
   75MOL   C29228560   0.177   0.801   2.303 -0.4294 -0.2156 -0.5807
   75MOL   C29328561   0.431   0.742   2.279 -0.2157 -0.4357 -0.1933
   75MOL   H29428562   0.350   0.405   1.972  0.3913 -1.6870 -2.1004
   75MOL   H29528563   0.337   0.244   1.965  0.0192  0.6691 -0.5728
   75MOL   H29628564   0.169   0.356   2.197 -0.2188  2.8199 -2.3849
   75MOL   H29728565   0.281   0.628   2.071 -2.1099 -0.3768 -0.9983
   75MOL   H29828566   0.143   0.578   2.158 -0.0959  2.3836 -0.7711
   75MOL   H29928567   0.275   0.636   2.374 -1.5262  0.1648  1.0366
   75MOL   H30028568   0.207   0.857   2.391 -0.0625  0.9300 -1.4371
   75MOL   H30128569   0.077   0.760   2.314  0.5778 -2.3900  0.9520
   75MOL   H30228570   0.191   0.884   2.234  2.8123  0.8930  1.2705
   75MOL   H30328571   0.507   0.664   2.272 -0.1521 -0.2012 -2.6959
   75MOL   H30428572   0.434   0.803   2.188  0.3505 -1.0207 -0.5705
   75MOL   H30528573   0.451   0.810   2.361 -0.1933  0.3832 -0.8643
   75MOL   C30628574   0.346   0.240   2.242  0.2888  0.1918  0.6249
   75MOL   C30728575   0.329   0.264   2.391  0.0921 -0.4949  0.1978
   75MOL   O30828576   0.191   0.244   2.419 -0.9387 -0.4538  0.8849
   75MOL   C30928577   0.133   0.333   2.507 -0.0037 -0.0487  0.2777
   75MOL   C31028578   7.810   0.292   2.489  0.8856 -0.6324 -0.1468
   75MOL   C31128579   7.759   0.319   2.344  0.0479 -0.1790  0.2883
   75MOL   C31228580   7.724   0.357   2.591 -0.2643  0.6826  0.7812
   75MOL   H31328581   0.450   0.258   2.213 -0.5102  1.0140 -1.8271
   75MOL   H31428582   0.316   0.139   2.217  3.8198 -1.1090  1.2318
   75MOL   H31528583   0.357   0.367   2.417  0.0596 -0.6075  0.6936
   75MOL   H31628584   0.160   0.437   2.485 -0.2077  0.1748  1.0551
   75MOL   H31728585   0.176   0.296   2.600 -0.0916 -0.9891 -0.0565
   75MOL   H31828586   7.801   0.184   2.502  0.1565 -0.8357 -2.1084
   75MOL   H31928587   7.653   0.298   2.333 -0.1931  0.7448  0.7892
   75MOL   H32028588   0.002   0.266   2.277  0.1156  1.2794 -0.8371
   75MOL   H32128589   7.771   0.426   2.324  0.4630 -0.3745 -0.4939
   75MOL   H32228590   7.746   0.463   2.591 -0.4774  0.7326 -0.0354
   75MOL   H32328591   7.734   0.311   2.689 -1.1257  0.7179  0.8936
   75MOL   H32428592   7.620   0.346   2.559  0.0750  0.3520 -0.2145
   75MOL   C32528593   0.407   0.155   2.476 -0.0658  0.6670  0.5253
   75MOL   C32628594   0.563   0.150   2.449  0.1679 -0.5999 -0.4425
   75MOL   O32728595   0.594   0.284   2.424  0.1768  0.3154 -0.2614
   75MOL   C32828596   0.733   0.291   2.386 -0.2355  0.0078 -0.0962
   75MOL   C32928597   0.772   0.424   2.310  0.2112 -0.6688 -0.0907
   75MOL   C33028598   0.924   0.433   2.274  0.3322 -0.3225  0.5590
   75MOL   C33128599   0.680   0.447   2.188  0.2014 -0.1856 -0.6493
   75MOL   H33228600   0.366   0.056   2.455 -0.1819  0.8451 -0.0912
   75MOL   H33328601   0.388   0.168   2.582  0.2606  1.7283  0.4531
   75MOL   H33428602   0.588   0.092   2.361 -1.7651  1.5539 -2.4913
   75MOL   H33528603   0.790   0.283   2.479 -1.3720 -0.6829  0.5498
   75MOL   H33628604   0.767   0.208   2.324 -3.3128 -2.2037  1.0256
   75MOL   H33728605   0.743   0.505   2.377 -4.6973  0.2391 -3.1238
   75MOL   H33828606   0.977   0.423   2.369  0.4141 -0.2004  0.5270
   75MOL   H33928607   0.958   0.354   2.206  2.2883  0.7292  0.2933
   75MOL   H34028608   0.944   0.532   2.233 -1.6052  0.0688  0.5193
   75MOL   H34128609   0.684   0.365   2.117  2.5188  0.1368 -0.9105
   75MOL   H34228610   0.578   0.454   2.226  0.8291  0.9697  0.8718
   75MOL   H34328611   0.707   0.537   2.134 -1.8004  0.8715  0.0589
   75MOL   C34428612   0.634   0.086   2.569 -0.5900  0.1323 -0.2175
   75MOL   C34528613   0.598   7.764   2.605  0.7858  0.8380  0.6315
   75MOL   O34628614   0.690   7.669   2.548  0.2583  0.1688  0.1966
   75MOL   C34728615   0.648   7.627   2.416 -0.2921  0.3711 -0.4220
   75MOL   C34828616   0.746   7.553   2.327  0.9729  0.1550  0.1156
   75MOL   C34928617   0.757   7.403   2.352 -0.1759 -0.0330 -0.0058
   75MOL   C35028618   0.891   7.605   2.352 -0.5715 -0.2243  0.2861
   75MOL   H35128619   0.618   0.152   2.654 -0.4800 -2.5464  1.9105
   75MOL   H35228620   0.740   0.081   2.546 -0.4340 -1.7199  0.8931
   75MOL   H35328621   0.499   7.741   2.567  1.0802  0.2589  0.2000
   75MOL   H35428622   0.605   7.706   2.354 -1.6476 -0.7911 -1.0023
   75MOL   H35528623   0.556   7.570   2.423 -1.4902  2.4584  1.1405
   75MOL   H35628624   0.706   7.572   2.227 -0.0596 -0.2868  0.4351
   75MOL   H35728625   0.841   7.367   2.291 -0.2347 -0.3429  0.0909
   75MOL   H35828626   0.663   7.360   2.318  0.3963 -1.3248 -0.0143
   75MOL   H35928627   0.786   7.385   2.456 -0.3258  0.8413  0.1857
   75MOL   H36028628   0.962   7.559   2.283 -0.1234 -1.5727  1.6196
   75MOL   H36128629   0.895   7.710   2.323  0.5803 -0.9608 -2.4028
   75MOL   H36228630   0.925   7.595   2.455  1.1444 -0.2794 -0.2596
   75MOL   C36328631   0.595   7.748   2.765 -0.6251  0.3168 -0.2269
   75MOL   C36428632   0.564   7.609   2.822 -0.3840  0.4260  0.0834
   75MOL   O36528633   0.557   7.624   2.962 -0.2215 -0.2455  1.2162
   75MOL   C36628634   0.549   7.496   3.024  0.3955 -0.0244 -0.5479
   75MOL   C36728635   0.630   7.506   3.157  0.5924 -0.5591 -0.7596
   75MOL   C36828636   0.609   7.365   3.217  0.2446 -0.0476 -0.0579
   75MOL   C36928637   0.579   7.614   3.253  0.0403 -0.3427  0.3351
   75MOL   H37028638   0.692   7.774   2.808 -0.7379  1.4886 -0.6592
   75MOL   H37128639   0.525   0.003   2.792 -1.0032 -0.4033  0.9215
   75MOL   H37228640   0.641   7.538   2.790  0.5393  1.9550 -1.1340
   75MOL   H37328641   0.442   7.488   3.047  0.6009  1.0506  0.7645
   75MOL   H37428642   0.579   7.415   2.956 -0.5453  0.6220 -1.7609
   75MOL   H37528643   0.735   7.522   3.129  0.4297 -2.2182 -2.4002
   75MOL   H37628644   0.671   7.295   3.161 -0.0799  0.1996 -0.7285
   75MOL   H37728645   0.506   7.331   3.206  0.5992 -1.7928  1.6695
   75MOL   H37828646   0.644   7.379   3.319  1.1764  2.4176 -0.6908
   75MOL   H37928647   0.621   7.611   3.354 -1.9833 -0.7135  1.1974
   75MOL   H38028648   0.470   7.615   3.255 -0.0634 -3.8196  1.2970
   75MOL   H38128649   0.615   7.711   3.219  0.0136 -0.4057  0.1302
   75MOL   H38228650   0.470   7.569   2.785 -0.4836 -0.7734  1.5709
   76MOL     C128651   7.696   5.042   2.197  0.2411  0.7555  0.1235
   76MOL     C228652   7.601   4.971   2.298  0.8938  0.6579 -0.2197
   76MOL     O328653   7.513   5.068   2.355 -0.3070 -0.4879  0.2061
   76MOL     C428654   7.570   5.177   2.432 -0.3854 -0.4784  0.2251
   76MOL     C528655   7.463   5.237   2.524  0.3111 -0.3941 -0.5151
   76MOL     C628656   7.538   5.341   2.614  0.3402  0.1771  0.2519
   76MOL     C728657   7.369   5.139   2.604 -0.5514 -0.0915  0.4807
   76MOL     H828658   7.770   5.100   2.253  2.3414 -0.7377 -1.0058
   76MOL     H928659   7.749   4.974   2.130 -1.1921 -0.6796  0.4141
   76MOL    H1028660   7.656   4.932   2.384  1.8529  0.1904 -1.0419
   76MOL    H1128661   7.611   5.252   2.364  0.1513  0.2932  1.3813
   76MOL    H1228662   7.654   5.145   2.493 -0.5800  1.9733  1.8566
   76MOL    H1328663   7.398   5.301   2.464 -0.2472 -0.3137  0.1774
   76MOL    H1428664   7.595   5.408   2.549 -1.8512  0.7247 -1.1617
   76MOL    H1528665   7.474   5.396   2.683 -2.6235 -2.4897 -0.2474
   76MOL    H1628666   7.615   5.298   2.678  0.1084  0.8129  0.9584
   76MOL    H1728667   7.320   5.074   2.531 -0.0507  0.9930 -0.8324
   76MOL    H1828668   7.423   5.083   2.680  0.6936 -0.7422 -0.8541
   76MOL    H1928669   7.290   5.197   2.651 -0.2067 -0.4981  1.5680
   76MOL    H2028670   7.639   5.118   2.144 -0.4646  0.3558  0.3068
   76MOL    C2128671   7.525   4.857   2.230 -0.0586  0.1984 -0.1932
   76MOL    C2228672   7.461   4.763   2.337 -0.0599  0.0952 -0.2295
   76MOL    O2328673   7.383   4.678   2.267 -0.2595  0.3759 -0.0712
   76MOL    C2428674   7.243   4.687   2.280  0.7134 -0.2435  0.2958
   76MOL    C2528675   7.171   4.575   2.198 -0.3302 -0.0910 -0.3174
   76MOL    C2628676   7.178   4.603   2.048 -0.5812 -1.0282  0.7579
   76MOL    C2728677   7.242   4.437   2.224  0.2339 -0.6276  0.1740
   76MOL    H2828678   7.449   4.914   2.177 -1.1366 -2.6197 -1.8282
   76MOL    H2928679   7.597   4.801   2.170 -0.0096  1.0808 -0.9551
   76MOL    H3028680   7.401   4.816   2.411 -0.6829 -0.7514 -0.1193
   76MOL    H3128681   7.216   4.788   2.252 -0.1257 -1.5566 -3.9558
   76MOL    H3228682   7.211   4.685   2.385  1.1813 -1.5275  0.4300
   76MOL    H3328683   7.065   4.567   2.223 -0.4991 -0.8020 -1.2342
   76MOL    H3428684   7.278   4.625   2.011 -0.8277  1.8459  1.7216
   76MOL    H3528685   7.124   4.687   2.005 -2.2907 -1.9789  0.9909
   76MOL    H3628686   7.136   4.521   1.989  0.1960 -1.0032  0.1569
   76MOL    H3728687   7.246   4.412   2.330  1.4692 -2.3481 -0.2433
   76MOL    H3828688   7.177   4.359   2.183 -0.2424  0.7453 -1.7309
   76MOL    H3928689   7.337   4.432   2.170  0.4960 -0.7423  0.6453
   76MOL    C4028690   7.563   4.669   2.414  0.0213 -0.0100 -0.2993
   76MOL    C4128691   7.502   4.570   2.517 -0.1588 -0.0539 -0.7374
   76MOL    O4228692   7.480   4.642   2.640 -0.5743  0.3854  0.5969
   76MOL    C4328693   7.346   4.632   2.689 -0.2574 -0.3827 -0.2216
   76MOL    C4428694   7.324   4.682   2.832  0.1380 -0.5716 -0.1790
   76MOL    C4528695   7.398   4.587   2.927 -0.6664  0.2294 -0.3416
   76MOL    C4628696   7.361   4.830   2.830  0.4280 -0.1071 -0.2386
   76MOL    H4728697   7.638   4.729   2.466 -0.5229  1.0735 -0.7455
   76MOL    H4828698   7.618   4.612   2.340  0.2938 -1.0267  0.6767
   76MOL    H4928699   7.418   4.518   2.472 -0.6768 -0.6415  0.8534
   76MOL    H5028700   7.297   4.534   2.688  0.2796 -0.6646 -2.0454
   76MOL    H5128701   7.287   4.688   2.616  0.3963 -1.6259 -1.7585
   76MOL    H5228702   7.221   4.667   2.864 -1.2595  2.2025 -3.0637
   76MOL    H5328703   7.371   4.482   2.922 -0.5099  0.0901  1.5440
   76MOL    H5428704   7.498   4.571   2.886 -0.2696 -2.7631  1.6960
   76MOL    H5528705   7.403   4.622   3.030  2.2376 -2.3985  0.4936
   76MOL    H5628706   7.373   4.873   2.929 -1.0736 -0.6920  0.2079
   76MOL    H5728707   7.291   4.898   2.783  2.7613  2.3168 -0.3177
   76MOL    H5828708   7.459   4.842   2.783  1.0550 -1.4930  0.6650
   76MOL    C5928709   7.593   4.445   2.542  0.4426 -0.1044  0.5945
   76MOL    C6028710   7.572   4.333   2.438  0.3079  0.5434  0.2382
   76MOL    O6128711   7.465   4.248   2.486  0.0799 -0.8083 -0.0694
   76MOL    C6228712   7.400   4.170   2.387 -0.3458 -0.0527  0.6208
   76MOL    C6328713   7.271   4.123   2.443 -0.1875 -0.4261  0.5433
   76MOL    C6428714   7.205   4.022   2.348  0.2507  0.1639 -0.4781
   76MOL    C6528715   7.300   4.032   2.570  0.9207 -0.2392  0.0484
   76MOL    H6628716   7.581   4.405   2.643 -0.6228 -1.8308 -0.1973
   76MOL    H6728717   7.696   4.480   2.535 -0.5704  2.4369 -2.7138
   76MOL    H6828718   7.546   4.376   2.342 -0.8273  0.5100  0.5183
   76MOL    H6928719   7.395   4.230   2.297  1.9285 -1.3736 -0.4345
   76MOL    H7028720   7.462   4.088   2.351 -0.0433  1.3145 -2.0528
   76MOL    H7128721   7.210   4.214   2.452  0.0806  0.0584 -2.3006
   76MOL    H7228722   7.279   3.949   2.315  0.2122 -0.3457  0.5540
   76MOL    H7328723   7.156   4.066   2.261  1.4177  0.3296 -1.0636
   76MOL    H7428724   7.136   3.958   2.403 -1.2737  2.9211  0.9099
   76MOL    H7528725   7.205   3.991   2.605  0.5656 -0.3141 -0.9734
   76MOL    H7628726   7.375   3.955   2.554  0.1529 -1.1671  0.8687
   76MOL    H7728727   7.342   4.093   2.650 -0.4615  0.0656  0.5546
   76MOL    C7828728   7.697   4.249   2.416 -0.4612 -0.3270 -0.4459
   76MOL    C7928729   7.793   4.287   2.302  0.6441 -1.0799 -0.8250
   76MOL    O8028730   0.075   4.200   2.299 -0.1360  0.2777 -0.5846
   76MOL    C8128731   0.180   4.225   2.390  0.1492 -0.4509 -0.1447
   76MOL    C8228732   0.319   4.229   2.319  0.0719 -0.5151  0.2592
   76MOL    C8328733   0.442   4.205   2.411  0.3169 -0.6361 -0.2196
   76MOL    C8428734   0.334   4.360   2.239 -0.0494  0.5803  0.4823
   76MOL    H8528735   7.679   4.142   2.409  1.6501 -0.7209 -0.2220
   76MOL    H8628736   7.754   4.239   2.508 -1.5662 -0.2861  0.2603
   76MOL    H8728737   0.011   4.387   2.310  1.1640 -1.2235 -1.7762
   76MOL    H8828738   0.164   4.320   2.441 -0.0588  0.2411 -1.4607
   76MOL    H8928739   0.180   4.151   2.471  1.6531  0.0047  0.2929
   76MOL    H9028740   0.316   4.144   2.251  1.3873 -0.9030  0.6821
   76MOL    H9128741   0.446   4.277   2.492 -3.0782  2.7327 -2.8660
   76MOL    H9228742   0.533   4.233   2.358  0.2593  1.0456  0.5430
   76MOL    H9328743   0.450   4.101   2.443 -0.1585 -0.5620  0.1490
   76MOL    H9428744   0.372   4.439   2.303  2.2031 -1.5682  1.9017
   76MOL    H9528745   0.234   4.386   2.203  0.3909  0.8566 -0.5656
   76MOL    H9628746   0.400   4.342   2.154  1.1304 -0.2911  1.5613
   76MOL    C9728747   7.717   4.269   2.164 -0.5068  1.0625 -0.1171
   76MOL    C9828748   7.819   4.298   2.044  0.4913  0.4689 -0.0882
   76MOL    O9928749   7.743   4.332   1.927  0.1405 -0.2696 -0.7023
   76MOL   C10028750   7.698   4.465   1.913  0.3731  0.2047 -0.7025
   76MOL   C10128751   7.651   4.506   1.767  0.3378 -0.6330 -0.3901
   76MOL   C10228752   7.561   4.629   1.773  0.6307  0.8502  0.3071
   76MOL   C10328753   7.774   4.525   1.676 -0.9786 -0.4472  0.4726
   76MOL   H10428754   7.629   4.333   2.151  0.7957  3.2181  1.3912
   76MOL   H10528755   7.673   4.170   2.159  1.0504  0.3653 -0.3105
   76MOL   H10628756   0.059   4.383   2.068 -1.1775  1.5895  0.5348
   76MOL   H10728757   7.779   4.532   1.942  0.3478  0.8221 -2.0228
   76MOL   H10828758   7.619   4.487   1.985  0.9261 -0.1023  0.0075
   76MOL   H10928759   7.595   4.420   1.730  1.0433 -1.1656 -0.2507
   76MOL   H11028760   7.620   4.709   1.818  1.9986 -0.9184  1.7332
   76MOL   H11128761   7.540   4.648   1.668  1.7481 -2.1079 -0.4907
   76MOL   H11228762   7.468   4.611   1.827 -0.2238  1.9199 -0.7751
   76MOL   H11328763   0.011   4.435   1.678  0.0945  0.2221 -1.1389
   76MOL   H11428764   7.745   4.540   1.572  0.2416 -0.5454  0.1055
   76MOL   H11528765   0.012   4.607   1.711 -0.3819  0.0029 -1.5724
   76MOL   C11628766   0.076   4.166   2.006  0.2494 -0.6787 -0.4596
   76MOL   C11728767   0.166   4.183   1.884  0.0225 -0.1447 -0.1972
   76MOL   O11828768   0.272   4.278   1.912 -0.1592 -0.1296  0.2175
   76MOL   C11928769   0.272   4.398   1.837  0.0990  0.5907 -0.2388
   76MOL   C12028770   0.381   4.495   1.883  0.0415 -0.0940  0.0648
   76MOL   C12128771   0.521   4.453   1.844 -0.6302  0.1435  0.3818
   76MOL   C12228772   0.349   4.636   1.831  0.6046 -0.4555 -0.3346
   76MOL   H12328773   0.150   4.147   2.083  0.0937 -1.0631 -0.4032
   76MOL   H12428774   0.019   4.073   2.008 -0.9177  0.0315  2.9658
   76MOL   H12528775   0.096   4.217   1.808  1.7541  1.0815 -1.2850
   76MOL   H12628776   0.179   4.451   1.856  0.6288  1.1076  0.9374
   76MOL   H12728777   0.283   4.387   1.729  0.2098  1.1787 -0.2897
   76MOL   H12828778   0.378   4.490   1.992  2.3939  0.9027  0.2118
   76MOL   H12928779   0.533   4.345   1.853  1.7383  0.4715  1.8387
   76MOL   H13028780   0.597   4.502   1.907 -2.1776  1.6730  1.0992
   76MOL   H13128781   0.547   4.479   1.742  1.6157  1.6615  1.2924
   76MOL   H13228782   0.337   4.628   1.723  1.4647 -1.5674 -0.3655
   76MOL   H13328783   0.253   4.668   1.872  0.6565 -1.1442  0.3318
   76MOL   H13428784   0.435   4.700   1.848 -0.2692 -0.0372  2.7176
   76MOL   C13528785   0.222   4.054   1.832 -0.5032  0.8910  0.6153
   76MOL   C13628786   0.318   4.073   1.712  0.0887  0.3116  0.5227
   76MOL   O13728787   0.363   3.943   1.661 -0.5681  0.0371  0.0176
   76MOL   C13828788   0.504   3.927   1.674  0.0953 -0.6146  0.1404
   76MOL   C13928789   0.556   3.807   1.597  0.1430  0.3642  0.4327
   76MOL   C14028790   0.705   3.812   1.586 -0.4079  0.7670 -0.3573
   76MOL   C14128791   0.505   3.668   1.640 -0.2722  0.0763 -0.8649
   76MOL   H14228792   0.266   4.004   1.918  1.2624  0.7906 -0.3161
   76MOL   H14328793   0.143   3.990   1.794 -0.3006  0.3415  1.1213
   76MOL   H14428794   0.401   4.138   1.742  0.9809  0.3194 -1.8424
   76MOL   H14528795   0.518   3.922   1.782  0.2731  1.4239  0.2317
   76MOL   H14628796   0.562   4.012   1.639 -0.2451 -0.8798 -1.0842
   76MOL   H14728797   0.522   3.810   1.493 -0.1827 -0.8867  0.4874
   76MOL   H14828798   0.751   3.807   1.685  0.2773 -0.0880 -0.7051
   76MOL   H14928799   0.739   3.897   1.527  0.6880  0.1722 -0.6018
   76MOL   H15028800   0.731   3.724   1.527 -0.0379  0.2807  0.5113
   76MOL   H15128801   0.530   3.647   1.744 -0.1126 -0.2053 -0.9602
   76MOL   H15228802   0.396   3.670   1.629 -0.2123 -0.2486 -1.5269
   76MOL   H15328803   0.542   3.582   1.584  2.5744  1.9266 -1.9395
   76MOL   C15428804   0.257   4.147   1.593 -0.2953 -0.1308 -0.2599
   76MOL   C15528805   0.353   4.193   1.481  0.4604 -0.4766 -0.0214
   76MOL   O15628806   0.279   4.261   1.383  0.3009 -0.1780  0.3300
   76MOL   C15728807   0.173   4.199   1.314  0.7645  0.0869  0.7657
   76MOL   C15828808   0.119   4.303   1.215  0.1057  0.1558  0.2269
   76MOL   C15928809   0.038   4.230   1.105 -0.6916  0.5069  0.5119
   76MOL   C16028810   0.025   4.401   1.295 -0.5465  0.3527  0.5189
   76MOL   H16128811   0.200   4.236   1.617  2.2134  1.6817 -0.8571
   76MOL   H16228812   0.179   4.080   1.556 -0.0551  0.8108 -2.5934
   76MOL   H16328813   0.394   4.101   1.439 -2.0235 -1.9621  0.7151
   76MOL   H16428814   0.088   4.162   1.371  1.7952 -1.7706  1.1388
   76MOL   H16528815   0.220   4.114   1.265  2.4599  1.0683  0.6442
   76MOL   H16628816   0.204   4.357   1.174  0.4274  0.9215  1.8473
   76MOL   H16728817   0.008   4.287   1.017  1.2008  0.0769 -0.4281
   76MOL   H16828818   7.775   4.178   1.144 -0.8074  1.3123  1.3430
   76MOL   H16928819   0.094   4.146   1.063 -2.2967  0.3821 -1.4651
   76MOL   H17028820   0.083   4.459   1.366 -1.1330  0.3488  1.0093
   76MOL   H17128821   7.814   4.484   1.234  1.1299  1.2390  0.7162
   76MOL   H17228822   7.766   4.341   1.332  0.5389 -1.1189  0.6160
   76MOL   C17328823   0.471   4.285   1.522 -0.4354  0.1141 -0.9884
   76MOL   C17428824   0.576   4.318   1.408  0.8227 -0.0989  0.1578
   76MOL   O17528825   0.644   4.438   1.446  0.0174  0.3733 -0.4525
   76MOL   C17628826   0.599   4.556   1.386  0.6759  0.0681  0.5057
   76MOL   C17728827   0.698   4.669   1.400  0.2432  0.1765 -0.0163
   76MOL   C17828828   0.738   4.698   1.548 -0.2436  0.1469 -0.0315
   76MOL   C17928829   0.821   4.646   1.309  0.3720  0.0299  0.0272
   76MOL   H18028830   0.433   4.377   1.568  0.3188 -0.9811  1.9276
   76MOL   H18128831   0.524   4.234   1.602 -1.3440  0.0723 -0.4117
   76MOL   H18228832   0.521   4.340   1.316  0.7093  0.7900  0.4271
   76MOL   H18328833   0.504   4.587   1.427  0.1904 -0.7978  0.0562
   76MOL   H18428834   0.581   4.530   1.282 -0.3278  0.3571  0.6078
   76MOL   H18528835   0.647   4.755   1.357 -0.1565 -0.7868 -1.4797
   76MOL   H18628836   0.800   4.622   1.595 -0.4466  0.2046  0.3311
   76MOL   H18728837   0.796   4.790   1.548  1.6466 -1.0186  1.2539
   76MOL   H18828838   0.641   4.709   1.597  0.3180  1.0567  0.8693
   76MOL   H18928839   0.802   4.633   1.202 -0.3441 -2.0895  0.3927
   76MOL   H19028840   0.874   4.554   1.335  1.3991  0.2749 -1.1649
   76MOL   H19128841   0.895   4.725   1.321  1.2080 -0.6468 -0.5975
   76MOL   C19228842   0.683   4.202   1.393 -0.3691 -0.8392  0.0910
   76MOL   C19328843   0.778   4.197   1.267 -0.0472 -0.7695 -1.0634
   76MOL   O19428844   0.710   4.172   1.145 -0.1873 -0.0836 -0.0556
   76MOL   C19528845   0.733   4.275   1.047  0.1636  0.0991  1.1048
   76MOL   C19628846   0.641   4.235   0.928 -0.0472  0.0225  0.3172
   76MOL   C19728847   0.491   4.232   0.974 -0.1250  0.0171  0.2343
   76MOL   C19828848   0.701   4.103   0.856  0.2567  0.2331 -0.1531
   76MOL   H19928849   0.640   4.102   1.399 -0.3758 -0.8882 -0.7273
   76MOL   H20028850   0.748   4.210   1.479  0.7642 -1.0534 -0.7410
   76MOL   H20128851   0.834   4.290   1.264  0.7641 -1.0453  2.5017
   76MOL   H20228852   0.835   4.296   1.014 -0.4924  0.8097 -0.5144
   76MOL   H20328853   0.690   4.366   1.089 -2.5123  0.2357 -1.7611
   76MOL   H20428854   0.642   4.313   0.852 -0.6232 -0.4695 -0.2036
   76MOL   H20528855   0.429   4.201   0.891  2.2405  0.3789 -1.7356
   76MOL   H20628856   0.475   4.161   1.056  3.0071 -0.2899  0.6677
   76MOL   H20728857   0.455   4.323   1.023  3.3467  1.2220  0.7095
   76MOL   H20828858   0.800   4.111   0.811  0.7557  1.1057  1.1115
   76MOL   H20928859   0.698   4.015   0.920 -1.5507  0.5333  0.2143
   76MOL   H21028860   0.638   4.086   0.768  1.4213  1.0496 -1.1570
   76MOL   C21128861   0.893   4.089   1.279 -0.1331 -0.0351 -0.2237
   76MOL   C21228862   1.018   4.139   1.346 -0.2906 -0.0342  0.0324
   76MOL   O21328863   1.000   4.172   1.477  0.1429  0.1984  0.1568
   76MOL   C21428864   1.003   4.311   1.500  0.1576 -0.0751 -0.0925
   76MOL   C21528865   1.034   4.355   1.643 -1.1195 -1.5247 -0.3227
   76MOL   C21628866   1.087   4.500   1.640  0.5428 -0.5062  0.4292
   76MOL   C21728867   0.919   4.330   1.750  0.4168 -0.2879 -0.0851
   76MOL   H21828868   0.933   4.068   1.180  0.8791  0.7681  0.0019
   76MOL   H21928869   0.852   3.998   1.322  0.7918 -0.4578 -0.2283
   76MOL   H22028870   1.053   4.223   1.286 -1.2193 -0.7418 -1.5269
   76MOL   H22128871   0.911   4.361   1.469  0.8619  1.5418  0.3506
   76MOL   H22228872   1.084   4.358   1.444 -0.1011 -2.0790 -2.2014
   76MOL   H22328873   1.118   4.292   1.672  1.2663 -0.2789 -4.2191
   76MOL   H22428874   1.008   4.569   1.610  0.6382 -0.7846 -0.4845
   76MOL   H22528875   1.102   4.532   1.743  0.4102  0.8661  0.0272
   76MOL   H22628876   1.177   4.513   1.580  1.0438  0.5973  1.3954
   76MOL   H22728877   0.922   4.405   1.828 -2.1954 -1.6936  1.4399
   76MOL   H22828878   0.944   4.236   1.800 -1.8048 -0.3136  1.0365
   76MOL   H22928879   0.820   4.329   1.704  0.2598  1.1604  0.2207
   76MOL   C23028880   1.127   4.038   1.330 -0.2599  0.4449  0.3605
   76MOL   C23128881   1.264   4.077   1.383 -0.2074 -0.6454  0.0512
   76MOL   O23228882   1.351   3.967   1.352  0.2949  0.4426 -0.2492
   76MOL   C23328883   1.355   3.877   1.455  1.0844  0.4542  0.8399
   76MOL   C23428884   1.442   3.767   1.398 -0.1832 -0.7492 -0.4056
   76MOL   C23528885   1.521   3.676   1.494  0.3196  0.4468  0.0767
   76MOL   C23628886   1.361   3.683   1.302  0.3208 -0.3137  0.0130
   76MOL   H23728887   1.132   4.017   1.223 -1.1439  0.6832  0.2700
   76MOL   H23828888   1.095   3.938   1.361  3.0292 -0.4229  1.1861
   76MOL   H23928889   1.259   4.105   1.488  0.8252 -2.4840  0.6252
   76MOL   H24028890   1.398   3.926   1.543  0.4870  1.4752  0.5744
   76MOL   H24128891   1.257   3.844   1.492 -0.7168  1.9080 -2.4703
   76MOL   H24228892   1.520   3.822   1.346 -0.0474 -0.6858 -0.1359
   76MOL   H24328893   1.464   3.597   1.544  0.9092  1.0215  1.7199
   76MOL   H24428894   1.570   3.734   1.573  1.5693 -0.4610 -0.0178
   76MOL   H24528895   1.595   3.625   1.432 -0.1640  1.9521 -1.7658
   76MOL   H24628896   1.430   3.621   1.244  0.9306  1.9537 -1.7288
   76MOL   H24728897   1.279   3.636   1.356  0.1319 -0.0704 -0.0658
   76MOL   H24828898   1.323   3.754   1.229  0.9897  0.0466  0.0129
   76MOL   C24928899   1.324   4.206   1.315  0.1246 -0.5490 -0.6809
   76MOL   C25028900   1.466   4.242   1.358  0.1960  0.5373 -0.4380
   76MOL   O25128901   1.510   4.348   1.278 -0.3266  0.6197 -0.1552
   76MOL   C25228902   1.596   4.307   1.174  0.0848 -0.7491 -0.1243
   76MOL   C25328903   1.657   4.430   1.113  0.4710  0.0036 -0.3818
   76MOL   C25428904   1.726   4.513   1.218 -0.4131  0.0096  0.8367
   76MOL   C25528905   1.551   4.508   1.033  0.3425 -0.2968 -0.4511
   76MOL   H25628906   1.259   4.288   1.345 -1.4251 -2.2751  0.8134
   76MOL   H25728907   1.331   4.201   1.206  2.8598 -0.9401 -0.5267
   76MOL   H25828908   1.525   4.152   1.343  0.0021  0.5987 -1.6402
   76MOL   H25928909   1.678   4.245   1.208 -0.5404 -1.4337  0.1301
   76MOL   H26028910   1.552   4.256   1.088 -1.9651  2.4849 -1.1131
   76MOL   H26128911   1.747   4.401   1.059  0.5816 -0.4577  0.0449
   76MOL   H26228912   1.683   4.538   1.315  0.8560  0.2790  1.3429
   76MOL   H26328913   1.742   4.610   1.171 -0.5516 -0.9019 -1.1454
   76MOL   H26428914   1.828   4.480   1.237  0.4867  0.1278 -3.2165
   76MOL   H26528915   1.534   4.453   0.941  1.4601 -0.4648 -0.5635
   76MOL   H26628916   1.457   4.517   1.089  1.0218 -0.4345  0.7291
   76MOL   H26728917   1.584   4.606   0.997 -1.4888  0.0532 -1.2194
   76MOL   C26828918   1.465   4.292   1.510  0.4711  0.2311  0.2167
   76MOL   C26928919   1.606   4.335   1.563  0.4052  0.2194 -0.5088
   76MOL   O27028920   1.665   4.208   1.600  0.1536  0.1498  0.0802
   76MOL   C27128921   1.808   4.205   1.603 -0.6849 -0.3048 -0.9761
   76MOL   C27228922   1.869   4.059   1.597  0.4291  0.0877 -0.0916
   76MOL   C27328923   1.837   3.986   1.727  0.4414  1.4173  0.0286
   76MOL   C27428924   1.799   3.990   1.475 -0.3424  0.8611  0.0892
   76MOL   H27528925   1.433   4.202   1.563  1.8194 -0.3495  0.0726
   76MOL   H27628926   1.379   4.355   1.530  0.4580  0.1983  0.2620
   76MOL   H27728927   1.664   4.384   1.486  3.2765 -0.9659  0.8022
   76MOL   H27828928   1.852   4.269   1.526 -1.9736 -1.7579 -2.9574
   76MOL   H27928929   1.835   4.243   1.701 -1.4834  0.0525 -0.8962
   76MOL   H28028930   1.977   4.059   1.586  0.3788 -2.6506 -0.7543
   76MOL   H28128931   1.734   4.000   1.760  0.0755 -0.4330 -0.2874
   76MOL   H28228932   1.900   4.009   1.813 -2.0319  0.0491  2.2746
   76MOL   H28328933   1.848   3.879   1.709 -0.0180  1.5822 -1.3142
   76MOL   H28428934   1.698   3.960   1.505 -0.3270  0.2474 -0.4811
   76MOL   H28528935   1.861   3.909   1.438  0.0679  0.5087  1.5108
   76MOL   H28628936   1.791   4.062   1.393 -2.4457  1.3394  0.6593
   76MOL   C28728937   1.597   4.421   1.691  0.3628 -0.7787 -0.3180
   76MOL   C28828938   1.565   4.570   1.648 -0.2902  0.3449  0.3324
   76MOL   O28928939   1.676   4.649   1.674 -0.0691  0.0433  0.2446
   76MOL   C29028940   1.747   4.706   1.559  0.0357  0.5773 -0.4854
   76MOL   C29128941   1.894   4.729   1.602 -0.1312  0.3034  0.1452
   76MOL   C29228942   1.982   4.799   1.500  0.1493  0.4039  0.1378
   76MOL   C29328943   1.957   4.599   1.650 -0.3763 -0.8550  0.1613
   76MOL   H29428944   1.698   4.411   1.731  0.6833  0.8393 -0.6994
   76MOL   H29528945   1.523   4.382   1.762  0.5909  1.1210  0.9905
   76MOL   H29628946   1.538   4.575   1.542  0.5430 -2.0703 -0.0292
   76MOL   H29728947   1.755   4.630   1.482  0.4145  1.4053 -1.2761
   76MOL   H29828948   1.699   4.792   1.511  1.2513 -0.0950 -2.9964
   76MOL   H29928949   1.908   4.797   1.686  0.1418  0.4487 -0.0172
   76MOL   H30028950   1.930   4.894   1.485 -1.2395 -0.4939 -0.8140
   76MOL   H30128951   1.988   4.740   1.408  1.8566  1.6175 -0.5484
   76MOL   H30228952   2.080   4.822   1.542  0.5381 -2.2705  0.7781
   76MOL   H30328953   2.060   4.617   1.679 -0.7097 -0.3899  1.0754
   76MOL   H30428954   1.901   4.573   1.739 -1.6158 -2.3997 -1.0410
   76MOL   H30528955   1.961   4.517   1.579  0.3727 -0.5826 -0.1224
   76MOL   C30628956   1.454   4.642   1.727  0.4454 -0.3409  0.0206
   76MOL   C30728957   1.422   4.788   1.690 -0.9140 -0.8894  0.6065
   76MOL   O30828958   1.349   4.784   1.564  0.0609  0.1914  0.3344
   76MOL   C30928959   1.363   4.902   1.480 -0.4251 -0.3097 -0.1315
   76MOL   C31028960   1.275   4.878   1.357 -0.8774  0.5015 -0.4597
   76MOL   C31128961   1.294   4.734   1.309 -0.2058 -0.9543  0.3275
   76MOL   C31228962   1.306   4.979   1.242  0.0347  0.0635  0.5495
   76MOL   H31328963   1.474   4.620   1.832 -3.8055  0.1781  1.0151
   76MOL   H31428964   1.358   4.594   1.706  0.6283  0.0353 -1.8258
   76MOL   H31528965   1.513   4.849   1.686  0.5130 -2.9947  0.2253
   76MOL   H31628966   1.469   4.919   1.460 -0.7108  0.0243 -1.4246
   76MOL   H31728967   1.336   4.998   1.525  1.1760 -0.1041  0.4207
   76MOL   H31828968   1.173   4.885   1.395 -0.7963 -0.7000  0.0236
   76MOL   H31928969   1.400   4.713   1.294 -0.1793 -0.5628 -0.0454
   76MOL   H32028970   1.261   4.718   1.207  0.4104 -0.2638  0.0145
   76MOL   H32128971   1.259   4.665   1.385  1.7750 -2.3330  0.0245
   76MOL   H32228972   1.301   5.085   1.269  2.2040 -0.0016  1.3504
   76MOL   H32328973   1.239   4.964   1.158  2.5002  1.4515 -1.7470
   76MOL   H32428974   1.411   4.959   1.218  0.3296  1.4631  0.6116
   76MOL   C32528975   1.350   4.857   1.802 -0.1392 -0.3497 -0.6199
   76MOL   C32628976   1.432   4.885   1.933 -0.2652  0.3318 -0.1845
   76MOL   O32728977   1.449   4.764   2.015 -0.2962 -0.1745 -0.0335
   76MOL   C32828978   1.403   4.769   2.153  0.2004  0.3124  0.2877
   76MOL   C32928979   1.417   4.638   2.231 -0.0684 -0.1122  0.1878
   76MOL   C33028980   1.357   4.651   2.368 -0.1264 -0.2457  0.1226
   76MOL   C33128981   1.356   4.514   2.161 -0.0887  0.0495  0.8117
   76MOL   H33228982   1.266   4.792   1.825  0.6115 -0.7836  0.9430
   76MOL   H33328983   1.315   4.951   1.760  0.0632 -0.9138 -2.0893
   76MOL   H33428984   1.366   4.948   1.993  1.2612  0.5791  1.2762
   76MOL   H33528985   1.455   4.849   2.205  2.5146 -0.1840 -1.1831
   76MOL   H33628986   1.296   4.788   2.150  0.1694  0.4640  2.0522
   76MOL   H33728987   1.523   4.616   2.235  0.3092  1.2554 -1.5265
   76MOL   H33828988   1.391   4.745   2.410 -0.4419 -0.8198  1.7145
   76MOL   H33928989   1.249   4.637   2.373 -0.0954 -1.2762 -1.6454
   76MOL   H34028990   1.406   4.572   2.427  0.1149 -0.7866 -0.7979
   76MOL   H34128991   1.434   4.454   2.114 -1.5275 -0.0516 -1.5373
   76MOL   H34228992   1.314   4.452   2.240  2.2296 -0.2824  1.8359
   76MOL   H34328993   1.281   4.546   2.088  2.8728  2.5114 -1.3162
   76MOL   C34428994   1.574   4.943   1.932 -0.2428  0.9058 -0.7033
   76MOL   C34528995   1.585   5.083   1.867 -0.2314  0.3705 -0.1054
   76MOL   O34628996   1.502   5.171   1.952 -0.0580 -0.5397  0.7034
   76MOL   C34728997   1.559   5.229   2.072  0.1525 -0.4447  0.0005
   76MOL   C34828998   1.449   5.292   2.154 -0.0696  0.1983 -0.6437
   76MOL   C34928999   1.340   5.193   2.188  0.2322 -0.4962 -0.0761
   76MOL   C35029000   1.397   5.415   2.079 -0.8306 -0.4116 -0.0887
   76MOL   H35129001   1.643   4.865   1.899 -0.7021 -0.2694  1.0665
   76MOL   H35229002   1.588   4.942   2.040 -1.7562 -0.9614 -0.5019
   76MOL   H35329003   1.533   5.078   1.771  1.6231  0.7009 -1.1572
   76MOL   H35429004   1.623   5.313   2.045  0.1695 -0.4820 -0.0736
   76MOL   H35529005   1.617   5.152   2.124  1.3272  0.1455 -0.4154
   76MOL   H35629006   1.492   5.325   2.248  1.5414  1.0210 -1.6404
   76MOL   H35729007   1.286   5.233   2.274 -3.0989 -0.3226 -2.1759
   76MOL   H35829008   1.382   5.097   2.218  0.7935  0.0387  0.8785
   76MOL   H35929009   1.259   5.180   2.116 -1.3479  3.4319  0.8381
   76MOL   H36029010   1.370   5.397   1.975 -0.3849  0.2430 -0.3187
   76MOL   H36129011   1.301   5.454   2.116 -1.2495 -1.5241  0.0100
   76MOL   H36229012   1.468   5.497   2.071 -1.8866  0.5091 -0.2286
   76MOL   C36329013   1.722   5.134   1.825  0.2823  0.0837  0.2173
   76MOL   C36429014   1.784   5.038   1.730 -0.1168 -0.6787 -0.2467
   76MOL   O36529015   1.898   5.088   1.673 -0.0683  0.1887 -0.0146
   76MOL   C36629016   2.018   5.088   1.750  0.8330  0.4206  0.5195
   76MOL   C36729017   2.122   5.164   1.669  0.1622  0.9468 -0.6547
   76MOL   C36829018   2.235   5.190   1.766  0.2173 -0.5967 -0.4856
   76MOL   C36929019   2.064   5.289   1.605  0.4631 -0.2934 -0.4108
   76MOL   H37029020   1.705   5.236   1.789  0.9078 -0.0420 -0.4489
   76MOL   H37129021   1.781   5.147   1.916  0.0084 -1.6067  0.6482
   76MOL   H37229022   1.714   5.005   1.653 -0.2183  1.6128 -1.1663
   76MOL   H37329023   2.000   5.132   1.848  0.1675  0.0654  0.5596
   76MOL   H37429024   2.049   4.985   1.767 -3.2240 -0.7476  1.4813
   76MOL   H37529025   2.169   5.109   1.588  0.9961  3.3054 -1.8251
   76MOL   H37629026   2.310   5.235   1.701  1.3534 -2.1171 -0.2513
   76MOL   H37729027   2.278   5.107   1.822  0.5772 -0.6840 -0.8908
   76MOL   H37829028   2.200   5.262   1.840  1.1076 -1.2496  0.5936
   76MOL   H37929029   1.980   5.329   1.663  1.3410  1.6082 -0.3990
   76MOL   H38029030   2.012   5.256   1.515 -1.3030  1.0213  0.0773
   76MOL   H38129031   2.128   5.367   1.563 -0.8887  0.2067 -1.5721
   76MOL   H38229032   1.814   4.947   1.781  0.4362 -0.6122 -0.4468
   77MOL     C129033   1.703   4.130   7.545  0.4400  0.7480  0.6195
   77MOL     C229034   1.610   4.209   7.454 -0.0111 -0.5903  0.0929
   77MOL     O329035   1.492   4.141   7.427  0.6221  0.0376 -0.4579
   77MOL     C429036   1.486   4.082   7.299 -0.8336  0.0349 -0.0490
   77MOL     C529037   1.338   4.029   7.274  0.7259 -0.2437  0.3679
   77MOL     C629038   1.244   4.160   7.280 -0.1045 -0.5812  0.6203
   77MOL     C729039   1.296   3.932   7.375  0.7222  0.2432  0.5342
   77MOL     H829040   1.711   4.026   7.511 -0.9504  0.3085  1.5950
   77MOL     H929041   1.807   4.162   7.540  0.2172  1.4343  0.4103
   77MOL    H1029042   1.669   4.214   7.362 -0.7009  0.3595 -0.3128
   77MOL    H1129043   1.561   4.005   7.282 -2.4310 -1.5321 -0.2376
   77MOL    H1229044   1.504   4.162   7.227 -1.1718 -1.5875 -1.9846
   77MOL    H1329045   1.326   3.987   7.174 -0.5282  3.1255 -0.9683
   77MOL    H1429046   1.245   4.225   7.368 -2.3839 -0.0898  0.3059
   77MOL    H1529047   1.265   4.219   7.191 -1.0588  0.4571  1.0722
   77MOL    H1629048   1.138   4.139   7.262 -0.0317 -2.3680  2.0296
   77MOL    H1729049   1.328   3.964   7.474 -1.7880 -0.3867  1.6067
   77MOL    H1829050   1.187   3.929   7.375  0.7028  0.8050  1.5501
   77MOL    H1929051   1.331   3.831   7.354  0.4648  0.1749  0.4231
   77MOL    H2029052   1.679   4.135   7.651 -3.0497 -0.2237 -0.0547
   77MOL    C2129053   1.575   4.351   7.501 -0.1937 -0.2956  0.1106
   77MOL    C2229054   1.535   4.445   7.382 -0.0975 -0.4317  1.1455
   77MOL    O2329055   1.475   4.568   7.433  0.2053  0.3980  0.1649
   77MOL    C2429056   1.329   4.555   7.449 -0.6941  0.5781 -0.0466
   77MOL    C2529057   1.287   4.684   7.529  0.9894 -0.4711  0.0050
   77MOL    C2629058   1.153   4.746   7.486  0.0494  0.5065  0.0460
   77MOL    C2729059   1.298   4.676   7.679  0.4463 -0.3309 -0.5132
   77MOL    H2829060   1.500   4.343   7.580 -0.7636 -0.5109 -0.4439
   77MOL    H2929061   1.663   4.388   7.553  0.4092 -1.8969  0.2563
   77MOL    H3029062   1.460   4.390   7.325  2.2366 -1.8817 -0.6872
   77MOL    H3129063   1.287   4.466   7.494 -0.1847  0.0153 -0.6742
   77MOL    H3229064   1.287   4.568   7.349  1.6502  2.5004 -0.8345
   77MOL    H3329065   1.368   4.755   7.510  1.8075 -1.1951  0.7144
   77MOL    H3429066   1.134   4.830   7.553 -0.5997 -0.3950  0.9950
   77MOL    H3529067   1.065   4.683   7.475 -0.1607  0.4009  2.1109
   77MOL    H3629068   1.165   4.788   7.386 -0.1348  0.1226 -0.1378
   77MOL    H3729069   1.296   4.764   7.743 -0.9478 -1.5328  1.1247
   77MOL    H3829070   1.222   4.611   7.721  1.1127  0.0586  1.3616
   77MOL    H3929071   1.381   4.614   7.714  0.6160  0.0579 -0.2304
   77MOL    C4029072   1.649   4.486   7.294 -0.1356  0.2412 -0.2525
   77MOL    C4129073   1.623   4.552   7.162 -0.1433  0.0432  0.1006
   77MOL    O4229074   1.607   4.450   7.067 -0.6566  0.5570  0.4333
   77MOL    C4329075   1.524   4.478   6.955 -0.1394 -0.1866  0.0674
   77MOL    C4429076   1.517   4.340   6.880  1.1022 -0.2124  0.2354
   77MOL    C4529077   1.401   4.343   6.782 -0.0671  0.1477 -0.0368
   77MOL    C4629078   1.653   4.307   6.819 -0.4034  0.2697  0.1631
   77MOL    H4729079   1.717   4.402   7.279  2.8063  1.9192  2.8349
   77MOL    H4829080   1.700   4.557   7.359  0.9221 -0.6249 -0.1154
   77MOL    H4929081   1.538   4.619   7.170 -0.2444 -0.2539  1.6626
   77MOL    H5029082   1.547   4.573   6.906 -2.1609  0.7013  0.8246
   77MOL    H5129083   1.429   4.489   7.007 -0.4098 -0.8542 -0.2842
   77MOL    H5229084   1.488   4.270   6.959 -1.2643 -0.7705 -1.0807
   77MOL    H5329085   1.407   4.419   6.703 -0.4634  0.0926 -0.1202
   77MOL    H5429086   1.397   4.247   6.731  1.8720  0.3028 -0.5080
   77MOL    H5529087   1.307   4.372   6.830 -1.5103 -1.4982 -1.8047
   77MOL    H5629088   1.725   4.315   6.900 -0.0995 -1.8992  0.1292
   77MOL    H5729089   1.684   4.393   6.760 -2.2318 -0.0198 -1.2658
   77MOL    H5829090   1.632   4.220   6.757 -0.9915  0.0767  0.6300
   77MOL    C5929091   1.737   4.641   7.109  0.1535  0.4666 -0.0791
   77MOL    C6029092   1.866   4.570   7.093  0.4316 -0.0331 -0.1306
   77MOL    O6129093   1.920   4.530   7.221 -0.3868  0.4128 -0.0934
   77MOL    C6229094   1.984   4.622   7.307  1.0086 -0.2015 -0.7080
   77MOL    C6329095   2.064   4.549   7.412 -0.1355 -0.2857  0.4478
   77MOL    C6429096   1.974   4.470   7.508  0.2416  0.2142 -0.4689
   77MOL    C6529097   2.159   4.444   7.337 -0.1988 -0.1055 -0.2917
   77MOL    H6629098   1.754   4.719   7.183  2.6794 -1.2738  1.2259
   77MOL    H6729099   1.719   4.686   7.011  4.4387  1.5095 -0.4986
   77MOL    H6829100   1.841   4.475   7.045  1.6384 -0.6529  0.4375
   77MOL    H6929101   2.052   4.679   7.243  0.2764 -0.6774 -1.9204
   77MOL    H7029102   1.910   4.680   7.361  0.4277 -0.3941 -1.3016
   77MOL    H7129103   2.130   4.619   7.463 -0.2956  1.0530 -1.1507
   77MOL    H7229104   2.036   4.415   7.578  1.2593  1.8498 -0.0526
   77MOL    H7329105   1.907   4.404   7.452 -1.1630  0.4143  0.9323
   77MOL    H7429106   1.914   4.546   7.560 -0.4329 -1.2429  0.9056
   77MOL    H7529107   2.229   4.416   7.416  1.2308 -0.5696 -1.7055
   77MOL    H7629108   2.098   4.361   7.301  0.1047 -0.4570  0.0007
   77MOL    H7729109   2.219   4.498   7.263 -0.1322  0.3091  0.0598
   77MOL    C7829110   1.973   4.643   7.002  0.8506 -0.1533 -0.3366
   77MOL    C7929111   2.084   4.556   6.952 -0.0346 -0.1158 -0.0203
   77MOL    O8029112   2.091   4.536   6.814  0.1108 -0.4750  0.2772
   77MOL    C8129113   1.986   4.450   6.762 -0.1222 -0.5798  0.4262
   77MOL    C8229114   1.987   4.499   6.613  0.4623  0.2644 -0.2664
   77MOL    C8329115   1.907   4.628   6.597 -0.4416  0.0406  0.4979
   77MOL    C8429116   1.940   4.403   6.512  0.4657 -0.5227 -0.3061
   77MOL    H8529117   2.019   4.733   7.042  0.7458 -0.6175  0.8327
   77MOL    H8629118   1.917   4.666   6.911 -0.2582 -2.5347 -0.2995
   77MOL    H8729119   2.079   4.461   7.005 -0.6825  0.2719  0.6211
   77MOL    H8829120   2.016   4.348   6.787 -1.4412 -1.0009  0.3484
   77MOL    H8929121   1.884   4.446   6.802  0.5192 -3.5116  1.9539
   77MOL    H9029122   2.086   4.527   6.577  0.4320  0.5174 -0.1565
   77MOL    H9129123   1.926   4.698   6.679  2.0175  1.5020 -1.2521
   77MOL    H9229124   1.799   4.619   6.610 -0.7575  1.3660 -1.1133
   77MOL    H9329125   1.918   4.681   6.503 -0.0117  0.5816  0.8498
   77MOL    H9429126   1.833   4.379   6.508 -0.3218  2.9384 -2.1951
   77MOL    H9529127   1.981   4.303   6.524  2.9426  0.3837 -1.0606
   77MOL    H9629128   1.962   4.430   6.409 -0.4755  1.2778 -0.0533
   77MOL    C9729129   2.219   4.615   6.995 -0.2773  0.2099  0.0912
   77MOL    C9829130   2.345   4.541   6.980 -0.1650  0.4613 -0.6880
   77MOL    O9929131   2.337   4.441   7.078 -0.1727 -0.0003  0.0330
   77MOL   C10029132   2.389   4.316   7.029 -0.9086  0.1313 -0.7574
   77MOL   C10129133   2.389   4.225   7.157  0.0079  0.3495  0.5535
   77MOL   C10229134   2.427   4.083   7.100 -0.4492  0.6084  0.2610
   77MOL   C10329135   2.478   4.272   7.275 -0.4343 -0.0520 -0.1023
   77MOL   H10429136   2.205   4.641   7.100 -0.6560 -1.2261  0.3977
   77MOL   H10529137   2.231   4.701   6.929  0.5399 -0.8786 -1.2165
   77MOL   H10629138   2.346   4.509   6.876  1.9189 -0.3034 -0.4507
   77MOL   H10729139   2.484   4.344   6.983 -0.0377  3.1716  2.6734
   77MOL   H10829140   2.326   4.273   6.951 -0.8660 -1.8855  0.2944
   77MOL   H10929141   2.289   4.213   7.197 -0.5353 -0.5377 -1.0117
   77MOL   H11029142   2.373   4.057   7.009  0.0907 -2.8194  0.8533
   77MOL   H11129143   2.531   4.081   7.067  0.0683  0.7737  1.8234
   77MOL   H11229144   2.414   4.006   7.177  2.3617  1.3946  1.5761
   77MOL   H11329145   2.465   4.219   7.370 -0.7878 -1.0934 -0.7227
   77MOL   H11429146   2.580   4.250   7.244 -0.3281  0.5888 -0.2015
   77MOL   H11529147   2.470   4.380   7.288 -1.2768 -0.3118  1.6958
   77MOL   C11629148   2.474   4.629   7.018 -0.5423  0.2469 -0.7570
   77MOL   C11729149   2.511   4.738   6.915  0.7838 -0.1171  0.3117
   77MOL   O11829150   2.567   4.846   6.987  0.3175  0.1451 -0.1413
   77MOL   C11929151   2.476   4.933   7.058  0.1017 -0.4764 -0.3996
   77MOL   C12029152   2.576   5.035   7.110 -0.2506  0.2894 -0.1421
   77MOL   C12129153   2.638   5.105   6.991 -0.1109  0.6952  0.2783
   77MOL   C12229154   2.508   5.140   7.208  0.9274 -0.6006  0.2122
   77MOL   H12329155   2.451   4.673   7.115  3.7684  2.8486 -0.8135
   77MOL   H12429156   2.558   4.564   7.039  0.1884  1.4165 -0.0086
   77MOL   H12529157   2.429   4.770   6.852  0.0138 -0.0185  1.3697
   77MOL   H12629158   2.425   4.884   7.141  1.3399  1.4525  1.5523
   77MOL   H12729159   2.399   4.986   7.002  0.0766  1.1562  1.1140
   77MOL   H12829160   2.658   4.994   7.169 -0.4686  1.0788  0.7304
   77MOL   H12929161   2.563   5.162   6.937 -1.4592  0.0062  1.3598
   77MOL   H13029162   2.686   5.049   6.911 -1.0530 -0.6534  0.6312
   77MOL   H13129163   2.711   5.180   7.022 -0.1215  1.1060 -0.6691
   77MOL   H13229164   2.452   5.214   7.151  2.5633 -0.6912 -1.5437
   77MOL   H13329165   2.441   5.079   7.269  0.0769 -0.4514 -0.5589
   77MOL   H13429166   2.582   5.193   7.269 -1.5638  2.4556  0.7291
   77MOL   C13529167   2.632   4.704   6.822  0.0216 -0.1169 -0.2484
   77MOL   C13629168   2.615   4.604   6.708  0.1283  0.1823  0.0195
   77MOL   O13729169   2.513   4.662   6.632  0.1886 -0.1181  0.0188
   77MOL   C13829170   2.420   4.565   6.573 -0.4854  0.1422 -0.2041
   77MOL   C13929171   2.339   4.629   6.456  0.0148 -0.0229 -0.5945
   77MOL   C14029172   2.242   4.742   6.502  0.1579  0.0124  0.1695
   77MOL   C14129173   2.421   4.668   6.328 -0.2396 -1.1645 -0.4838
   77MOL   H14229174   2.677   4.795   6.784  1.8431 -1.4555 -1.4264
   77MOL   H14329175   2.708   4.657   6.885 -0.5054 -2.2202 -1.1185
   77MOL   H14429176   2.579   4.511   6.753 -0.4249 -0.0146 -0.8138
   77MOL   H14529177   2.354   4.532   6.654  0.4951 -2.9697 -0.5827
   77MOL   H14629178   2.482   4.482   6.540 -1.3638 -0.8422  0.5705
   77MOL   H14729179   2.276   4.547   6.420 -0.1334  0.5172 -1.5930
   77MOL   H14829180   2.170   4.769   6.426  0.8130 -0.2557 -0.5581
   77MOL   H14929181   2.305   4.827   6.530 -0.6433  1.3607 -1.9904
   77MOL   H15029182   2.186   4.716   6.592 -0.7095 -0.8884 -0.6235
   77MOL   H15129183   2.475   4.582   6.286  0.6294 -0.2741 -1.2050
   77MOL   H15229184   2.368   4.709   6.242  2.1179 -0.3803 -1.6209
   77MOL   H15329185   2.490   4.746   6.358 -2.8119  1.2133 -0.5653
   77MOL   C15429186   2.743   4.589   6.624  0.9220 -0.3340  0.0873
   77MOL   C15529187   2.872   4.558   6.697  0.4304 -0.0590 -0.1673
   77MOL   O15629188   2.860   4.417   6.735  0.1256 -0.7295 -0.1503
   77MOL   C15729189   2.829   4.392   6.871  0.5856 -0.2198 -0.0027
   77MOL   C15829190   2.817   4.242   6.886 -0.2963 -0.2237 -0.4235
   77MOL   C15929191   2.815   4.220   7.034 -0.3356 -0.0343 -0.2996
   77MOL   C16029192   2.686   4.183   6.821 -0.0394  0.4142 -0.4355
   77MOL   H16129193   2.756   4.677   6.562 -0.0158  1.0772  1.8380
   77MOL   H16229194   2.726   4.517   6.544 -0.5921  0.9277 -0.7405
   77MOL   H16329195   2.882   4.620   6.786  0.5191 -1.5966  0.9119
   77MOL   H16429196   2.737   4.445   6.898  0.9660 -0.0379  0.9267
   77MOL   H16529197   2.903   4.432   6.940  0.4015  0.4621 -0.1957
   77MOL   H16629198   2.896   4.184   6.839  0.5753  2.5213 -2.4779
   77MOL   H16729199   2.914   4.233   7.078  0.8174 -0.5315 -2.7062
   77MOL   H16829200   2.785   4.119   7.062 -1.7705  0.8610  1.5220
   77MOL   H16929201   2.753   4.292   7.089  1.3915  0.8823  0.4996
   77MOL   H17029202   2.680   4.186   6.713  0.8610 -0.4473 -0.5195
   77MOL   H17129203   2.664   4.084   6.861 -2.8781  1.0387 -0.3716
   77MOL   H17229204   2.603   4.250   6.842  0.7326  1.2449  0.0292
   77MOL   C17329205   3.001   4.585   6.618  0.7038 -0.7064 -0.4803
   77MOL   C17429206   3.053   4.740   6.613  0.6770  0.1119 -0.5090
   77MOL   O17529207   3.075   4.769   6.756  0.1099 -0.1075 -0.6400
   77MOL   C17629208   3.021   4.886   6.800  0.2844  0.4824  0.1378
   77MOL   C17729209   3.049   4.915   6.946  0.3157 -0.2255  0.0961
   77MOL   C17829210   3.068   5.075   6.956 -0.5241  0.0351 -0.1825
   77MOL   C17929211   2.926   4.868   7.028 -0.4781 -0.0444 -0.1767
   77MOL   H18029212   3.089   4.530   6.649  0.2777 -0.9706  0.2826
   77MOL   H18129213   2.975   4.552   6.517  0.4776 -1.6814 -0.1121
   77MOL   H18229214   2.985   4.816   6.574 -2.8707 -2.1060  1.0620
   77MOL   H18329215   2.915   4.902   6.780  0.6293  1.0119 -1.3529
   77MOL   H18429216   3.063   4.965   6.737  4.0308 -0.0581  1.8675
   77MOL   H18529217   3.137   4.861   6.979  1.4329  0.5438 -1.5485
   77MOL   H18629218   3.080   5.107   7.059 -0.8318 -0.3081 -0.0369
   77MOL   H18729219   3.163   5.103   6.909  0.4579 -0.1877  1.6368
   77MOL   H18829220   2.984   5.113   6.898  0.1149  0.4566 -0.8376
   77MOL   H18929221   2.837   4.929   7.015 -1.0412 -0.2945  2.2391
   77MOL   H19029222   2.940   4.871   7.136  0.9838 -2.3004 -0.2771
   77MOL   H19129223   2.905   4.763   7.008  0.0144 -0.4420  1.3318
   77MOL   C19229224   3.193   4.750   6.553 -0.0084  0.0170 -0.2927
   77MOL   C19329225   3.180   4.745   6.397  0.2916 -0.0596  0.1653
   77MOL   O19429226   3.282   4.649   6.365 -0.0867  0.1471  0.4108
   77MOL   C19529227   3.244   4.524   6.299  0.6040 -0.3135  0.3896
   77MOL   C19629228   3.364   4.431   6.271  0.0352 -0.2209  0.5348
   77MOL   C19729229   3.303   4.304   6.207 -0.1632  0.0464  0.1570
   77MOL   C19829230   3.444   4.404   6.398 -0.3907 -0.1718  0.0440
   77MOL   H19929231   3.265   4.682   6.599  0.5917  0.9262  0.1249
   77MOL   H20029232   3.217   4.853   6.577  0.8756 -0.7908  2.4673
   77MOL   H20129233   3.082   4.709   6.367  1.2583 -2.4911 -0.1761
   77MOL   H20229234   3.209   4.550   6.200  1.9143 -0.3581 -0.0936
   77MOL   H20329235   3.171   4.467   6.356  0.6187  0.3541  1.0824
   77MOL   H20429236   3.440   4.474   6.205  0.4444 -0.0000  1.1423
   77MOL   H20529237   3.229   4.268   6.279 -1.0413  2.2671  0.3863
   77MOL   H20629238   3.250   4.333   6.116 -0.0816  1.0798  0.4339
   77MOL   H20729239   3.373   4.222   6.194  1.1730  1.2127 -0.0991
   77MOL   H20829240   3.517   4.328   6.369  0.3863  0.1662  1.0877
   77MOL   H20929241   3.493   4.497   6.428  1.0210 -0.7891 -0.3154
   77MOL   H21029242   3.385   4.357   6.476  0.1550 -0.8953  0.0324
   77MOL   C21129243   3.211   4.884   6.321  0.1771 -0.3042  0.6706
   77MOL   C21229244   3.189   4.887   6.170  0.2806  0.5341  0.4535
   77MOL   O21329245   3.051   4.880   6.142  0.9343 -0.0474  0.1927
   77MOL   C21429246   3.023   4.760   6.070  0.6532  0.0070  0.1523
   77MOL   C21529247   2.869   4.766   6.026 -0.4296  0.4012 -0.2874
   77MOL   C21629248   2.828   4.635   5.968  0.3238  0.4789 -0.0235
   77MOL   C21729249   2.791   4.812   6.144  0.3903 -0.2401 -0.0447
   77MOL   H21829250   3.320   4.891   6.327  0.2779 -0.5702 -0.7354
   77MOL   H21929251   3.179   4.973   6.376  1.1400  1.9253 -2.2594
   77MOL   H22029252   3.254   4.809   6.129  1.7772  1.2205  1.4907
   77MOL   H22129253   3.029   4.678   6.141 -2.1986  0.3591  0.8857
   77MOL   H22229254   3.080   4.745   5.979 -1.4678  1.1828 -1.4411
   77MOL   H22329255   2.861   4.843   5.950  0.9501 -0.8881 -1.7714
   77MOL   H22429256   2.818   4.550   6.035 -0.0777 -1.0527 -1.9972
   77MOL   H22529257   2.733   4.657   5.920  0.1188 -0.6967 -0.1686
   77MOL   H22629258   2.902   4.607   5.893  0.4164 -0.3055  0.3613
   77MOL   H22729259   2.800   4.741   6.226  3.3152  0.3404  0.2031
   77MOL   H22829260   2.686   4.820   6.116  0.8766 -0.8378 -2.1154
   77MOL   H22929261   2.820   4.910   6.182  2.4494 -0.9938  0.4319
   77MOL   C23029262   3.246   5.019   6.111  0.4681 -0.1870 -0.3868
   77MOL   C23129263   3.268   5.020   5.956 -0.4449 -0.5429  0.0998
   77MOL   O23229264   3.351   4.915   5.912  0.7113 -0.0482 -0.3477
   77MOL   C23329265   3.488   4.956   5.901  0.0821  0.0357 -0.1207
   77MOL   C23429266   3.568   4.846   5.825  0.2893 -0.1554 -0.0322
   77MOL   C23529267   3.570   4.711   5.907 -0.6349  0.1082 -0.0643
   77MOL   C23629268   3.511   4.826   5.694  0.2691 -0.4751  0.5387
   77MOL   H23729269   3.340   5.040   6.161  0.9554  1.1544 -1.8457
   77MOL   H23829270   3.193   5.106   6.149 -3.6012 -2.1889 -1.1437
   77MOL   H23929271   3.312   5.118   5.937 -1.2850 -0.5995 -2.2952
   77MOL   H24029272   3.494   5.046   5.840 -0.0946  0.8799  1.0935
   77MOL   H24129273   3.539   4.974   5.995 -1.7355  0.4485  0.8083
   77MOL   H24229274   3.671   4.874   5.805  0.1705 -0.6788 -1.4223
   77MOL   H24329275   3.469   4.675   5.928 -0.4502 -0.1491  0.4031
   77MOL   H24429276   3.621   4.725   6.003 -1.1308 -0.5009  0.2964
   77MOL   H24529277   3.618   4.628   5.855  0.0023  1.8689 -2.3639
   77MOL   H24629278   3.552   4.741   5.640  1.9537  0.9303 -0.4830
   77MOL   H24729279   3.402   4.817   5.693  0.2638 -0.6803 -3.3537
   77MOL   H24829280   3.538   4.912   5.633  0.3862 -0.5451  0.4939
   77MOL   C24929281   3.136   5.013   5.874 -0.3177  0.1204  0.0004
   77MOL   C25029282   3.074   5.144   5.822  0.4567  0.0514 -0.6779
   77MOL   O25129283   3.014   5.211   5.924 -0.2609 -0.0686  0.7584
   77MOL   C25229284   2.872   5.184   5.926  0.1207 -0.0366  0.3527
   77MOL   C25329285   2.796   5.284   6.015  0.1181  0.0488  0.8827
   77MOL   C25429286   2.837   5.263   6.163  0.2780  0.0269 -0.4496
   77MOL   C25529287   2.652   5.259   6.006  0.1484  0.0575  0.0813
   77MOL   H25629288   3.056   4.953   5.919 -0.0447 -1.7128 -1.9115
   77MOL   H25729289   3.153   4.943   5.792  1.1038 -1.3369  1.4810
   77MOL   H25829290   3.000   5.107   5.751  1.1385 -0.1455 -1.2832
   77MOL   H25929291   2.827   5.201   5.829  0.8401 -0.1632 -0.0055
   77MOL   H26029292   2.858   5.081   5.960 -1.1073 -0.4028 -1.2328
   77MOL   H26129293   2.818   5.382   5.974  0.3430 -0.8264 -1.1206
   77MOL   H26229294   2.839   5.159   6.194  0.3034  0.4088  0.8861
   77MOL   H26329295   2.779   5.328   6.230  0.3031 -0.5600  0.1450
   77MOL   H26429296   2.943   5.288   6.172  0.0223  0.5712  1.4076
   77MOL   H26529297   2.615   5.257   5.903  1.1163  0.8864 -0.2941
   77MOL   H26629298   2.627   5.165   6.054 -0.2828  0.3101  0.3526
   77MOL   H26729299   2.599   5.339   6.057  1.1917  1.3324 -0.7918
   77MOL   C26829300   3.171   5.236   5.744  0.0516  0.5443 -0.4041
   77MOL   C26929301   3.226   5.166   5.617  0.1081  0.3482  0.0520
   77MOL   O27029302   3.303   5.259   5.535 -0.0950  0.3031  0.5360
   77MOL   C27129303   3.420   5.313   5.597 -0.6885 -0.2801  0.1812
   77MOL   C27229304   3.527   5.333   5.485 -0.1755 -0.1069 -0.0529
   77MOL   C27329305   3.636   5.427   5.531  0.8955  0.5235  0.1302
   77MOL   C27429306   3.576   5.197   5.445 -0.0907  0.5086 -1.1349
   77MOL   H27529307   3.253   5.279   5.802 -1.5528 -1.0504  3.2486
   77MOL   H27629308   3.111   5.322   5.716  1.4197  2.0273  1.1387
   77MOL   H27729309   3.295   5.086   5.643 -0.3186 -0.2132 -0.4973
   77MOL   H27829310   3.383   5.404   5.643 -0.9682 -0.8834  1.1785
   77MOL   H27929311   3.466   5.247   5.671 -0.4264  1.8896  1.9941
   77MOL   H28029312   3.467   5.388   5.412  1.0547  1.9256  0.4264
   77MOL   H28129313   3.724   5.435   5.467  0.3900 -0.6837 -0.7358
   77MOL   H28229314   3.680   5.398   5.627 -0.3812  0.1644  0.6109
   77MOL   H28329315   3.586   5.521   5.556  0.9026  0.2783  1.1004
   77MOL   H28429316   3.635   5.141   5.517 -0.7832  0.5202 -0.5517
   77MOL   H28529317   3.628   5.195   5.349  0.7652  0.3799 -0.6714
   77MOL   H28629318   3.490   5.131   5.431  0.1773 -0.4578  1.4564
   77MOL   C28729319   3.122   5.102   5.525  0.0198 -0.2282 -0.0554
   77MOL   C28829320   3.184   5.042   5.391 -0.2159 -1.0891 -0.3864
   77MOL   O28929321   3.082   4.993   5.306  0.3882  0.1901  0.4751
   77MOL   C29029322   3.045   5.075   5.201 -0.1158  0.0615 -0.0823
   77MOL   C29129323   2.910   5.019   5.146 -0.1682  0.3081  0.0561
   77MOL   C29229324   2.799   5.024   5.263  0.1525 -0.4007 -0.0190
   77MOL   C29329325   2.924   4.878   5.092  0.5659  0.3196  1.0487
   77MOL   H29429326   3.038   5.169   5.507 -0.0133 -0.7610 -2.0085
   77MOL   H29529327   3.070   5.022   5.578  0.2957  0.4615  1.2770
   77MOL   H29629328   3.247   5.117   5.342 -1.4539  0.9449  1.0491
   77MOL   H29729329   3.031   5.177   5.239  2.2867  0.9150 -1.3940
   77MOL   H29829330   3.125   5.068   5.127  1.2237 -0.7104  1.4238
   77MOL   H29929331   2.872   5.077   5.062 -1.1842 -2.3252 -1.3732
   77MOL   H30029332   2.766   5.124   5.291 -1.0930 -0.2512 -1.9265
   77MOL   H30129333   2.849   4.990   5.354  2.0535  0.4848 -0.7098
   77MOL   H30229334   2.719   4.958   5.230 -1.7953  0.9365  1.9179
   77MOL   H30329335   3.011   4.864   5.028 -0.5204 -1.1822 -0.1369
   77MOL   H30429336   2.937   4.810   5.175 -1.6916 -0.6923  0.6313
   77MOL   H30529337   2.847   4.845   5.021  2.0420 -0.4090 -0.2411
   77MOL   C30629338   3.273   4.916   5.408  1.0261 -0.1607 -0.4895
   77MOL   C30729339   3.336   4.850   5.292  0.1814 -0.2812 -0.6408
   77MOL   O30829340   3.432   4.933   5.231 -0.1683 -0.1929  0.3813
   77MOL   C30929341   3.461   4.901   5.094  0.7832  0.4675 -0.6203
   77MOL   C31029342   3.536   5.018   5.031  0.5269  0.1203 -1.2138
   77MOL   C31129343   3.444   5.143   5.025 -0.3021  0.0327 -0.3975
   77MOL   C31229344   3.602   4.978   4.901  0.1368  0.8228 -0.0342
   77MOL   H31329345   3.216   4.840   5.461  1.2081  0.6321  0.8616
   77MOL   H31429346   3.358   4.943   5.472  0.0516  0.3092  0.6199
   77MOL   H31529347   3.259   4.836   5.216  0.4579 -0.6108 -0.8605
   77MOL   H31629348   3.370   4.900   5.034  2.1677  0.4595 -2.7631
   77MOL   H31729349   3.511   4.805   5.084  0.1736 -0.0168  0.8476
   77MOL   H31829350   3.622   5.044   5.093  0.1689  0.5349 -0.8912
   77MOL   H31929351   3.368   5.145   4.947 -2.2511  0.5372  1.4787
   77MOL   H32029352   3.497   5.236   5.003  0.5411 -0.2650  0.3609
   77MOL   H32129353   3.389   5.157   5.118  0.4084 -0.6609  0.1400
   77MOL   H32229354   3.531   4.918   4.843 -0.7549  1.5271  0.3080
   77MOL   H32329355   3.688   4.912   4.913 -2.1438 -2.3576 -0.1716
   77MOL   H32429356   3.629   5.047   4.822  1.5653 -0.0169 -0.3058
   77MOL   C32529357   3.402   4.712   5.312  0.0902 -0.4555  0.0211
   77MOL   C32629358   3.295   4.593   5.329  0.0337 -0.3573 -0.8871
   77MOL   O32729359   3.252   4.586   5.197 -0.0219  0.0651  0.0823
   77MOL   C32829360   3.132   4.532   5.177  0.5044  0.3367  0.3961
   77MOL   C32929361   3.089   4.485   5.039 -0.0044 -0.1465 -0.4445
   77MOL   C33029362   2.938   4.484   5.021 -0.1694 -0.2678 -0.7486
   77MOL   C33129363   3.140   4.585   4.936 -0.0371  0.3433  0.5065
   77MOL   H33229364   3.454   4.715   5.408  0.2187 -0.5612 -0.0460
   77MOL   H33329365   3.467   4.679   5.232  1.2236  0.5590  0.4970
   77MOL   H33429366   3.218   4.629   5.397  2.8278  1.1359  1.6346
   77MOL   H33529367   3.125   4.449   5.247 -1.1310  0.4851  0.4263
   77MOL   H33629368   3.052   4.598   5.211 -0.3029 -0.8411  0.7824
   77MOL   H33729369   3.124   4.383   5.022  0.5117 -0.0597  0.0908
   77MOL   H33829370   2.917   4.440   4.924 -0.5081 -3.3030  0.6411
   77MOL   H33929371   2.892   4.412   5.088  0.9273 -0.9420 -0.7037
   77MOL   H34029372   2.892   4.583   5.019 -1.7798 -1.0160 -1.5140
   77MOL   H34129373   3.113   4.686   4.966 -1.0380  0.1365  0.3083
   77MOL   H34229374   3.248   4.583   4.919 -0.2848 -0.6599 -1.0544
   77MOL   H34329375   3.099   4.568   4.836  1.4264 -0.1959 -0.0135
   77MOL   C34429376   3.359   4.464   5.372 -0.7910  1.0116  0.7592
   77MOL   C34529377   3.418   4.457   5.519  0.2903 -0.5013 -0.5409
   77MOL   O34629378   3.324   4.485   5.617 -0.2397  0.4858 -0.0922
   77MOL   C34729379   3.234   4.385   5.657 -0.4443  0.2530 -0.5809
   77MOL   C34829380   3.139   4.435   5.762 -0.1021  0.3397  0.2377
   77MOL   C34929381   3.213   4.507   5.872 -0.0213 -0.4895 -0.2036
   77MOL   C35029382   3.059   4.316   5.822 -0.3794 -0.6799  0.6149
   77MOL   H35129383   3.434   4.432   5.301 -0.2993 -1.4420  2.3258
   77MOL   H35229384   3.288   4.382   5.372 -0.8669  1.0678 -1.2819
   77MOL   H35329385   3.486   4.541   5.533 -1.9011  0.8915  2.1224
   77MOL   H35429386   3.307   4.316   5.700  0.3928  0.6407 -1.3691
   77MOL   H35529387   3.193   4.353   5.562 -3.3678  3.2512 -0.4505
   77MOL   H35629388   3.071   4.506   5.715 -2.2535 -1.7538  0.1324
   77MOL   H35729389   3.150   4.539   5.955  0.9328  0.4712  0.1482
   77MOL   H35829390   3.261   4.601   5.847 -2.3937  0.8115 -0.0778
   77MOL   H35929391   3.293   4.442   5.907  1.6066  1.2819 -0.5851
   77MOL   H36029392   3.018   4.255   5.741  2.1450 -0.5858 -0.8075
   77MOL   H36129393   3.120   4.247   5.881  0.3010  0.9901  1.9212
   77MOL   H36229394   2.988   4.341   5.901  0.3793 -0.1234  1.1339
   77MOL   C36329395   3.505   4.326   5.531  0.4034 -0.3301 -0.6641
   77MOL   C36429396   3.598   4.334   5.654  0.1255  0.2816  0.3316
   77MOL   O36529397   3.661   4.198   5.656  0.2769 -0.3551 -0.5347
   77MOL   C36629398   3.799   4.195   5.614  0.2844  0.1420 -0.7166
   77MOL   C36729399   3.820   4.051   5.555  0.2057  0.2598  0.1073
   77MOL   C36829400   3.772   3.941   5.651  0.3362 -0.3490 -0.2516
   77MOL   C36929401   3.970   4.024   5.520 -0.2729  0.0752 -0.2533
   77MOL   H37029402   3.450   4.232   5.530  0.8608 -0.6012 -0.6619
   77MOL   H37129403   3.564   4.339   5.440 -1.3111  0.3083 -1.6979
   77MOL   H37229404   3.541   4.334   5.747  1.4623 -0.5835  1.1739
   77MOL   H37329405   3.818   4.267   5.534 -0.2841  2.7500  1.4270
   77MOL   H37429406   3.867   4.218   5.696 -0.4018  0.2596 -0.1835
   77MOL   H37529407   3.751   4.043   5.472  0.2962  1.4586 -0.0846
   77MOL   H37629408   3.786   3.847   5.599  1.0397  0.2098 -1.0965
   77MOL   H37729409   3.667   3.966   5.667 -1.0953 -3.5237 -4.1040
   77MOL   H37829410   3.835   3.957   5.739 -0.1346 -0.0232  0.0308
   77MOL   H37929411   3.998   3.919   5.511 -0.2506  0.1508 -1.1412
   77MOL   H38029412   4.040   4.072   5.589 -0.4233 -0.8361  0.5286
   77MOL   H38129413   3.994   4.069   5.423  0.1220 -1.3679 -0.8298
   77MOL   H38229414   3.669   4.415   5.670 -1.6733  1.5503  2.1317
   78MOL     C129415   0.318   6.475   1.280 -0.1920  0.0233  0.0090
   78MOL     C229416   0.392   6.610   1.288  0.2377 -0.1437 -0.0000
   78MOL     O329417   0.299   6.715   1.247  0.4918  0.1370 -0.4638
   78MOL     C429418   0.216   6.688   1.135 -0.9871 -0.8735 -0.5166
   78MOL     C529419   0.161   6.830   1.100  0.0435 -0.4049  0.3969
   78MOL     C629420   0.080   6.823   0.965  0.2230  0.6781 -0.5253
   78MOL     C729421   0.280   6.935   1.080 -0.4665 -0.0697 -0.1745
   78MOL     H829422   0.293   6.445   1.178  0.0585  1.8686 -0.6324
   78MOL     H929423   0.382   6.396   1.318  0.5944  0.5457 -0.2146
   78MOL    H1029424   0.472   6.603   1.214  1.0618 -1.4989  0.9932
   78MOL    H1129425   0.138   6.614   1.148 -3.0370  1.4387  0.8439
   78MOL    H1229426   0.274   6.650   1.051  0.7790 -2.0643  1.1998
   78MOL    H1329427   0.101   6.872   1.180  0.4507  0.5819  0.1901
   78MOL    H1429428   0.049   6.922   0.930  0.7955  0.8080 -0.6669
   78MOL    H1529429   0.146   6.790   0.885 -0.2649 -1.1109 -0.2050
   78MOL    H1629430   7.817   6.759   0.978  0.8691  0.2753  2.2288
   78MOL    H1729431   0.322   6.962   1.176 -2.4168  1.0812  0.3906
   78MOL    H1829432   0.360   6.894   1.018 -0.7419  0.4575 -0.8971
   78MOL    H1929433   0.241   7.024   1.029 -1.3542 -0.3926 -0.0691
   78MOL    H2029434   0.228   6.476   1.342 -0.0351  2.7539  0.2747
   78MOL    C2129435   0.452   6.652   1.420 -0.1431 -0.4533 -0.3067
   78MOL    C2229436   0.527   6.785   1.405 -0.3708 -0.0466 -0.1453
   78MOL    O2329437   0.506   6.862   1.532  0.0941 -0.0018 -0.0662
   78MOL    C2429438   0.381   6.934   1.524  0.5505 -0.7698 -0.3168
   78MOL    C2529439   0.353   6.989   1.664  0.3788  0.2340 -0.1329
   78MOL    C2629440   0.468   7.089   1.698 -0.3342  0.0216 -0.3838
   78MOL    C2729441   0.226   7.075   1.672  0.7224  0.2335  0.0234
   78MOL    H2829442   0.372   6.672   1.490  1.0495  1.5419  0.5249
   78MOL    H2929443   0.516   6.579   1.471 -0.3760 -1.1462 -0.9979
   78MOL    H3029444   0.493   6.849   1.324  1.3453  0.9057 -0.1419
   78MOL    H3129445   0.300   6.871   1.487 -0.3417 -0.1334  0.5492
   78MOL    H3229446   0.389   7.019   1.456  2.7596  0.3117  1.2226
   78MOL    H3329447   0.341   6.907   1.735 -1.9522  2.0777  1.7093
   78MOL    H3429448   0.473   7.176   1.632 -0.5872  0.2988 -0.0367
   78MOL    H3529449   0.563   7.038   1.718  0.1939  0.6126 -1.3280
   78MOL    H3629450   0.446   7.138   1.793  1.3170 -1.1050  0.6108
   78MOL    H3729451   0.231   7.166   1.612 -1.6818  0.1024 -0.4253
   78MOL    H3829452   0.130   7.023   1.663 -0.6707  3.1127 -3.1300
   78MOL    H3929453   0.215   7.127   1.768  0.9144 -1.1849  0.8242
   78MOL    C4029454   0.681   6.768   1.390 -0.2779 -0.3312  0.3119
   78MOL    C4129455   0.757   6.902   1.375 -0.0176 -0.4700  0.5786
   78MOL    O4229456   0.706   6.969   1.255 -0.4355 -0.3287 -0.0496
   78MOL    C4329457   0.763   7.092   1.224 -0.4164  0.1949  0.4669
   78MOL    C4429458   0.686   7.158   1.105 -0.0597  0.0285 -0.7994
   78MOL    C4529459   0.693   7.073   0.979 -0.3075 -0.3264  0.1172
   78MOL    C4629460   0.545   7.200   1.148 -0.2851  0.0620 -0.8724
   78MOL    H4729461   0.709   6.719   1.297  0.0785  2.6889 -1.2209
   78MOL    H4829462   0.716   6.706   1.472  2.9933  2.0880  0.8369
   78MOL    H4929463   0.723   6.978   1.445  0.5580  2.2729 -2.0002
   78MOL    H5029464   0.871   7.103   1.209 -1.0524  2.8796 -2.6248
   78MOL    H5129465   0.760   7.155   1.314  0.4337  1.3675 -0.3103
   78MOL    H5229466   0.738   7.253   1.093  0.7063 -0.3362 -0.4272
   78MOL    H5329467   0.795   7.045   0.954  0.0466 -0.4779  1.6889
   78MOL    H5429468   0.625   6.988   0.990 -0.8298 -0.1009 -1.2314
   78MOL    H5529469   0.654   7.122   0.890 -0.0989  2.7086  1.6081
   78MOL    H5629470   0.488   7.241   1.065  0.5151 -0.7265 -1.8361
   78MOL    H5729471   0.532   7.267   1.232  0.2999  2.1421 -2.4039
   78MOL    H5829472   0.492   7.109   1.177  0.6734 -0.0738  0.5057
   78MOL    C5929473   0.911   6.889   1.372  0.2907  0.4868 -0.2040
   78MOL    C6029474   0.982   6.930   1.501  0.5264 -0.8178 -0.5872
   78MOL    O6129475   1.126   6.911   1.483 -0.0579 -0.2317  0.3413
   78MOL    C6229476   1.193   7.012   1.408  0.6686 -0.5334  0.6914
   78MOL    C6329477   1.260   6.947   1.287 -0.9348  0.7776  0.4553
   78MOL    C6429478   1.362   7.037   1.229 -0.2915 -0.6755  0.1108
   78MOL    C6529479   1.315   6.803   1.324 -0.0157  0.1421  0.4465
   78MOL    H6629480   0.959   6.934   1.285  2.4426 -0.3945  0.5172
   78MOL    H6729481   0.930   6.785   1.348 -2.5752  0.0926 -0.9973
   78MOL    H6829482   0.958   7.034   1.522  2.4027 -0.4946  0.0448
   78MOL    H6929483   1.118   7.087   1.385  0.6310 -0.9286 -0.4981
   78MOL    H7029484   1.260   7.052   1.484  0.6853  0.8421 -0.0388
   78MOL    H7129485   1.184   6.925   1.212 -0.3754 -0.1823  0.1597
   78MOL    H7229486   1.438   7.066   1.302 -0.2134 -0.7956  0.0771
   78MOL    H7329487   1.310   7.124   1.189 -0.8238 -1.5187 -1.0133
   78MOL    H7429488   1.403   6.990   1.140  0.0140  1.5946 -0.9870
   78MOL    H7529489   1.409   6.781   1.273 -0.6607  0.6392 -0.9924
   78MOL    H7629490   1.349   6.801   1.427 -2.1460  0.1969  1.1599
   78MOL    H7729491   1.252   6.716   1.304  0.4049  0.3645 -2.1165
   78MOL    C7829492   0.928   6.843   1.622  0.5153 -0.1779  0.3893
   78MOL    C7929493   0.983   6.875   1.755  0.5653  0.2710 -0.5052
   78MOL    O8029494   0.904   6.954   1.847  0.5690  1.3104  0.0764
   78MOL    C8129495   0.963   7.077   1.872 -0.0011  0.0662 -0.0313
   78MOL    C8229496   0.872   7.151   1.967  0.2954 -0.3724 -0.1836
   78MOL    C8329497   0.909   7.303   1.978 -1.0896 -0.3363 -0.3015
   78MOL    C8429498   0.863   7.079   2.106  0.0994 -0.0270 -0.0118
   78MOL    H8529499   0.940   6.737   1.598 -0.0695 -0.0294 -0.5740
   78MOL    H8629500   0.821   6.854   1.640  0.2881 -0.4338 -0.7768
   78MOL    H8729501   1.084   6.914   1.744  0.6947  0.1828  0.2933
   78MOL    H8829502   1.066   7.077   1.908  0.5002  1.0012 -1.4365
   78MOL    H8929503   0.978   7.138   1.783  3.5489 -1.3231 -0.5034
   78MOL    H9029504   0.773   7.155   1.921  0.0026 -0.0623  0.4701
   78MOL    H9129505   0.830   7.367   2.018  0.3276  1.9830 -1.0944
   78MOL    H9229506   0.932   7.344   1.879 -0.4950  0.0223 -0.0205
   78MOL    H9329507   1.000   7.326   2.033 -0.6706 -1.2304 -0.6137
   78MOL    H9429508   0.960   7.070   2.153 -1.6431 -0.1558  3.6796
   78MOL    H9529509   0.831   6.976   2.090  0.3711 -0.2991  1.2009
   78MOL    H9629510   0.791   7.122   2.175  1.4322 -0.0490  1.3971
   78MOL    C9729511   1.019   6.741   1.830  0.7401  0.0655  0.5508
   78MOL    C9829512   1.119   6.647   1.754 -0.5457  0.4620  0.3439
   78MOL    O9929513   1.057   6.520   1.748 -0.1492 -0.1160 -0.3465
   78MOL   C10029514   1.098   6.436   1.638  0.5697 -0.5460 -0.3373
   78MOL   C10129515   0.979   6.338   1.602 -0.3445  0.0775 -0.1219
   78MOL   C10229516   0.942   6.249   1.726  0.2480  0.5537 -0.2216
   78MOL   C10329517   0.856   6.408   1.551 -0.4640 -0.5866  0.0203
   78MOL   H10429518   0.925   6.687   1.845  1.2661 -1.1878 -0.5895
   78MOL   H10529519   1.055   6.777   1.927  2.9880 -0.1121 -0.2077
   78MOL   H10629520   1.131   6.686   1.653 -1.0434  1.7871  0.7860
   78MOL   H10729521   1.186   6.385   1.677 -1.2430 -0.8835  3.5938
   78MOL   H10829522   1.126   6.496   1.551 -2.8474  1.9199  0.1489
   78MOL   H10929523   1.017   6.281   1.517 -0.6627  0.9825 -0.8789
   78MOL   H11029524   0.936   6.314   1.814 -0.2335 -0.9393  0.8590
   78MOL   H11129525   0.840   6.212   1.718 -0.3046  2.3524 -1.8229
   78MOL   H11229526   1.003   6.162   1.748  0.9533  0.6726 -1.6856
   78MOL   H11329527   0.808   6.470   1.627  0.4874 -0.6194  0.6542
   78MOL   H11429528   0.873   6.473   1.465 -1.6097 -0.5425 -0.1798
   78MOL   H11529529   0.782   6.335   1.518 -1.3817  0.1358  0.4324
   78MOL   C11629530   1.259   6.630   1.825 -0.2132 -0.0989 -0.0701
   78MOL   C11729531   1.340   6.760   1.846  0.3892  0.1372  0.2064
   78MOL   O11829532   1.447   6.744   1.938  0.0672  0.6415 -0.1495
   78MOL   C11929533   1.545   6.650   1.905  0.2417 -0.2086 -0.0487
   78MOL   C12029534   1.650   6.662   2.021  0.4379  0.0831 -0.0403
   78MOL   C12129535   1.697   6.803   2.020  0.3343  0.3850 -0.5880
   78MOL   C12229536   1.587   6.615   2.153 -0.2581 -0.0137  0.2990
   78MOL   H12329537   1.246   6.573   1.917  0.6114 -0.5208 -0.2126
   78MOL   H12429538   1.315   6.567   1.757 -0.3594  0.8037 -1.0325
   78MOL   H12529539   1.288   6.831   1.911  1.0214  0.0683  0.7978
   78MOL   H12629540   1.589   6.673   1.808 -1.5243  0.8445 -0.6232
   78MOL   H12729541   1.504   6.550   1.895 -2.2083  0.9691 -2.2906
   78MOL   H12829542   1.739   6.599   2.008 -0.1292 -0.4027 -1.6231
   78MOL   H12929543   1.791   6.813   2.074 -1.1582 -1.2189  2.3858
   78MOL   H13029544   1.628   6.881   2.052  0.6990 -1.2649  4.5293
   78MOL   H13129545   1.726   6.828   1.917 -1.8390  0.3923 -1.2244
   78MOL   H13229546   1.538   6.518   2.142  0.7674 -0.8545  2.8845
   78MOL   H13329547   1.666   6.613   2.227  0.3387 -1.0945 -0.3574
   78MOL   H13429548   1.509   6.688   2.178 -0.4241 -0.7931  2.0942
   78MOL   C13529549   1.372   6.837   1.709  0.6237 -0.0879 -0.2415
   78MOL   C13629550   1.438   6.976   1.737 -0.5397 -0.6732 -0.4949
   78MOL   O13729551   1.512   7.023   1.630  0.8217  0.1646  0.0442
   78MOL   C13829552   1.641   6.978   1.626 -0.0046 -0.2623  0.2957
   78MOL   C13929553   1.687   7.031   1.493 -0.6457 -0.4163  0.4202
   78MOL   C14029554   1.659   7.174   1.465  0.3528  0.0749  0.2210
   78MOL   C14129555   1.831   6.995   1.466 -0.2207 -0.2746  0.0406
   78MOL   H14229556   1.436   6.771   1.651 -0.0357  0.2860 -1.4107
   78MOL   H14329557   1.280   6.852   1.654  1.1989  1.9786 -0.6758
   78MOL   H14429558   1.510   6.955   1.817  0.8689 -0.2944 -1.6287
   78MOL   H14529559   1.646   6.869   1.634 -1.3094 -0.3724 -0.3015
   78MOL   H14629560   1.707   7.018   1.703  1.7241 -0.6213 -0.9604
   78MOL   H14729561   1.636   6.972   1.416 -1.3061 -2.0173  2.0542
   78MOL   H14829562   1.711   7.233   1.540  0.5507 -2.2066  1.9342
   78MOL   H14929563   1.553   7.198   1.476  0.7272  0.7926  2.4857
   78MOL   H15029564   1.687   7.202   1.363  0.5666 -0.9165  0.0024
   78MOL   H15129565   1.904   7.048   1.528  1.6726 -1.7572 -0.8427
   78MOL   H15229566   1.832   6.886   1.468 -0.2827 -0.2736  0.1362
   78MOL   H15329567   1.839   7.031   1.363 -1.2473  1.7874  0.6671
   78MOL   C15429568   1.331   7.072   1.785  0.0582 -0.1078 -0.3127
   78MOL   C15529569   1.388   7.216   1.799 -0.6105 -0.2328 -0.3623
   78MOL   O15629570   1.278   7.303   1.821 -0.8473 -0.0439  0.2320
   78MOL   C15729571   1.279   7.415   1.728  1.1150 -0.0187 -0.2574
   78MOL   C15829572   1.202   7.538   1.783  0.2982 -0.6200  0.5629
   78MOL   C15929573   1.245   7.582   1.916 -0.2424 -0.1437  0.5831
   78MOL   C16029574   1.193   7.656   1.681 -0.0829 -0.1738 -0.6335
   78MOL   H16129575   1.272   7.035   1.869 -0.9094 -2.1894 -1.8458
   78MOL   H16229576   1.258   7.082   1.705 -0.8401 -1.0113  0.3688
   78MOL   H16329577   1.436   7.245   1.706  1.4502  0.2906  0.8286
   78MOL   H16429578   1.240   7.383   1.632 -1.5250  1.0493  0.4183
   78MOL   H16529579   1.379   7.457   1.715  1.5111 -1.0053 -0.4032
   78MOL   H16629580   1.105   7.500   1.815  0.8839 -2.6465 -0.0470
   78MOL   H16729581   1.251   7.498   1.985  0.8892  0.1818  0.8932
   78MOL   H16829582   1.181   7.646   1.978  0.9486  3.2326 -1.5127
   78MOL   H16929583   1.340   7.632   1.902 -0.5772 -0.2111 -2.3490
   78MOL   H17029584   1.289   7.690   1.641  0.7013  0.2729  1.5577
   78MOL   H17129585   1.132   7.625   1.597 -0.0593 -0.0164 -0.7084
   78MOL   H17229586   1.131   7.737   1.720 -0.0202 -0.5494  0.2560
   78MOL   C17329587   1.488   7.223   1.918 -0.1427 -0.3100 -0.5885
   78MOL   C17429588   1.577   7.344   1.916 -0.0750  0.0707  0.1275
   78MOL   O17529589   1.651   7.353   2.040  1.1653 -0.2383 -0.0370
   78MOL   C17629590   1.579   7.410   2.140  0.6742 -0.3071 -0.3568
   78MOL   C17729591   1.678   7.426   2.255 -0.0897 -0.2505 -0.6317
   78MOL   C17829592   1.732   7.292   2.314 -0.1293  0.0077 -0.0725
   78MOL   C17929593   1.795   7.525   2.231  0.2847  0.6295  0.9191
   78MOL   H18029594   1.434   7.222   2.013 -0.3138 -1.0457 -0.6857
   78MOL   H18129595   1.545   7.129   1.920 -2.0689 -1.5731 -2.5048
   78MOL   H18229596   1.504   7.425   1.911  0.4956  0.6008  0.3853
   78MOL   H18329597   1.492   7.352   2.173 -0.4945  0.5854 -1.7857
   78MOL   H18429598   1.549   7.512   2.116 -2.5698 -0.8809  0.8754
   78MOL   H18529599   1.630   7.467   2.344 -0.9806 -0.9357 -0.7949
   78MOL   H18629600   1.824   7.268   2.260 -0.7266 -2.9764  0.1640
   78MOL   H18729601   1.754   7.324   2.416 -0.4159  0.5837 -0.1921
   78MOL   H18829602   1.662   7.209   2.306  0.7640 -0.7347 -0.2376
   78MOL   H18929603   1.757   7.623   2.202  0.1089  0.1032 -0.7053
   78MOL   H19029604   1.855   7.499   2.143 -2.2287  0.9961 -0.9778
   78MOL   H19129605   1.870   7.537   2.309  1.6401 -1.3163 -0.0127
   78MOL   C19229606   1.667   7.350   1.792 -0.5381 -0.6522  0.1957
   78MOL   C19329607   1.755   7.473   1.785  0.5658  0.4475 -0.7730
   78MOL   O19429608   1.683   7.584   1.744 -0.3602  0.5283  0.1635
   78MOL   C19529609   1.683   7.697   1.836  0.1442 -0.2942  0.4458
   78MOL   C19629610   1.673   0.013   1.766  0.0118  0.8856 -0.0179
   78MOL   C19729611   1.536   0.029   1.706 -0.2106  0.5175 -0.1152
   78MOL   C19829612   1.796   0.031   1.673 -0.1792  0.7268  0.4191
   78MOL   H19929613   1.609   7.355   1.699 -2.3060  1.1483  1.3518
   78MOL   H20029614   1.719   7.254   1.789 -2.2489 -1.5535 -3.0246
   78MOL   H20129615   1.799   7.488   1.884  0.3232  2.8037 -0.9937
   78MOL   H20229616   1.758   7.693   1.915  0.8965  3.2594 -0.0299
   78MOL   H20329617   1.597   7.680   1.902 -0.4396  0.3118 -0.1469
   78MOL   H20429618   1.680   0.088   1.845  0.0196 -0.6153  1.4373
   78MOL   H20529619   1.531   0.119   1.645 -0.0684  0.0400 -0.8255
   78MOL   H20629620   1.523   7.766   1.644  0.6853 -0.6040  1.2549
   78MOL   H20729621   1.463   0.033   1.788  0.6552  0.4044  0.6674
   78MOL   H20829622   1.774   7.807   1.577 -0.8493  0.2428  0.8122
   78MOL   H20929623   1.827   0.134   1.654 -3.2869  1.6070 -0.3300
   78MOL   H21029624   1.884   7.798   1.700  0.5721  0.2509 -2.7797
   78MOL   C21129625   1.866   7.447   1.674  0.1104 -0.3673  0.2221
   78MOL   C21229626   2.005   7.504   1.708  0.1235  0.5768 -0.1104
   78MOL   O21329627   2.085   7.411   1.779 -0.3654 -0.0349  0.2989
   78MOL   C21429628   2.050   7.380   1.913 -0.3556 -0.1059  0.0175
   78MOL   C21529629   2.110   7.241   1.952  0.1756  0.3105  0.4356
   78MOL   C21629630   2.055   7.197   2.087 -0.0245 -0.0252 -0.2119
   78MOL   C21729631   2.069   7.128   1.848 -0.1840  0.7363  0.2836
   78MOL   H21829632   1.834   7.488   1.578 -0.9457  0.3321  0.8571
   78MOL   H21929633   1.882   7.341   1.655  4.1898  0.1106  0.5474
   78MOL   H22029634   1.989   7.595   1.767  0.9490 -0.7601  2.2219
   78MOL   H22129635   1.943   7.362   1.907 -1.2255  4.1511  1.0897
   78MOL   H22229636   2.082   7.454   1.986 -2.9365  0.9942  0.0790
   78MOL   H22329637   2.218   7.257   1.953 -0.0030  1.4865  1.8353
   78MOL   H22429638   2.088   7.276   2.154 -0.1249  1.0264 -1.3900
   78MOL   H22529639   1.946   7.188   2.083  0.1808 -2.1454 -1.3665
   78MOL   H22629640   2.089   7.099   2.121 -1.8872 -0.3809  0.6973
   78MOL   H22729641   2.118   7.037   1.882 -0.4185  1.1071  1.6466
   78MOL   H22829642   2.105   7.157   1.750  2.8509 -0.3525  1.0047
   78MOL   H22929643   1.961   7.118   1.844 -0.1374  1.1474 -3.0535
   78MOL   C23029644   2.089   7.523   1.586  0.1084  0.6650  0.1669
   78MOL   C23129645   2.233   7.592   1.598  0.0099 -0.2589 -0.1796
   78MOL   O23229646   2.306   7.594   1.475 -0.0526  0.1830  0.0280
   78MOL   C23329647   2.374   7.470   1.443  0.6818 -1.2745  0.5510
   78MOL   C23429648   2.516   7.508   1.407 -0.9902 -0.0148  0.0419
   78MOL   C23529649   2.606   7.381   1.393 -0.1337 -0.2492 -0.1449
   78MOL   C23629650   2.526   7.593   1.276 -0.4783  0.4695 -0.0810
   78MOL   H23729651   2.030   7.567   1.506 -0.5937 -2.1460 -0.9262
   78MOL   H23829652   2.117   7.424   1.548 -0.8821  1.3378 -2.4137
   78MOL   H23929653   2.309   7.544   1.659  0.5911  2.5716  1.4427
   78MOL   H24029654   2.362   7.385   1.510 -3.2946 -1.6708 -0.5504
   78MOL   H24129655   2.341   7.429   1.347  3.0501  0.4164 -1.0678
   78MOL   H24229656   2.562   7.561   1.491 -0.0519  0.3462 -0.6944
   78MOL   H24329657   2.561   7.296   1.342 -1.5190 -0.6049  1.6239
   78MOL   H24429658   2.625   7.354   1.497 -1.0825  0.4637  0.2196
   78MOL   H24529659   2.700   7.410   1.346  1.8537 -2.8201  2.1301
   78MOL   H24629660   2.630   7.615   1.250  0.2883 -3.0263 -0.3446
   78MOL   H24729661   2.488   7.531   1.194 -2.3701  1.1438  0.2653
   78MOL   H24829662   2.460   7.679   1.267 -0.9409  0.2540  1.2452
   78MOL   C24929663   2.215   7.741   1.640  0.0682 -0.1872  0.1472
   78MOL   C25029664   2.341   0.011   1.635  0.3275 -0.0747 -0.1070
   78MOL   O25129665   2.302   0.138   1.686 -0.0929 -0.2033  0.6881
   78MOL   C25229666   2.244   0.235   1.594 -0.2374  0.3459  0.0901
   78MOL   C25329667   2.145   0.334   1.670 -0.4431  0.5568  0.4026
   78MOL   C25429668   2.055   0.412   1.573 -0.2897  1.1132  0.3794
   78MOL   C25529669   2.219   0.414   1.778 -0.0307  0.2711  0.6136
   78MOL   H25629670   2.173   7.741   1.740 -0.2114  3.5812  0.1051
   78MOL   H25729671   2.139   7.783   1.574  1.0233 -2.1372 -2.2711
   78MOL   H25829672   2.383   0.011   1.534 -1.1445 -0.8150 -0.7370
   78MOL   H25929673   2.323   0.293   1.546  0.0108  0.5200  0.7032
   78MOL   H26029674   2.188   0.192   1.511  0.6298  1.9179 -1.3437
   78MOL   H26129675   2.079   0.260   1.717  0.2201 -0.6689 -0.5676
   78MOL   H26229676   1.965   0.448   1.623 -0.8358 -2.5971  2.2592
   78MOL   H26329677   2.034   0.335   1.498 -1.7733  1.0187  0.8612
   78MOL   H26429678   2.097   0.496   1.517 -0.0140 -0.3204 -1.6385
   78MOL   H26529679   2.149   0.462   1.847 -0.9833 -0.6453  0.3196
   78MOL   H26629680   2.281   0.347   1.838  2.2729  1.9968  0.1708
   78MOL   H26729681   2.283   0.491   1.737 -0.2725  0.8551  1.3237
   78MOL   C26829682   2.461   7.774   1.707 -0.0023 -0.5441 -0.2832
   78MOL   C26929683   2.586   0.037   1.712  0.3531  0.2487 -0.0274
   78MOL   O27029684   2.647   0.021   1.589  0.4142 -0.0908 -0.9533
   78MOL   C27129685   2.752   0.122   1.554 -0.4539 -0.0428 -0.5428
   78MOL   C27229686   2.780   0.086   1.408  0.2145  0.5610  0.1447
   78MOL   C27329687   2.650   0.104   1.323  0.1695 -0.0791  0.2260
   78MOL   C27429688   2.899   0.155   1.343 -0.2984 -0.4861 -0.1615
   78MOL   H27529689   2.500   7.682   1.662  2.4382  1.0178 -1.4893
   78MOL   H27629690   2.438   7.751   1.811  0.7485  1.3517  0.3148
   78MOL   H27729691   2.550   0.139   1.723 -0.9557 -0.1272 -0.7499
   78MOL   H27829692   2.718   0.225   1.566  1.4564  0.7402 -1.6081
   78MOL   H27929693   2.836   0.098   1.619 -0.5893 -0.2983 -0.4619
   78MOL   H28029694   2.798   7.803   1.401 -1.7721  0.2286 -0.1774
   78MOL   H28129695   2.632   0.211   1.316  1.3918  0.1042 -0.2868
   78MOL   H28229696   2.560   0.062   1.367  0.2995  0.4672  1.0141
   78MOL   H28329697   2.659   0.067   1.220 -0.3484 -0.4620  0.3165
   78MOL   H28429698   2.904   0.120   1.239  1.3449  1.7281 -0.8795
   78MOL   H28529699   2.987   0.122   1.398  0.5360  0.1762 -1.0870
   78MOL   H28629700   2.891   0.263   1.341 -0.0666 -0.4827 -1.8255
   78MOL   C28729701   2.681   7.813   1.829 -0.2537 -0.6307  0.0994
   78MOL   C28829702   2.639   0.036   1.972 -0.4660  0.2406 -0.7015
   78MOL   O28929703   2.648   0.178   1.983  0.2136  0.2619  0.2613
   78MOL   C29029704   2.526   0.255   1.978  0.8705 -0.5182 -0.6435
   78MOL   C29129705   2.565   0.399   1.941  0.4010 -0.0830 -0.2942
   78MOL   C29229706   2.631   0.402   1.802 -0.4906  0.5801 -0.2335
   78MOL   C29329707   2.646   0.469   2.052  0.0183 -0.1561  0.4052
   78MOL   H29429708   2.784   0.014   1.805  0.0283 -0.8258  1.0799
   78MOL   H29529709   2.672   7.705   1.825  2.3098 -0.8218 -1.4682
   78MOL   H29629710   2.537   0.007   1.993 -0.6312 -0.4353 -2.3846
   78MOL   H29729711   2.461   0.204   1.907 -1.9694  0.8357  0.9093
   78MOL   H29829712   2.479   0.254   2.076  0.5620  0.5156 -0.7705
   78MOL   H29929713   2.474   0.457   1.939  0.6226  0.2486 -0.8224
   78MOL   H30029714   2.723   0.344   1.796 -0.5723  0.5032 -0.8103
   78MOL   H30129715   2.644   0.503   1.765 -0.3335 -0.0808 -2.0533
   78MOL   H30229716   2.562   0.351   1.733  0.0955 -0.2759 -0.1935
   78MOL   H30329717   2.672   0.569   2.019 -0.4899 -0.0258  0.3959
   78MOL   H30429718   2.582   0.465   2.140 -0.4887 -1.3091  0.0038
   78MOL   H30529719   2.732   0.404   2.062 -0.3585 -0.6092  0.7592
   78MOL   C30629720   2.735   7.784   2.062  0.0574  0.5368 -0.1209
   78MOL   C30729721   2.663   7.757   2.194 -0.0637  0.3143 -0.7452
   78MOL   O30829722   2.546   7.676   2.175  0.3623  0.1696 -0.1570
   78MOL   C30929723   2.458   7.688   2.284 -0.0853 -0.2016  0.3256
   78MOL   C31029724   2.329   7.618   2.248 -0.0169 -0.1340 -0.4728
   78MOL   C31129725   2.203   7.673   2.325  0.0222 -0.4738 -0.1761
   78MOL   C31229726   2.327   7.458   2.266 -0.4300 -0.3368 -0.6073
   78MOL   H31329727   2.824   0.019   2.081  1.7541 -1.9597 -0.0455
   78MOL   H31429728   2.758   7.685   2.023 -0.7853  0.6468 -0.9137
   78MOL   H31529729   2.634   0.028   2.238 -1.2912 -0.3527 -0.0801
   78MOL   H31629730   2.421   7.790   2.292  0.6782  0.4112 -3.3171
   78MOL   H31729731   2.491   7.662   2.385  1.0134  1.6771  0.4751
   78MOL   H31829732   2.321   7.650   2.144  0.2518  0.7055 -0.2368
   78MOL   H31929733   2.122   7.601   2.313  0.3808 -0.9104 -0.0030
   78MOL   H32029734   2.169   7.775   2.312 -0.2540  0.2766  5.5132
   78MOL   H32129735   2.230   7.680   2.430  2.5460  0.0131 -0.8116
   78MOL   H32229736   2.315   7.425   2.369  2.7704  2.4088  0.7457
   78MOL   H32329737   2.427   7.424   2.239 -1.2597 -1.9151 -1.7841
   78MOL   H32429738   2.254   7.414   2.198  0.1762 -0.3070 -1.2859
   78MOL   C32529739   2.767   7.708   2.306 -0.4998 -0.2434 -0.4862
   78MOL   C32629740   2.838   7.802   2.407 -0.4069  0.4334  0.3547
   78MOL   O32729741   2.785   7.766   2.532  0.9962  0.1676 -0.4549
   78MOL   C32829742   2.666   0.010   2.573  0.0017 -0.2745  0.3746
   78MOL   C32929743   2.621   7.761   2.696  0.2647 -0.9643  0.2283
   78MOL   C33029744   2.597   7.608   2.679  0.4335 -0.7139  0.1584
   78MOL   C33129745   2.708   7.785   2.816 -0.6244 -0.4093 -0.0013
   78MOL   H33229746   2.847   7.670   2.243  0.9073  0.4546  0.8681
   78MOL   H33329747   2.738   7.612   2.348 -0.1845  0.0540  0.4028
   78MOL   H33429748   2.820   0.083   2.386 -0.5577  0.7116  1.8377
   78MOL   H33529749   2.684   0.117   2.584  0.0953 -0.4743  2.2551
   78MOL   H33629750   2.588   0.009   2.497  2.7110  1.6118 -2.5780
   78MOL   H33729751   2.525   7.803   2.726  0.2955 -0.4502 -0.3807
   78MOL   H33829752   2.530   7.567   2.604 -0.4577 -1.6567  1.4433
   78MOL   H33929753   2.689   7.552   2.658  0.2381 -0.8311 -0.3876
   78MOL   H34029754   2.551   7.562   2.767  2.2157 -1.4331  0.7490
   78MOL   H34129755   2.724   0.067   2.835 -0.1664 -0.2367 -1.2842
   78MOL   H34229756   2.653   7.742   2.899 -1.9870  1.4741  0.1051
   78MOL   H34329757   2.810   7.747   2.809 -1.5729 -2.7540 -1.6082
   78MOL   C34429758   2.989   7.805   2.395 -0.1126 -0.3608 -0.1178
   78MOL   C34529759   3.065   0.079   2.481 -0.0789 -0.7358 -0.0451
   78MOL   O34629760   3.032   0.215   2.466  0.3269 -0.9486  0.0763
   78MOL   C34729761   3.042   0.286   2.341 -0.5091 -0.1402 -0.6732
   78MOL   C34829762   2.944   0.408   2.350  0.6368  0.1780 -0.2545
   78MOL   C34929763   2.798   0.363   2.348 -0.5451 -0.0886  0.0827
   78MOL   C35029764   2.983   0.509   2.241 -0.3899  0.2192 -0.2736
   78MOL   H35129765   3.014   0.014   2.295 -0.6645  0.6950  0.0911
   78MOL   H35229766   3.037   7.707   2.401 -1.5625 -1.0524  0.4605
   78MOL   H35329767   3.168   0.060   2.451 -0.1472 -0.9852 -0.1188
   78MOL   H35429768   3.024   0.226   2.252  2.4735 -2.5577  0.2652
   78MOL   H35529769   3.146   0.320   2.337 -0.8482  0.8132 -1.6799
   78MOL   H35629770   2.961   0.470   2.438 -0.0554  2.4471 -1.6702
   78MOL   H35729771   2.753   0.314   2.261 -1.4778  0.0248  0.4890
   78MOL   H35829772   2.730   0.448   2.343  1.7430  1.8727  1.3933
   78MOL   H35929773   2.789   0.303   2.439 -1.0185 -2.1471 -1.2874
   78MOL   H36029774   3.074   0.555   2.281 -0.5991 -1.6304  2.4045
   78MOL   H36129775   3.007   0.456   2.149  1.7622 -2.6289  1.8577
   78MOL   H36229776   2.910   0.585   2.210  0.0090  1.0729  0.8346
   78MOL   C36329777   3.061   0.046   2.630 -0.3725  0.3180 -0.1605
   78MOL   C36429778   3.150   7.745   2.675  0.3039 -0.2114  0.2606
   78MOL   O36529779   3.118   7.704   2.812  0.2002  0.1493 -0.3580
   78MOL   C36629780   3.224   7.625   2.883 -0.4132 -0.0648  0.9925
   78MOL   C36729781   3.182   7.580   3.025 -0.0620 -0.4285  0.0968
   78MOL   C36829782   3.048   7.492   3.016  0.3065 -0.7001  0.0250
   78MOL   C36929783   3.151   7.692   3.129  0.4464 -0.3855  0.0925
   78MOL   H37029784   3.100   0.135   2.682 -0.5738  0.5252 -0.3663
   78MOL   H37129785   2.962   0.032   2.673  0.2227 -3.4208  0.0854
   78MOL   H37229786   3.256   7.760   2.653  0.8952 -2.0742  1.6424
   78MOL   H37329787   3.240   7.536   2.823 -1.4397 -0.2153  0.9303
   78MOL   H37429788   3.319   7.677   2.898 -0.4116  0.0064  0.7353
   78MOL   H37529789   3.271   7.524   3.056  0.5002  1.5176  2.1216
   78MOL   H37629790   2.954   7.546   3.004  0.8858 -0.0875 -2.0383
   78MOL   H37729791   3.043   7.436   3.109 -0.7551  2.8692  2.2365
   78MOL   H37829792   3.060   7.420   2.936 -0.4215 -0.8035  0.0004
   78MOL   H37929793   3.067   7.761   3.118 -0.8178 -1.8838  0.2538
   78MOL   H38029794   3.239   7.751   3.157  1.3734 -1.0484 -1.3647
   78MOL   H38129795   3.144   7.649   3.229 -1.8023  0.6981  0.4486
   78MOL   H38229796   3.115   7.659   2.618 -0.2426  0.6309 -0.6886
   79MOL     C129797   1.386   2.314   4.256  0.1046  0.3150  0.2280
   79MOL     C229798   1.356   2.323   4.105  0.2882 -0.2346  0.6313
   79MOL     O329799   1.427   2.223   4.029 -0.3387  0.2265 -0.3259
   79MOL     C429800   1.558   2.261   3.988  0.4646  0.0096 -0.0310
   79MOL     C529801   1.627   2.135   3.922 -0.8770 -0.1679 -0.8556
   79MOL     C629802   1.619   2.017   4.022 -0.2509 -0.4472 -1.2274
   79MOL     C729803   1.778   2.151   3.895 -1.1335 -0.1578  0.6462
   79MOL     H829804   1.474   2.373   4.279 -0.6300  1.6327 -0.2596
   79MOL     H929805   1.301   2.357   4.310  0.8956  0.8798  1.0324
   79MOL    H1029806   1.383   2.424   4.077 -1.8163  0.2558  0.2944
   79MOL    H1129807   1.619   2.290   4.074  4.0078 -0.0215 -2.4631
   79MOL    H1229808   1.562   2.335   3.909  2.9591 -0.9015 -0.8072
   79MOL    H1329809   1.578   2.100   3.831 -2.8545 -0.3774  0.2613
   79MOL    H1429810   1.623   2.058   4.123 -1.5859 -0.0754 -1.3195
   79MOL    H1529811   1.520   1.973   4.028 -1.0479  1.5970  1.7245
   79MOL    H1629812   1.697   1.943   4.003  1.9228  1.2400  0.7364
   79MOL    H1729813   1.828   2.177   3.988 -0.6356  2.3489 -0.2623
   79MOL    H1829814   1.821   2.059   3.855  0.1065  1.1351 -1.1110
   79MOL    H1929815   1.797   2.238   3.832  0.8379  0.3644  1.9051
   79MOL    H2029816   1.412   2.216   4.295 -2.2853 -1.2386 -1.9384
   79MOL    C2129817   1.212   2.296   4.057  0.5786  0.3959  0.0553
   79MOL    C2229818   1.186   2.309   3.904  0.0188 -0.6712 -0.4946
   79MOL    O2329819   1.064   2.248   3.870  0.1472 -0.0735  0.1744
   79MOL    C2429820   1.056   2.108   3.864 -0.1719  0.3725  0.3932
   79MOL    C2529821   0.919   2.071   3.811 -0.6640  0.6333 -0.1503
   79MOL    C2629822   0.815   2.130   3.909 -0.2689 -0.0442 -0.5603
   79MOL    C2729823   0.887   2.125   3.667  1.0681  0.5733 -0.2476
   79MOL    H2829824   1.186   2.197   4.096  0.6961  0.3965  0.1340
   79MOL    H2929825   1.142   2.362   4.109 -0.1532 -0.3372  0.0243
   79MOL    H3029826   1.266   2.259   3.851  0.1943  0.1962 -1.0575
   79MOL    H3129827   1.078   2.064   3.961  0.3253 -0.9778 -0.3252
   79MOL    H3229828   1.141   2.063   3.812 -0.5032  0.8004 -0.5309
   79MOL    H3329829   0.906   1.963   3.817 -0.5970  0.5576 -1.2939
   79MOL    H3429830   0.820   2.239   3.919 -0.6309 -0.1291  0.6730
   79MOL    H3529831   0.800   2.077   4.003  0.9152  1.6874  0.6300
   79MOL    H3629832   0.718   2.110   3.865 -0.1824  0.9417 -1.2062
   79MOL    H3729833   0.971   2.104   3.601  0.6255 -0.0608 -0.6127
   79MOL    H3829834   0.805   2.073   3.618  0.5168  0.5146  0.7174
   79MOL    H3929835   0.888   2.233   3.661 -0.0555  0.5616 -0.7326
   79MOL    C4029836   1.179   2.458   3.863  0.6152  0.0401  0.4279
   79MOL    C4129837   1.196   2.468   3.711  0.6783  0.2643 -0.4936
   79MOL    O4229838   1.337   2.486   3.686 -0.2006  0.3971 -0.0146
   79MOL    C4329839   1.415   2.383   3.638  0.3802  0.2252 -0.1142
   79MOL    C4429840   1.550   2.440   3.602  0.2659 -0.0687 -0.4470
   79MOL    C4529841   1.657   2.339   3.565 -0.8393  0.6468  0.2539
   79MOL    C4629842   1.550   2.565   3.509 -0.1824  0.3104  0.1924
   79MOL    H4729843   1.253   2.515   3.919  1.5861 -2.5093  1.8444
   79MOL    H4829844   1.087   2.502   3.902  1.6923  1.0756  1.8791
   79MOL    H4929845   1.149   2.386   3.657  2.3113  0.2268 -1.8809
   79MOL    H5029846   1.375   2.344   3.545  0.9072  2.8765 -1.4920
   79MOL    H5129847   1.419   2.302   3.712 -2.2781  0.4848  0.3775
   79MOL    H5229848   1.574   2.484   3.699 -0.2486 -1.3383  0.2573
   79MOL    H5329849   1.756   2.368   3.600 -0.0966  0.2744 -1.4753
   79MOL    H5429850   1.636   2.239   3.602 -1.3980 -0.3298 -2.5286
   79MOL    H5529851   1.667   2.322   3.457 -0.9335  0.9870  0.1897
   79MOL    H5629852   1.542   2.538   3.404  0.5148 -1.5135  0.5842
   79MOL    H5729853   1.635   2.634   3.515  0.1817  0.0250 -1.4207
   79MOL    H5829854   1.462   2.622   3.537 -1.4147 -0.6430 -1.6804
   79MOL    C5929855   1.142   2.592   3.654 -0.0554 -0.2960  0.2258
   79MOL    C6029856   1.120   2.586   3.502 -0.0939  0.5760  0.6375
   79MOL    O6129857   1.094   2.722   3.465  0.0755 -0.5146  0.1353
   79MOL    C6229858   1.197   2.765   3.382  0.2881  0.3463  0.2866
   79MOL    C6329859   1.143   2.890   3.308 -0.2870  0.0976 -0.1537
   79MOL    C6429860   1.062   2.860   3.180  0.2272  0.0179 -0.4917
   79MOL    C6529861   1.067   2.977   3.398  0.1759  0.3597 -0.8456
   79MOL    H6629862   1.191   2.686   3.678  0.8347 -1.1950  2.0415
   79MOL    H6729863   1.043   2.602   3.696 -0.2112 -0.4107 -0.1109
   79MOL    H6829864   1.216   2.544   3.470 -1.4808 -1.3568 -1.1137
   79MOL    H6929865   1.285   2.783   3.444  0.5496 -2.2703  0.7678
   79MOL    H7029866   1.233   2.693   3.308  0.5284  1.3030 -0.5375
   79MOL    H7129867   1.228   2.953   3.282 -1.0136  0.4924 -1.6561
   79MOL    H7229868   0.993   2.778   3.199 -0.3335  0.3143 -1.2399
   79MOL    H7329869   1.132   2.822   3.106 -0.3629 -2.3256  0.1209
   79MOL    H7429870   1.008   2.948   3.146 -0.6851 -1.1045 -2.0048
   79MOL    H7529871   1.030   3.066   3.348  2.2082 -0.1307 -3.3000
   79MOL    H7629872   0.981   2.920   3.433  1.4355  0.6230  2.9581
   79MOL    H7729873   1.126   3.011   3.484  1.6254  0.2292 -1.7725
   79MOL    C7829874   1.007   2.498   3.442 -0.5026  0.0080 -0.2012
   79MOL    C7929875   1.028   2.448   3.295  0.6360  0.4346  0.4892
   79MOL    O8029876   1.139   2.364   3.293 -0.4181 -0.8886 -0.4767
   79MOL    C8129877   1.221   2.357   3.175  0.6962  0.4733  0.2757
   79MOL    C8229878   1.299   2.223   3.160  0.0458 -0.1624 -0.3694
   79MOL    C8329879   1.412   2.223   3.266  0.9596 -0.5991 -0.4635
   79MOL    C8429880   1.360   2.212   3.022 -0.6839  0.1039  0.0619
   79MOL    H8529881   0.908   2.536   3.468 -0.6920 -0.2030 -0.6166
   79MOL    H8629882   0.997   2.405   3.498 -0.7183 -0.0562 -0.3445
   79MOL    H8729883   1.039   2.539   3.235 -0.1828  1.4363  1.8402
   79MOL    H8829884   1.147   2.357   3.095  0.5372 -2.4571  0.3505
   79MOL    H8929885   1.284   2.445   3.182  1.4687  0.0066 -0.7052
   79MOL    H9029886   1.229   2.140   3.173 -0.6605  0.3616 -0.7934
   79MOL    H9129887   1.474   2.312   3.250 -0.5184  0.2520 -1.5175
   79MOL    H9229888   1.471   2.132   3.279  1.7426 -0.2141 -1.2777
   79MOL    H9329889   1.365   2.233   3.364  2.8888 -1.2406  0.5753
   79MOL    H9429890   1.430   2.293   3.001  0.7099 -0.9850  0.4836
   79MOL    H9529891   1.278   2.218   2.950  0.4206  1.1736 -1.1217
   79MOL    H9629892   1.405   2.115   3.006 -0.2421  0.2234  0.5682
   79MOL    C9729893   0.896   2.388   3.256 -0.3617 -0.0212 -0.5390
   79MOL    C9829894   0.775   2.481   3.241 -0.6599 -0.1640 -0.1952
   79MOL    O9929895   0.654   2.412   3.259 -0.3292 -0.1686 -0.5000
   79MOL   C10029896   0.627   2.391   3.402  0.0378  0.2665  0.0580
   79MOL   C10129897   0.544   2.266   3.422  0.1450 -0.8597 -1.1001
   79MOL   C10229898   0.516   2.251   3.578  0.2286  0.2817  0.4823
   79MOL   C10329899   0.415   2.268   3.342  0.6199  0.4980 -0.1639
   79MOL   H10429900   0.871   2.309   3.328  0.5658  1.2092  1.1573
   79MOL   H10529901   0.902   2.331   3.163  0.3037 -0.2328 -0.3690
   79MOL   H10629902   0.774   2.561   3.315  0.3658  1.7793 -2.2223
   79MOL   H10729903   0.567   2.475   3.438  0.6358  0.0946  1.5144
   79MOL   H10829904   0.719   2.375   3.458  1.8308  1.9365 -2.2867
   79MOL   H10929905   0.604   2.183   3.384 -1.3169 -1.1048 -2.9246
   79MOL   H11029906   0.475   2.158   3.616 -0.1517  1.1642  2.2847
   79MOL   H11129907   0.614   2.257   3.627  0.5892  1.6362 -0.3715
   79MOL   H11229908   0.476   2.335   3.635 -2.2917 -1.2313  0.9911
   79MOL   H11329909   0.415   2.296   3.236 -3.6476  1.1115 -0.1198
   79MOL   H11429910   0.368   2.169   3.347 -0.3901  1.0458  1.4938
   79MOL   H11529911   0.339   2.332   3.385  0.3771 -0.5986  1.0758
   79MOL   C11629912   0.768   2.534   3.096 -0.5830 -0.2364 -0.0416
   79MOL   C11729913   0.653   2.629   3.081  1.3154  0.2711 -0.1239
   79MOL   O11829914   0.682   2.741   3.167 -0.4259  0.2089  0.1400
   79MOL   C11929915   0.567   2.788   3.238 -0.7454 -0.5475  0.5463
   79MOL   C12029916   0.605   2.896   3.343 -0.1128 -0.4434 -0.6004
   79MOL   C12129917   0.679   2.827   3.470  0.3195  0.9703  0.5743
   79MOL   C12229918   0.679   3.012   3.276 -0.1900  0.0307  0.0920
   79MOL   H12329919   0.863   2.577   3.065 -0.4876  1.1312  2.0213
   79MOL   H12429920   0.752   2.453   3.025  2.2572 -1.3502  0.5438
   79MOL   H12529921   0.556   2.586   3.107  2.1506 -1.4870  0.1597
   79MOL   H12629922   0.517   2.702   3.284  1.1031 -0.5804  2.5890
   79MOL   H12729923   0.508   2.845   3.167 -0.1702  0.9660  1.2678
   79MOL   H12829924   0.511   2.933   3.384  0.7457  0.9603  0.1148
   79MOL   H12929925   0.622   2.746   3.515 -1.1678  2.3577  1.2956
   79MOL   H13029926   0.689   2.901   3.550 -0.7204  2.0599 -0.2734
   79MOL   H13129927   0.772   2.782   3.437  1.3352  1.8801  2.1549
   79MOL   H13229928   0.630   3.051   3.186  1.3816  0.8097 -0.4495
   79MOL   H13329929   0.694   3.086   3.354 -2.0064 -1.8946  2.3221
   79MOL   H13429930   0.778   2.988   3.237  0.1806 -1.8957  2.1721
   79MOL   C13529931   0.638   2.681   2.936 -0.4856  0.3968 -0.6680
   79MOL   C13629932   0.499   2.740   2.891 -0.0482 -0.5369  0.2764
   79MOL   O13729933   0.516   2.859   2.818 -0.4498 -0.7646 -0.1547
   79MOL   C13829934   0.470   2.975   2.886  0.2129  0.2528  0.3336
   79MOL   C13929935   0.516   3.095   2.811  0.1592 -0.1088  0.1136
   79MOL   C14029936   0.408   3.211   2.792  0.0463  0.6260 -0.3342
   79MOL   C14129937   0.641   3.156   2.887  0.9612 -0.4362  0.0650
   79MOL   H14229938   0.714   2.757   2.918 -1.0027  0.6614 -1.7535
   79MOL   H14329939   0.669   2.600   2.870 -0.6032  1.0671 -1.5581
   79MOL   H14429940   0.450   2.758   2.987 -2.0904 -0.7807 -0.6937
   79MOL   H14529941   0.502   2.993   2.989 -1.3689 -1.6636  1.1940
   79MOL   H14629942   0.362   2.961   2.884  0.3026 -0.8742  2.5886
   79MOL   H14729943   0.546   3.061   2.712 -1.2517  0.2433 -0.4369
   79MOL   H14829944   0.450   3.289   2.729 -1.2443  2.5823  1.1901
   79MOL   H14929945   0.376   3.249   2.889  0.3835  0.7859 -0.2877
   79MOL   H15029946   0.324   3.163   2.741  2.0492 -0.5705 -2.6127
   79MOL   H15129947   0.619   3.179   2.991  0.6986  0.2924 -0.1538
   79MOL   H15229948   0.720   3.081   2.876 -0.5291 -1.7745 -2.0020
   79MOL   H15329949   0.665   3.248   2.834 -1.5694  0.7280  0.8556
   79MOL   C15429950   0.415   2.641   2.804  0.3354  0.7192  0.0955
   79MOL   C15529951   0.375   2.522   2.899 -0.0541  0.0746 -0.2280
   79MOL   O15629952   0.285   2.579   3.007  0.0681 -0.4258  0.5434
   79MOL   C15729953   0.291   2.512   3.129  0.3914 -0.1335 -0.4462
   79MOL   C15829954   0.167   2.551   3.212 -0.4942 -0.7518 -0.4262
   79MOL   C15929955   0.187   2.683   3.277 -0.3992 -0.2553 -0.3545
   79MOL   C16029956   0.034   2.543   3.134 -0.0060  0.3094 -0.3647
   79MOL   H16129957   0.488   2.606   2.731 -0.4018 -0.5848 -0.0329
   79MOL   H16229958   0.323   2.676   2.757 -1.5033 -1.9555  1.5404
   79MOL   H16329959   0.460   2.474   2.948 -2.1576 -1.3721  2.1040
   79MOL   H16429960   0.371   2.539   3.198  0.3174  0.6455 -0.6560
   79MOL   H16529961   0.280   2.406   3.106  1.0620 -0.4557  0.6752
   79MOL   H16629962   0.159   2.478   3.292  1.7774  0.8013  1.3057
   79MOL   H16729963   0.267   2.698   3.350  0.5818 -0.8860 -1.2844
   79MOL   H16829964   0.092   2.698   3.329  1.2699 -1.5059  3.2660
   79MOL   H16929965   0.199   2.757   3.199  0.3931 -0.1770 -0.1667
   79MOL   H17029966   7.807   2.447   3.131 -0.6994  0.6368  0.7475
   79MOL   H17129967   7.777   2.605   3.171 -1.7286 -0.9139 -1.9870
   79MOL   H17229968   0.051   2.570   3.030  3.0075 -0.8405 -0.2199
   79MOL   C17329969   0.290   2.408   2.828 -0.0579  0.3035  0.0924
   79MOL   C17429970   0.369   2.317   2.722 -0.5658 -0.0647  0.6255
   79MOL   O17529971   0.407   2.385   2.603 -0.4380  0.3005  0.1639
   79MOL   C17629972   0.303   2.420   2.515 -0.0296  0.1732  0.2866
   79MOL   C17729973   0.356   2.485   2.389  0.0561 -0.5313 -0.5176
   79MOL   C17829974   0.239   2.504   2.286  0.4518 -0.1514 -0.3064
   79MOL   C17929975   0.414   2.629   2.409 -0.1851  0.2371 -0.0008
   79MOL   H18029976   0.257   2.332   2.898  0.9482 -0.8510 -0.6746
   79MOL   H18129977   0.205   2.455   2.778 -0.5783 -0.5181  0.1971
   79MOL   H18229978   0.302   2.238   2.688 -1.2773  0.9717 -0.4029
   79MOL   H18329979   0.240   2.494   2.565 -0.6628  0.8533 -1.4704
   79MOL   H18429980   0.235   2.337   2.493  1.2714 -1.7879  3.2677
   79MOL   H18529981   0.430   2.415   2.350  0.5563 -0.2976  0.0171
   79MOL   H18629982   0.287   2.544   2.196  0.2866 -0.7395 -0.6662
   79MOL   H18729983   0.190   2.412   2.254 -0.4082  0.7089 -1.5215
   79MOL   H18829984   0.172   2.580   2.324  2.3243  1.0446  0.6724
   79MOL   H18929985   0.443   2.661   2.309  0.8409  3.2204  1.2005
   79MOL   H19029986   0.485   2.639   2.491 -2.4365 -0.7117  2.1093
   79MOL   H19129987   0.335   2.697   2.439  1.4296  2.7581 -1.2641
   79MOL   C19229988   0.496   2.246   2.792 -0.5142 -0.2035 -0.4593
   79MOL   C19329989   0.534   2.114   2.720  0.2258  0.0621  0.5219
   79MOL   O19429990   0.636   2.051   2.793  0.6057 -0.3431 -0.1626
   79MOL   C19529991   0.770   2.110   2.800  0.3310  0.2752  0.3401
   79MOL   C19629992   0.859   2.048   2.913  0.2557 -0.2176  0.3401
   79MOL   C19729993   0.996   2.116   2.906 -0.1740  0.0786  0.4323
   79MOL   C19829994   0.875   1.888   2.889 -0.0438 -0.0328  0.3773
   79MOL   H19929995   0.475   2.226   2.897 -0.4742 -0.1124 -0.4349
   79MOL   H20029996   0.583   2.312   2.792 -1.5866  1.2722 -2.7085
   79MOL   H20129997   0.443   2.055   2.726  1.2043 -1.5559 -0.3379
   79MOL   H20229998   0.761   2.217   2.819 -0.4436  0.0493  1.3444
   79MOL   H20329999   0.823   2.097   2.706 -0.7769 -0.2652 -0.2164
   79MOL   H20430000   0.805   2.061   3.006 -2.3808 -2.0147 -0.9041
   79MOL   H20530001   1.040   2.086   2.811 -0.8045 -1.7667  0.7147
   79MOL   H20630002   0.988   2.225   2.908  1.3864  0.1982  0.1085
   79MOL   H20730003   1.057   2.078   2.988 -1.2490  1.1779  1.7861
   79MOL   H20830004   0.975   1.851   2.911 -0.3222  0.3679  2.4516
   79MOL   H20930005   0.809   1.826   2.951 -2.2773  0.5554 -1.3566
   79MOL   H21030006   0.855   1.843   2.792  0.6545 -3.0629  1.6082
   79MOL   C21130007   0.555   2.120   2.571 -0.3283 -0.7011 -0.3099
   79MOL   C21230008   0.545   1.975   2.514 -0.2059  0.0785 -0.1866
   79MOL   O21330009   0.449   1.971   2.410  0.3131  0.0789  0.0458
   79MOL   C21430010   0.318   1.949   2.466  0.7111  0.0626  0.0462
   79MOL   C21530011   0.212   1.940   2.361 -0.3560  0.1999 -0.1248
   79MOL   C21630012   0.220   2.062   2.272 -0.2701  0.3203 -0.3499
   79MOL   C21730013   0.241   1.808   2.274  1.1403 -0.6304 -0.1460
   79MOL   H21830014   0.652   2.166   2.553 -1.1391  0.5035 -1.6679
   79MOL   H21930015   0.479   2.177   2.518 -0.9513  1.2033  2.5255
   79MOL   H22030016   0.522   1.901   2.592  0.8385  0.7437  0.7689
   79MOL   H22130017   0.281   2.034   2.525  0.3545  1.9881 -2.8718
   79MOL   H22230018   0.311   1.862   2.532 -1.4070 -0.1838 -0.4907
   79MOL   H22330019   0.114   1.929   2.408 -1.3102 -0.5964 -2.2170
   79MOL   H22430020   0.126   2.114   2.258 -0.0705  0.7859  0.0192
   79MOL   H22530021   0.292   2.137   2.306 -1.5704  0.9031  1.1593
   79MOL   H22630022   0.258   2.041   2.172 -2.0410  0.3090 -1.0263
   79MOL   H22730023   0.237   1.722   2.341 -1.7498 -0.2478  0.2529
   79MOL   H22830024   0.338   1.802   2.225  0.7804 -0.7824 -0.8430
   79MOL   H22930025   0.156   1.797   2.208  2.2396 -0.4914 -1.6018
   79MOL   C23030026   0.678   1.936   2.450  0.2012  0.4315 -0.7566
   79MOL   C23130027   0.694   1.796   2.388 -0.6665  0.5952 -0.4096
   79MOL   O23230028   0.805   1.799   2.303 -0.2849 -0.0487 -0.2115
   79MOL   C23330029   0.778   1.799   2.160 -0.1664 -0.2099  0.4315
   79MOL   C23430030   0.908   1.844   2.094  0.4504  0.2919 -0.4665
   79MOL   C23530031   0.904   1.826   1.944  0.3523  0.1551  0.8275
   79MOL   C23630032   0.948   1.984   2.136 -0.1993 -0.4257  0.4268
   79MOL   H23730033   0.762   1.939   2.519 -0.2947 -0.2034 -0.1158
   79MOL   H23830034   0.714   2.003   2.373  1.2724 -0.3340 -0.9372
   79MOL   H23930035   0.602   1.775   2.332 -2.0386  0.0513  1.9553
   79MOL   H24030036   0.747   1.696   2.139  0.3210 -0.4044  0.6497
   79MOL   H24130037   0.696   1.864   2.130  2.0050  2.2342 -0.3355
   79MOL   H24230038   0.994   1.785   2.124  0.9834  0.6732 -1.2263
   79MOL   H24330039   1.004   1.837   1.903 -1.2720  1.4377 -3.0588
   79MOL   H24430040   0.833   1.895   1.898 -0.2281  0.3949  2.0678
   79MOL   H24530041   0.876   1.723   1.923 -0.7342  1.1789 -3.3630
   79MOL   H24630042   0.977   1.987   2.241 -0.3529  0.3263  0.4462
   79MOL   H24730043   1.019   2.029   2.067 -2.5047  0.5562 -1.3761
   79MOL   H24830044   0.868   2.054   2.112  0.4898 -0.4292 -1.9691
   79MOL   C24930045   0.720   1.681   2.492  0.0369  0.2103  0.6619
   79MOL   C25030046   0.599   1.622   2.569  0.2607  0.4141  0.7730
   79MOL   O25130047   0.575   1.502   2.491  0.5236  0.0061  0.1174
   79MOL   C25230048   0.501   1.506   2.375 -0.7127  0.8676  0.2385
   79MOL   C25330049   0.442   1.367   2.361  0.3891  0.1576  0.0496
   79MOL   C25430050   0.356   1.325   2.477 -0.2056 -0.3421  0.6613
   79MOL   C25530051   0.551   1.261   2.340 -0.3345 -0.6944  0.6460
   79MOL   H25630052   0.783   1.727   2.568  2.7802 -0.6759 -1.0304
   79MOL   H25730053   0.782   1.604   2.447  2.0271  2.1046  0.0886
   79MOL   H25830054   0.513   1.689   2.579  0.7735  1.0981  0.6741
   79MOL   H25930055   0.420   1.578   2.383 -1.2739  0.2486  0.1557
   79MOL   H26030056   0.560   1.538   2.290  0.9079  1.7525  1.6521
   79MOL   H26130057   0.386   1.373   2.268  0.4382 -1.3919 -0.0969
   79MOL   H26230058   0.407   1.326   2.573  1.4373 -1.4870 -0.1602
   79MOL   H26330059   0.338   1.217   2.472 -3.4444  0.2141 -0.3955
   79MOL   H26430060   0.260   1.375   2.487  0.1627  0.5077 -0.0179
   79MOL   H26530061   0.636   1.286   2.276 -0.0101 -0.0971  1.3006
   79MOL   H26630062   0.606   1.246   2.433  0.7047  2.1549  0.5551
   79MOL   H26730063   0.507   1.171   2.296 -2.3554 -0.3144  1.8343
   79MOL   C26830064   0.638   1.589   2.712 -0.3413  0.6204 -0.0691
   79MOL   C26930065   0.532   1.518   2.795 -0.1055 -0.6978  0.9351
   79MOL   O27030066   0.416   1.603   2.801 -0.0447  0.5224 -0.7709
   79MOL   C27130067   0.299   1.537   2.848 -0.1382 -0.2482  0.4201
   79MOL   C27230068   0.179   1.613   2.789 -0.3063  0.5415 -0.2112
   79MOL   C27330069   0.181   1.758   2.831  0.2630  0.2079  0.4909
   79MOL   C27430070   0.163   1.603   2.638  0.1228  0.2061 -0.0101
   79MOL   H27530071   0.676   1.679   2.759 -1.0393  0.5575  0.6175
   79MOL   H27630072   0.723   1.520   2.712 -1.2917 -0.6086 -2.2878
   79MOL   H27730073   0.509   1.420   2.752  0.4351 -0.1776 -0.5826
   79MOL   H27830074   0.280   1.434   2.817  0.1120 -0.0702 -0.3360
   79MOL   H27930075   0.300   1.548   2.956  0.2805 -0.0212  0.3912
   79MOL   H28030076   0.089   1.572   2.836 -1.8061  0.5222 -2.9559
   79MOL   H28130077   0.276   1.807   2.812 -0.1470  0.6933 -0.3155
   79MOL   H28230078   0.150   1.761   2.935 -0.0459 -0.2352  0.4187
   79MOL   H28330079   0.098   1.802   2.775  0.4451 -0.9259 -0.7253
   79MOL   H28430080   0.120   1.693   2.594  0.2170 -0.0233 -0.5634
   79MOL   H28530081   0.108   1.517   2.601 -0.4508  0.4410  0.2855
   79MOL   H28630082   0.263   1.603   2.597  1.1481 -1.4695  2.4078
   79MOL   C28730083   0.586   1.495   2.939 -0.4482 -0.3989 -0.4701
   79MOL   C28830084   0.702   1.398   2.967  0.2564 -0.6528 -0.0879
   79MOL   O28930085   0.638   1.267   2.956 -0.0355 -0.0885 -0.1335
   79MOL   C29030086   0.713   1.174   2.886 -0.3482  0.2703  0.0254
   79MOL   C29130087   0.639   1.046   2.839 -0.0572  0.5112 -0.1441
   79MOL   C29230088   0.704   0.906   2.868 -0.2269  0.5293 -0.1040
   79MOL   C29330089   0.599   1.052   2.689 -0.1251  0.0699 -0.6615
   79MOL   H29430090   0.500   1.456   2.993 -0.1604 -0.0287  0.2560
   79MOL   H29530091   0.603   1.598   2.972 -1.2246  0.0463 -1.4535
   79MOL   H29630092   0.781   1.426   2.897 -1.0406  0.9940 -0.9111
   79MOL   H29730093   0.752   1.216   2.793  1.6623 -1.1968  0.1740
   79MOL   H29830094   0.793   1.145   2.954 -1.0845 -0.5689  0.5553
   79MOL   H29930095   0.547   1.038   2.897 -0.5821 -1.7936 -1.2377
   79MOL   H30030096   0.641   0.827   2.826 -0.1754  0.1334  0.5629
   79MOL   H30130097   0.703   0.870   2.971 -2.4464  1.9686  0.4052
   79MOL   H30230098   0.799   0.887   2.819  0.0784  1.5851  0.0773
   79MOL   H30330099   0.552   1.151   2.677  2.2315  1.2170 -0.6321
   79MOL   H30430100   0.688   1.055   2.626 -1.5732  0.9681 -2.7702
   79MOL   H30530101   0.533   0.969   2.664 -0.9754  0.9657 -1.4677
   79MOL   C30630102   0.761   1.427   3.110  0.7037  0.3345  0.2684
   79MOL   C30730103   0.892   1.355   3.144  1.0034 -0.5991  0.7181
   79MOL   O30830104   0.990   1.382   3.041  0.4231  0.3808  0.3371
   79MOL   C30930105   1.080   1.278   3.029 -1.0779 -0.3703 -0.8047
   79MOL   C31030106   1.169   1.305   2.912 -0.1695  0.3536 -0.4599
   79MOL   C31130107   1.235   1.447   2.921 -0.4880  0.8886 -0.1538
   79MOL   C31230108   1.091   1.290   2.784 -0.0466 -0.7499  0.4186
   79MOL   H31330109   0.690   1.406   3.190 -0.5097 -2.0201 -1.3800
   79MOL   H31430110   0.773   1.535   3.114 -0.5482  0.6202 -2.5961
   79MOL   H31530111   0.865   1.249   3.139 -0.5256 -0.2540  1.1276
   79MOL   H31630112   1.025   1.185   3.015 -1.9538  0.3831 -2.5325
   79MOL   H31730113   1.150   1.274   3.112 -1.2235  0.0306 -0.6598
   79MOL   H31830114   1.242   1.224   2.910  1.1652  1.3810  2.8635
   79MOL   H31930115   1.162   1.524   2.894 -0.6540  1.0887  0.8155
   79MOL   H32030116   1.324   1.460   2.860  0.1896 -1.2586  0.3547
   79MOL   H32130117   1.271   1.463   3.023 -0.7224 -0.2970  0.1262
   79MOL   H32230118   1.070   1.188   2.752  0.7013 -0.8047  0.1028
   79MOL   H32330119   1.134   1.341   2.697 -2.2657  1.1275  0.3816
   79MOL   H32430120   0.998   1.347   2.796  0.7999  0.3131  2.0981
   79MOL   C32530121   0.935   1.378   3.290  0.2509 -0.0323  0.8395
   79MOL   C32630122   0.941   1.524   3.333  0.1229  0.0706  0.3909
   79MOL   O32730123   0.988   1.536   3.468 -0.6329 -0.7330 -0.0832
   79MOL   C32830124   0.907   1.481   3.564 -0.2513 -0.9882 -0.8914
   79MOL   C32930125   0.909   1.568   3.689  0.2425 -0.2641  0.1852
   79MOL   C33030126   0.832   1.508   3.799  0.1831  0.3356 -0.8420
   79MOL   C33130127   1.051   1.601   3.731 -0.0884  0.2490 -0.4087
   79MOL   H33230128   1.035   1.336   3.295  0.6163  0.7606  0.1805
   79MOL   H33330129   0.873   1.316   3.355  0.0539 -1.4206 -0.6585
   79MOL   H33430130   0.840   1.563   3.318 -0.0648  0.0242  1.4894
   79MOL   H33530131   0.806   1.480   3.523 -0.3994 -1.7621 -0.5402
   79MOL   H33630132   0.916   1.372   3.570 -1.9639 -1.1197 -0.2811
   79MOL   H33730133   0.847   1.654   3.662  0.8417 -0.6619 -2.6713
   79MOL   H33830134   0.882   1.419   3.840  0.7948  0.4950 -1.2276
   79MOL   H33930135   0.807   1.578   3.878  0.9565  0.1811 -0.4450
   79MOL   H34030136   0.734   1.478   3.762 -0.6427  2.5359 -0.4814
   79MOL   H34130137   1.105   1.520   3.778  0.2601  1.2005  0.8572
   79MOL   H34230138   1.125   1.626   3.655 -0.7129  1.3135 -0.6864
   79MOL   H34330139   1.051   1.688   3.797 -0.2429 -1.2329  1.5794
   79MOL   C34430140   1.041   1.607   3.245 -0.2166 -0.1792 -0.4047
   79MOL   C34530141   1.073   1.752   3.285 -0.4652 -0.0503 -0.2689
   79MOL   O34630142   1.173   1.807   3.193 -1.0396  0.2566 -0.3260
   79MOL   C34730143   1.311   1.762   3.219 -0.0958 -0.4435  0.4536
   79MOL   C34830144   1.403   1.849   3.123  0.0369 -0.1909  0.4080
   79MOL   C34930145   1.353   1.838   2.977  0.7800  0.2119 -0.3574
   79MOL   C35030146   1.551   1.812   3.140 -0.3798 -0.2736 -0.1280
   79MOL   H35130147   1.006   1.599   3.142 -0.7621 -0.9280 -0.1632
   79MOL   H35230148   1.141   1.563   3.246  0.5969  1.5991  2.8244
   79MOL   H35330149   1.110   1.778   3.384  0.1695  1.0027 -0.7743
   79MOL   H35430150   1.324   1.659   3.186  0.8747  0.2879 -1.5178
   79MOL   H35530151   1.338   1.769   3.325 -0.1073  1.2385  0.3570
   79MOL   H35630152   1.396   1.953   3.155 -0.0852  0.2558 -1.0155
   79MOL   H35730153   1.268   1.905   2.967  0.1129 -0.9373 -2.6751
   79MOL   H35830154   1.306   1.744   2.947  1.4279 -0.1311 -0.3057
   79MOL   H35930155   1.416   1.877   2.897 -1.5402  3.4533 -0.7001
   79MOL   H36030156   1.614   1.875   3.077 -0.9111  0.8278  0.4123
   79MOL   H36130157   1.593   1.817   3.240  0.7922 -0.7626 -0.5809
   79MOL   H36230158   1.575   1.708   3.117  0.7591  0.5045 -2.6187
   79MOL   C36330159   0.958   1.850   3.270  0.2215 -0.0294 -0.3586
   79MOL   C36430160   0.854   1.860   3.378  0.2394  0.2569 -0.5493
   79MOL   O36530161   0.738   1.797   3.329  0.1041 -0.4378 -0.5054
   79MOL   C36630162   0.613   1.859   3.371 -0.0244 -0.2404 -0.0618
   79MOL   C36730163   0.488   1.795   3.299 -0.3641  0.2394  0.6763
   79MOL   C36830164   0.480   1.638   3.323  0.1280  0.9362 -0.1406
   79MOL   C36930165   0.494   1.834   3.155  0.2423 -0.0103 -0.7892
   79MOL   H37030166   1.011   1.945   3.282 -1.6746  1.0556 -0.3790
   79MOL   H37130167   0.925   1.855   3.167  0.1781  1.8114 -0.2754
   79MOL   H37230168   0.834   1.965   3.401  0.1730 -0.1796  1.4249
   79MOL   H37330169   0.602   1.834   3.477  1.8846  0.3306  0.3004
   79MOL   H37430170   0.621   1.968   3.362 -1.1361 -0.1998 -0.6694
   79MOL   H37530171   0.401   1.840   3.346 -1.4315 -1.1473  0.0627
   79MOL   H37630172   0.576   1.587   3.318 -0.1442  0.4684 -0.7104
   79MOL   H37730173   0.404   1.587   3.264  0.9499  0.2461 -0.6170
   79MOL   H37830174   0.447   1.608   3.422  0.5226  0.2886 -0.2071
   79MOL   H37930175   0.482   1.941   3.143 -1.6488 -0.2720 -1.4123
   79MOL   H38030176   0.403   1.798   3.106 -1.5475  1.6629  1.2256
   79MOL   H38130177   0.579   1.796   3.097  0.6113 -1.7690  0.8262
   79MOL   H38230178   0.881   1.822   3.477 -0.1491  3.4006  0.8350
   80MOL     C130179   5.135   4.649   6.279  0.1842  0.0011  0.1964
   80MOL     C230180   5.145   4.503   6.331  0.4976 -0.1337 -0.2561
   80MOL     O330181   5.089   4.417   6.229  0.4146 -0.3057 -0.2321
   80MOL     C430182   5.038   4.291   6.293  0.4339 -0.3019 -0.1527
   80MOL     C530183   5.022   4.188   6.189 -0.5325 -0.2922  0.0077
   80MOL     C630184   5.161   4.166   6.135  0.8905 -0.0812 -0.0964
   80MOL     C730185   4.911   4.226   6.093  0.1599  0.5737 -0.5737
   80MOL     H830186   5.210   4.665   6.202  2.7328 -0.5696  2.5085
   80MOL     H930187   5.038   4.672   6.235  0.0714  0.1512  0.5186
   80MOL    H1030188   5.091   4.497   6.425  1.0293 -1.4816 -0.0256
   80MOL    H1130189   4.943   4.308   6.344 -0.1332 -0.1232 -1.2276
   80MOL    H1230190   5.099   4.248   6.372  0.0797 -0.1638  0.1964
   80MOL    H1330191   4.988   4.093   6.232  1.8204 -1.3674 -0.4240
   80MOL    H1430192   5.203   4.257   6.092 -0.8261  1.1512  0.8087
   80MOL    H1530193   5.224   4.130   6.216 -1.5414  1.5607  2.5906
   80MOL    H1630194   5.166   4.082   6.065  2.4589  0.4024 -0.5812
   80MOL    H1730195   4.824   4.261   6.147  0.0651  0.6971 -0.8076
   80MOL    H1830196   4.942   4.302   6.021  0.4604 -0.0495 -1.1113
   80MOL    H1930197   4.873   4.149   6.026 -0.8449  1.0964 -0.6122
   80MOL    H2030198   5.157   4.721   6.358  1.1626 -2.4522  2.2211
   80MOL    C2130199   5.286   4.458   6.353 -0.0469  0.1114 -0.6576
   80MOL    C2230200   5.346   4.540   6.476  0.9850  0.3770 -0.9848
   80MOL    O2330201   5.415   4.447   6.551 -0.2829  0.2085 -0.2782
   80MOL    C2430202   5.342   4.377   6.647  0.1370 -0.2108 -0.3311
   80MOL    C2530203   5.412   4.242   6.656 -0.5252 -0.7134 -0.1162
   80MOL    C2630204   5.392   4.154   6.531  0.6941 -0.0250 -0.2178
   80MOL    C2730205   5.563   4.266   6.694  0.3719  0.6027 -0.5292
   80MOL    H2830206   5.291   4.352   6.380 -1.1197  0.1073 -0.4814
   80MOL    H2930207   5.340   4.465   6.259  0.7044 -0.1159 -0.2558
   80MOL    H3030208   5.277   4.594   6.540  1.5047 -0.8015  0.6036
   80MOL    H3130209   5.239   4.360   6.617 -0.0577 -1.3973  0.9938
   80MOL    H3230210   5.340   4.432   6.741 -1.2797 -0.0413 -0.4618
   80MOL    H3330211   5.369   4.188   6.741  0.9432 -0.8639  0.5554
   80MOL    H3430212   5.436   4.055   6.537  1.1065  0.3085  4.1797
   80MOL    H3530213   5.445   4.206   6.452 -0.2056  1.1331 -0.0758
   80MOL    H3630214   5.287   4.156   6.501 -0.1485 -2.8592  2.2976
   80MOL    H3730215   5.575   4.307   6.795 -1.5555 -0.6751  0.2432
   80MOL    H3830216   5.619   4.172   6.691 -2.9696 -1.5945  1.8184
   80MOL    H3930217   5.613   4.340   6.632 -0.3478  1.2965 -0.2946
   80MOL    C4030218   5.451   4.645   6.433  0.1220  0.1221 -0.1294
   80MOL    C4130219   5.475   4.766   6.526 -0.1589 -0.6029 -0.5184
   80MOL    O4230220   5.550   4.863   6.449 -0.2006  0.1605  0.0948
   80MOL    C4330221   5.469   4.976   6.415  0.0365  0.1321  0.3962
   80MOL    C4430222   5.545   5.079   6.330 -0.6304 -0.2417  0.6335
   80MOL    C4530223   5.684   5.118   6.384 -0.4222 -0.2462  0.4096
   80MOL    C4630224   5.562   5.010   6.192  0.6582 -0.5013  0.1626
   80MOL    H4730225   5.424   4.697   6.341 -0.2621  3.4754  1.8093
   80MOL    H4830226   5.542   4.594   6.402  0.9992  0.0771  2.4067
   80MOL    H4930227   5.377   4.797   6.562 -1.2167 -1.8101 -2.2616
   80MOL    H5030228   5.451   5.031   6.508 -2.0764  0.4340 -0.1707
   80MOL    H5130229   5.381   4.932   6.369 -0.4354  1.7275 -0.2682
   80MOL    H5230230   5.480   5.166   6.320 -2.1212 -1.0825  2.6142
   80MOL    H5330231   5.717   5.212   6.339  1.0794 -0.9194  0.0716
   80MOL    H5430232   5.678   5.151   6.488 -1.2980 -0.6809  0.4978
   80MOL    H5530233   5.759   5.041   6.365 -0.8482 -0.5728  0.0516
   80MOL    H5630234   5.557   5.090   6.117  1.3421  0.2669  0.9291
   80MOL    H5730235   5.497   4.927   6.164  1.7149 -0.9983 -0.8723
   80MOL    H5830236   5.661   4.963   6.185  0.1683 -1.5747  0.3372
   80MOL    C5930237   5.577   4.731   6.643  0.6283  0.4092  0.4738
   80MOL    C6030238   5.606   4.857   6.732 -0.2488  0.4324  0.0362
   80MOL    O6130239   5.723   4.849   6.818 -0.7428  0.6789 -0.3133
   80MOL    C6230240   5.848   4.867   6.750  0.4179  0.2250 -1.3871
   80MOL    C6330241   5.930   4.728   6.756  0.2012 -0.6044 -0.0892
   80MOL    C6430242   6.046   4.731   6.648  0.1964 -0.1907  0.4715
   80MOL    C6530243   5.981   4.697   6.890  0.7709 -0.5522  0.3180
   80MOL    H6630244   5.671   4.702   6.595  0.1089 -0.3923 -0.0554
   80MOL    H6730245   5.545   4.647   6.705  0.9797 -1.4542 -1.8039
   80MOL    H6830246   5.634   4.944   6.671 -0.9647 -0.4683 -1.6009
   80MOL    H6930247   5.842   4.890   6.644  1.1122 -1.7720 -1.8793
   80MOL    H7030248   5.910   4.945   6.794  3.5392 -2.9364  0.0114
   80MOL    H7130249   5.853   4.653   6.739  0.7570 -1.3529  0.6118
   80MOL    H7230250   6.079   4.629   6.630 -1.7940 -1.5549  3.8849
   80MOL    H7330251   6.129   4.791   6.685 -0.1897  0.7570 -0.1753
   80MOL    H7430252   6.014   4.768   6.550  0.9425 -0.3464  0.1668
   80MOL    H7530253   6.043   4.607   6.890  2.0458  0.3187  0.7489
   80MOL    H7630254   6.045   4.781   6.915 -0.7156  0.7451 -0.1153
   80MOL    H7730255   5.903   4.665   6.959 -0.5280 -0.3580 -1.0295
   80MOL    C7830256   5.492   4.882   6.835  0.0461 -0.4537  0.0323
   80MOL    C7930257   5.476   5.019   6.914 -0.1207  0.5268 -0.5450
   80MOL    O8030258   5.355   5.009   6.981  0.1083  0.3887  0.0532
   80MOL    C8130259   5.232   5.064   6.927 -0.0862 -0.0835  0.9241
   80MOL    C8230260   5.108   5.031   7.017  0.9631  0.0520 -0.0897
   80MOL    C8330261   5.128   5.088   7.161  0.0021 -0.8176  0.2571
   80MOL    C8430262   5.085   4.877   7.020 -0.4860 -0.1460 -0.4815
   80MOL    H8530263   5.484   4.796   6.901 -0.5733 -0.2238  0.2638
   80MOL    H8630264   5.400   4.869   6.776  2.5470  0.3200 -4.2888
   80MOL    H8730265   5.478   5.108   6.851  0.3634  1.9306  1.4315
   80MOL    H8830266   5.245   5.172   6.916  0.1994 -0.4235 -2.3916
   80MOL    H8930267   5.216   5.031   6.824  0.3146 -2.1665  1.5026
   80MOL    H9030268   5.020   5.073   6.969 -0.5239 -2.0361  0.7477
   80MOL    H9130269   5.065   5.049   7.241  1.0561  1.3069  2.1637
   80MOL    H9230270   5.099   5.192   7.168  2.4333 -0.1365  0.6377
   80MOL    H9330271   5.228   5.067   7.198  0.7447 -1.5375 -2.1164
   80MOL    H9430272   5.004   4.858   7.090  0.2551  0.8214  0.6832
   80MOL    H9530273   5.170   4.827   7.067  0.0867  2.5647  1.4858
   80MOL    H9630274   5.069   4.837   6.920  2.4077 -2.2864 -0.1759
   80MOL    C9730275   5.580   5.041   7.027  0.3217 -0.1085 -0.0083
   80MOL    C9830276   5.707   5.117   6.981  0.8385  0.1417  0.1035
   80MOL    O9930277   5.794   5.122   7.099 -0.1803 -0.2351 -0.7340
   80MOL   C10030278   5.843   4.990   7.133  0.8249 -0.0407  0.1668
   80MOL   C10130279   5.961   5.030   7.224 -0.0535 -0.4036 -0.8661
   80MOL   C10230280   6.022   4.910   7.290  0.0394 -0.2657  0.6732
   80MOL   C10330281   6.068   5.103   7.145 -0.5834 -0.0674 -0.0919
   80MOL   H10430282   5.611   4.945   7.069 -0.8920 -0.7302 -0.4935
   80MOL   H10530283   5.533   5.103   7.104 -0.9958 -1.4201  0.2524
   80MOL   H10630284   5.755   5.080   6.891 -0.6423  3.0870 -1.9886
   80MOL   H10730285   5.877   4.925   7.053  1.2958 -0.3716  0.6308
   80MOL   H10830286   5.764   4.946   7.192 -0.0889  0.6705 -0.5128
   80MOL   H10930287   5.919   5.094   7.301 -0.6030  0.7374 -2.0978
   80MOL   H11030288   5.952   4.857   7.354  0.9350  0.5386  2.3559
   80MOL   H11130289   6.051   4.829   7.223  2.1124 -0.1254  1.3573
   80MOL   H11230290   6.111   4.934   7.348  0.1958 -2.8708  1.5860
   80MOL   H11330291   6.039   5.208   7.137  1.2136  0.6153  1.8418
   80MOL   H11430292   6.165   5.084   7.191 -1.4487 -2.5659  0.7449
   80MOL   H11530293   6.086   5.065   7.045  2.8200 -0.3300  0.5800
   80MOL   C11630294   5.672   5.267   6.956  0.3234 -0.5897  0.4184
   80MOL   C11730295   5.789   5.367   6.936  0.4086  0.5002 -0.5447
   80MOL   O11830296   5.869   5.314   6.826  0.1295  0.3055 -0.6400
   80MOL   C11930297   6.004   5.318   6.848 -0.3944 -0.4593 -1.0362
   80MOL   C12030298   6.074   5.313   6.719 -0.4632 -0.0024 -0.8840
   80MOL   C12130299   6.043   5.427   6.623  0.5563  0.2020  0.5341
   80MOL   C12230300   6.233   5.322   6.740 -0.4380 -0.2475  0.2548
   80MOL   H12330301   5.604   5.273   6.870 -1.7729  1.8525  2.1675
   80MOL   H12430302   5.624   5.306   7.046  1.5464  0.0043  0.8187
   80MOL   H12530303   5.851   5.359   7.025  1.3227  4.0595 -0.7784
   80MOL   H12630304   6.035   5.231   6.905  1.8616  1.3100  0.5113
   80MOL   H12730305   6.039   5.403   6.906  1.5922 -0.7524 -1.7529
   80MOL   H12830306   6.049   5.219   6.669 -1.5781  0.0366 -0.4145
   80MOL   H12930307   5.935   5.430   6.610  0.5718  0.0458  0.3697
   80MOL   H13030308   6.082   5.407   6.523 -1.6407  0.4503 -0.3934
   80MOL   H13130309   6.096   5.517   6.655  2.5144 -1.4541  2.1123
   80MOL   H13230310   6.282   5.304   6.645  0.2704  0.4838  0.4707
   80MOL   H13330311   6.240   5.426   6.772 -0.4191 -0.6914  1.7277
   80MOL   H13430312   6.265   5.260   6.824 -0.4624 -0.3309  0.2013
   80MOL   C13530313   5.732   5.509   6.905  0.6775 -0.0983  0.0114
   80MOL   C13630314   5.713   5.590   7.036  0.2862  0.5364 -0.5829
   80MOL   O13730315   5.836   5.590   7.114 -0.0868 -0.5770  0.0189
   80MOL   C13830316   5.821   5.561   7.249 -0.4050 -0.0134  0.8751
   80MOL   C13930317   5.949   5.576   7.331  0.1023 -0.6696 -0.5078
   80MOL   C14030318   6.056   5.476   7.312  0.4262  0.0463 -0.6035
   80MOL   C14130319   6.000   5.718   7.321 -0.0453  0.0154 -0.4044
   80MOL   H14230320   5.808   5.558   6.843  1.0606 -0.3938  0.2450
   80MOL   H14330321   5.644   5.498   6.841  1.8660 -2.6596 -1.2697
   80MOL   H14430322   5.632   5.552   7.098  0.3861  0.0895 -0.7261
   80MOL   H14530323   5.785   5.459   7.265 -2.1036  0.6134  1.2246
   80MOL   H14630324   5.736   5.617   7.290 -0.7937 -0.9784  1.4032
   80MOL   H14730325   5.926   5.561   7.437  0.6521 -2.8678 -0.6662
   80MOL   H14830326   6.076   5.471   7.205  0.4060 -0.1938 -0.5956
   80MOL   H14930327   6.020   5.383   7.354 -0.3236 -0.1112 -1.5760
   80MOL   H15030328   6.147   5.505   7.365 -1.3476  0.4298  2.3292
   80MOL   H15130329   5.988   5.753   7.219 -0.3757  0.1010 -0.3353
   80MOL   H15230330   5.939   5.782   7.384 -1.2779 -0.6984 -0.8693
   80MOL   H15330331   6.104   5.744   7.344  0.2073 -0.5485 -0.8937
   80MOL   C15430332   5.680   5.728   6.997 -0.8621 -0.1545  0.0369
   80MOL   C15530333   5.538   5.746   6.927 -0.4778 -0.3661  0.0091
   80MOL   O15630334   5.444   5.705   7.020  0.1967  0.2559 -0.2383
   80MOL   C15730335   5.354   5.618   6.958  0.3868 -0.1822  0.8960
   80MOL   C15830336   5.238   5.576   7.059  0.3447  0.1674 -0.4578
   80MOL   C15930337   5.141   5.698   7.082 -0.5129  0.1223  0.0691
   80MOL   C16030338   5.172   5.456   7.010 -0.1123  0.1843 -0.2288
   80MOL   H16130339   5.763   5.772   6.942 -0.1610 -1.2855  0.1763
   80MOL   H16230340   5.684   5.794   7.084 -0.3177 -2.1362  1.5692
   80MOL   H16330341   5.559   5.696   6.833  1.4347 -0.2363  0.3457
   80MOL   H16430342   5.409   5.540   6.907  0.8143  1.2645 -0.9306
   80MOL   H16530343   5.305   5.669   6.875 -1.9054 -1.2558  1.5523
   80MOL   H16630344   5.284   5.562   7.156 -1.8965 -0.6020  0.5131
   80MOL   H16730345   5.186   5.781   7.136  0.3148 -0.2115 -0.0979
   80MOL   H16830346   5.052   5.669   7.138 -1.6441  2.4657 -0.4524
   80MOL   H16930347   5.104   5.736   6.987  0.4215 -0.7573 -0.6478
   80MOL   H17030348   5.249   5.379   7.011  1.3893  1.6583 -0.8983
   80MOL   H17130349   5.088   5.425   7.073  0.2523  1.7503  1.0457
   80MOL   H17230350   5.136   5.446   6.907 -3.2861  2.1009  0.6255
   80MOL   C17330351   5.511   5.899   6.895 -0.2309  0.7623  0.4304
   80MOL   C17430352   5.499   5.937   6.749 -0.6003  0.2576 -0.6473
   80MOL   O17530353   5.611   5.890   6.672 -0.1216 -0.8898  0.4546
   80MOL   C17630354   5.686   5.996   6.592  0.5077  0.9765  0.2410
   80MOL   C17730355   5.790   5.918   6.516 -0.5035  0.0653  0.0380
   80MOL   C17830356   5.858   6.014   6.419  0.1353 -0.1577  0.2680
   80MOL   C17930357   5.884   5.851   6.613  0.4589 -0.5044 -0.1053
   80MOL   H18030358   5.423   5.937   6.946 -0.7412 -1.7878  1.5581
   80MOL   H18130359   5.595   5.962   6.923 -2.4433  2.8848  2.4855
   80MOL   H18230360   5.503   6.046   6.742 -0.7059  0.2997 -0.0601
   80MOL   H18330361   5.736   6.067   6.658 -0.0907  1.2322  0.4205
   80MOL   H18430362   5.622   6.045   6.519  1.3934  0.6106 -0.8025
   80MOL   H18530363   5.744   5.834   6.464  0.5656 -0.8404  0.5491
   80MOL   H18630364   5.917   6.089   6.471  2.9784 -0.7308 -1.9585
   80MOL   H18730365   5.937   5.969   6.358  0.7556 -0.4432  1.2591
   80MOL   H18830366   5.793   6.059   6.344  0.0204 -1.2398 -0.3001
   80MOL   H18930367   5.827   5.771   6.658 -0.5133  0.7604  0.9389
   80MOL   H19030368   5.920   5.924   6.686  0.6375 -1.2068  0.5065
   80MOL   H19130369   5.960   5.800   6.553  0.2076 -2.6110  1.3287
   80MOL   C19230370   5.366   5.887   6.686 -0.2360 -0.5317  0.4666
   80MOL   C19330371   5.338   5.944   6.548  0.5817  0.4636 -0.1768
   80MOL   O19430372   5.306   6.078   6.573  0.0665  0.2632  0.9576
   80MOL   C19530373   5.328   6.170   6.470 -0.1681 -0.0389  0.4163
   80MOL   C19630374   5.296   6.306   6.520  0.2383  0.0622  0.0576
   80MOL   C19730375   5.302   6.409   6.409  0.1426  0.4900  0.0628
   80MOL   C19830376   5.374   6.351   6.644  0.6863  0.0949  0.0459
   80MOL   H19930377   5.284   5.907   6.754 -1.8315 -0.4291 -1.4596
   80MOL   H20030378   5.379   5.779   6.694 -1.2722 -0.6305  0.7959
   80MOL   H20130379   5.426   5.937   6.484  0.7168 -1.7015  0.1943
   80MOL   H20230380   5.258   6.151   6.388 -1.1701  2.4873  0.6461
   80MOL   H20330381   5.432   6.170   6.437 -0.1035  0.2372  0.6220
   80MOL   H20430382   5.189   6.307   6.542  0.0238 -0.9741 -0.8805
   80MOL   H20530383   5.220   6.479   6.426  1.3972  1.5091  2.0199
   80MOL   H20630384   5.399   6.457   6.414 -0.1966  1.4534 -1.9190
   80MOL   H20730385   5.288   6.355   6.315  1.9455 -0.4352  0.3056
   80MOL   H20830386   5.349   6.296   6.735  2.8349  0.5515  0.9307
   80MOL   H20930387   5.481   6.352   6.626  0.3960 -0.1245 -1.7868
   80MOL   H21030388   5.361   6.458   6.663  2.1724  0.4694 -0.9142
   80MOL   C21130389   5.215   5.874   6.483 -0.1224 -0.1782 -0.0402
   80MOL   C21230390   5.230   5.735   6.423 -0.3644 -0.5921  0.4381
   80MOL   O21330391   5.244   5.647   6.530  0.4245 -0.4864 -0.3281
   80MOL   C21430392   5.347   5.551   6.508 -0.1040 -0.3729 -0.0334
   80MOL   C21530393   5.342   5.443   6.614  0.5220 -0.2892  0.6162
   80MOL   C21630394   5.223   5.349   6.573  0.7987  0.4701 -0.1135
   80MOL   C21730395   5.468   5.364   6.625  0.3265  0.1214  0.2858
   80MOL   H21830396   5.169   5.933   6.403 -1.3565 -1.9289 -0.6440
   80MOL   H21930397   5.143   5.858   6.563 -2.1168  1.8456 -1.3501
   80MOL   H22030398   5.317   5.731   6.358 -1.5819 -2.1152 -1.1775
   80MOL   H22130399   5.439   5.609   6.511  0.1173 -0.6523 -1.3113
   80MOL   H22230400   5.324   5.517   6.407 -1.0490  0.2637 -0.0417
   80MOL   H22330401   5.308   5.488   6.707 -1.6133  1.5290 -0.9810
   80MOL   H22430402   5.194   5.285   6.657 -0.5900  3.0873  1.4790
   80MOL   H22530403   5.137   5.408   6.541 -0.5834 -2.2907 -1.7144
   80MOL   H22630404   5.252   5.288   6.487 -2.0252 -0.7851 -0.2509
   80MOL   H22730405   5.563   5.412   6.649  0.1880  0.6971 -0.2892
   80MOL   H22830406   5.483   5.296   6.541  1.8094 -1.0506  1.4622
   80MOL   H22930407   5.458   5.295   6.709  0.2888 -1.4939 -1.0162
   80MOL   C23030408   5.102   5.692   6.349 -0.2420 -0.4577  0.3381
   80MOL   C23130409   5.087   5.739   6.201 -0.0223 -0.8023  0.0105
   80MOL   O23230410   5.113   5.880   6.183  0.4676  0.1484  0.4810
   80MOL   C23330411   5.050   5.947   6.070  0.2683 -0.0838  0.4418
   80MOL   C23430412   5.066   6.101   6.061  0.9649 -0.4088 -0.3973
   80MOL   C23530413   5.009   6.164   5.938  0.5204  0.6294  0.4540
   80MOL   C23630414   4.999   6.173   6.180 -0.4530  0.3194 -0.0868
   80MOL   H23730415   5.014   5.724   6.404 -0.4136 -0.0578 -0.1731
   80MOL   H23830416   5.081   5.585   6.349  0.0442 -0.5209  1.0836
   80MOL   H23930417   4.986   5.713   6.170 -1.1118  0.4704  2.3872
   80MOL   H24030418   5.095   5.904   5.980  0.2547 -1.3334  1.0226
   80MOL   H24130419   4.942   5.935   6.057  0.2455 -0.6679  1.1676
   80MOL   H24230420   5.168   6.140   6.065  0.4746  0.7644  1.3927
   80MOL   H24330421   5.009   6.272   5.954 -2.0598  0.5920  1.0350
   80MOL   H24430422   4.907   6.127   5.926  1.5856 -2.5691  0.7118
   80MOL   H24530423   5.061   6.137   5.846  0.3015  0.7515  0.2913
   80MOL   H24630424   4.894   6.144   6.186 -0.5388  0.8398  1.0620
   80MOL   H24730425   5.039   6.152   6.279  2.3041  1.4405 -0.9064
   80MOL   H24830426   5.013   6.279   6.157  0.8292  0.0197 -0.7386
   80MOL   C24930427   5.185   5.663   6.109  0.0148  0.6656  0.6229
   80MOL   C25030428   5.141   5.515   6.082 -0.0056 -0.1063  0.4524
   80MOL   O25130429   5.009   5.524   6.041  0.1696 -0.3276  0.0661
   80MOL   C25230430   4.923   5.410   6.045 -0.2470 -0.7252  0.6528
   80MOL   C25330431   4.774   5.437   6.032 -0.6312  0.7947 -0.5240
   80MOL   C25430432   4.722   5.518   6.154 -0.3793 -0.2085  0.0099
   80MOL   C25530433   4.689   5.308   6.021 -0.2182  0.0480  0.6964
   80MOL   H25630434   5.285   5.652   6.152  0.8064  1.1350 -1.0495
   80MOL   H25730435   5.185   5.723   6.018  0.1140  3.7415  2.5857
   80MOL   H25830436   5.144   5.466   6.179  0.9363  0.5228  0.7464
   80MOL   H25930437   4.954   5.348   5.961  1.4624  1.4796 -0.3987
   80MOL   H26030438   4.942   5.353   6.136  1.7049 -1.0478  0.0718
   80MOL   H26130439   4.758   5.497   5.943 -3.8861  3.0501  1.4865
   80MOL   H26230440   4.625   5.564   6.136  0.0039 -0.0288 -1.6606
   80MOL   H26330441   4.785   5.607   6.153 -0.3867 -0.2119 -0.7192
   80MOL   H26430442   4.726   5.468   6.251 -1.4630  1.3310  0.8938
   80MOL   H26530443   4.716   5.252   6.110 -0.9519 -1.0078  0.2640
   80MOL   H26630444   4.581   5.314   6.010 -0.2958 -0.3951  1.1744
   80MOL   H26730445   4.728   5.249   5.938  2.7017 -0.5113  2.3925
   80MOL   C26830446   5.231   5.443   5.975 -0.1564  0.2076  0.2955
   80MOL   C26930447   5.363   5.386   6.030 -0.0223  0.7774  0.0950
   80MOL   O27030448   5.447   5.494   6.069  0.4638 -0.0917  0.2302
   80MOL   C27130449   5.545   5.473   6.172  0.0669  1.1306  0.5109
   80MOL   C27230450   5.653   5.586   6.180  0.7917 -0.3269  0.1001
   80MOL   C27330451   5.592   5.722   6.205  0.6118  0.3958  0.8402
   80MOL   C27430452   5.750   5.531   6.282  0.2454 -0.1775 -0.0815
   80MOL   H27530453   5.252   5.502   5.886 -0.4217  1.2748  0.9431
   80MOL   H27630454   5.166   5.361   5.944  0.8932 -0.7338  0.5216
   80MOL   H27730455   5.353   5.320   6.116  1.3422  0.9489  0.3941
   80MOL   H27830456   5.496   5.463   6.269  0.5061  1.2035  0.7413
   80MOL   H27930457   5.593   5.377   6.151 -2.6224  0.1293 -1.3073
   80MOL   H28030458   5.703   5.591   6.083  1.3245 -1.4779  0.3065
   80MOL   H28130459   5.520   5.729   6.286 -0.1167  1.7880  0.0741
   80MOL   H28230460   5.534   5.760   6.122 -0.4510  1.0765  1.8800
   80MOL   H28330461   5.668   5.795   6.232  0.7244  0.3386  0.6787
   80MOL   H28430462   5.695   5.506   6.373 -0.1604  2.3788  0.4020
   80MOL   H28530463   5.830   5.597   6.315  1.1329 -1.5661  0.5719
   80MOL   H28630464   5.811   5.449   6.245  0.0343 -1.1884  1.7839
   80MOL   C28730465   5.434   5.297   5.928  0.8253 -0.1250 -0.8067
   80MOL   C28830466   5.352   5.166   5.891  0.3302 -0.2654 -0.9242
   80MOL   O28930467   5.305   5.095   6.008 -0.2431  0.2592 -0.3929
   80MOL   C29030468   5.166   5.074   6.012 -0.0588 -0.5336  0.5369
   80MOL   C29130469   5.139   5.013   6.151  0.1185 -0.8417 -0.3712
   80MOL   C29230470   4.993   4.974   6.161  0.2757  0.5285 -0.4710
   80MOL   C29330471   5.182   5.103   6.267 -0.1225 -0.4128 -0.1270
   80MOL   H29430472   5.536   5.281   5.965  0.9997  0.1449 -1.1684
   80MOL   H29530473   5.443   5.349   5.832  1.0261 -0.5520 -1.0222
   80MOL   H29630474   5.267   5.188   5.826 -1.2315 -2.7197  0.2122
   80MOL   H29730475   5.122   5.174   6.008 -0.5254 -0.7306  0.6835
   80MOL   H29830476   5.127   5.017   5.927 -2.0098 -1.8651  2.2630
   80MOL   H29930477   5.190   4.917   6.161 -1.5439 -1.6728  0.3066
   80MOL   H30030478   4.928   5.061   6.168  3.2434  2.9445 -1.2525
   80MOL   H30130479   4.991   4.920   6.255 -5.7237 -2.4129 -2.0512
   80MOL   H30230480   4.955   4.916   6.076 -0.1010  0.0679  0.0127
   80MOL   H30330481   5.137   5.203   6.263  2.2012  0.7514  1.4505
   80MOL   H30430482   5.160   5.060   6.365 -0.0627 -0.4577 -0.1329
   80MOL   H30530483   5.289   5.118   6.260  0.1663 -2.6041 -0.7897
   80MOL   C30630484   5.444   5.070   5.820 -0.7448 -0.2995 -0.4001
   80MOL   C30730485   5.371   4.956   5.748 -0.8485 -0.5510 -0.3540
   80MOL   O30830486   5.292   5.020   5.647  0.1052 -0.4689 -0.2489
   80MOL   C30930487   5.174   4.957   5.614  0.0836  0.0991  0.4433
   80MOL   C31030488   5.101   5.053   5.522  0.8769 -0.2010  0.3945
   80MOL   C31130489   5.076   5.183   5.599 -0.8187  0.5206 -0.1116
   80MOL   C31230490   4.962   5.010   5.470 -0.4222 -0.3424 -0.7077
   80MOL   H31330491   5.519   5.028   5.887  0.5057 -0.9545 -2.1773
   80MOL   H31430492   5.498   5.127   5.745 -1.0969  1.7849  0.8893
   80MOL   H31530493   5.308   4.904   5.820 -1.3088 -3.4635 -2.7300
   80MOL   H31630494   5.115   4.927   5.701  0.8632  3.2141  2.1420
   80MOL   H31730495   5.193   4.861   5.566 -0.7918 -0.3117  0.9132
   80MOL   H31830496   5.164   5.071   5.435 -1.2287 -0.4210 -1.2251
   80MOL   H31930497   5.025   5.162   5.694 -0.9879  1.4644  0.0080
   80MOL   H32030498   5.027   5.258   5.537 -1.0382 -2.0728 -3.1902
   80MOL   H32130499   5.164   5.234   5.638 -0.3387  1.9590 -2.9337
   80MOL   H32230500   4.918   5.093   5.415 -0.2636  1.0669  1.2392
   80MOL   H32330501   4.886   4.994   5.547 -0.0339 -0.1076 -0.2679
   80MOL   H32430502   4.964   4.920   5.408 -0.1346 -1.6170  1.0936
   80MOL   C32530503   5.467   4.865   5.666 -0.1405 -0.2347 -0.6542
   80MOL   C32630504   5.548   4.757   5.738 -0.3897 -0.7498 -0.5626
   80MOL   O32730505   5.645   4.833   5.805  0.2824 -0.2509 -0.2036
   80MOL   C32830506   5.772   4.784   5.770  0.0181 -0.2250  0.0706
   80MOL   C32930507   5.878   4.888   5.810  0.2120  0.1101  0.5080
   80MOL   C33030508   5.878   4.919   5.959 -0.2536 -0.0488 -0.9511
   80MOL   C33130509   6.015   4.835   5.771 -0.4845 -0.3293 -0.3245
   80MOL   H33230510   5.536   4.925   5.606  0.3542 -1.2126 -1.0768
   80MOL   H33330511   5.406   4.797   5.608 -2.2568  0.3585  0.8310
   80MOL   H33430512   5.585   4.687   5.664  0.9247 -1.0668  0.3794
   80MOL   H33530513   5.800   4.697   5.830 -0.3152  0.1235  0.7292
   80MOL   H33630514   5.797   4.773   5.664  0.0406 -1.2778  0.1812
   80MOL   H33730515   5.856   4.983   5.761  1.2372  0.5386  0.8603
   80MOL   H33830516   5.776   4.929   5.996 -0.0977  0.9801 -0.7863
   80MOL   H33930517   5.934   4.842   6.011  3.4907  1.8642 -1.9507
   80MOL   H34030518   5.938   5.008   5.976 -0.7224 -0.1359  1.3878
   80MOL   H34130519   6.086   4.908   5.811  0.6272  0.5285 -3.6924
   80MOL   H34230520   6.047   4.743   5.821  0.6340  0.6739  0.8356
   80MOL   H34330521   6.014   4.819   5.663  3.0218 -0.3403 -0.4051
   80MOL   C34430522   5.478   4.681   5.853 -0.1021  0.4352 -0.2803
   80MOL   C34530523   5.360   4.590   5.808  0.0743 -0.9783  0.6754
   80MOL   O34630524   5.406   4.465   5.758  0.6908 -0.2216 -0.4329
   80MOL   C34730525   5.444   4.456   5.624  0.3873  0.7103 -0.1010
   80MOL   C34830526   5.460   4.314   5.573  0.5335 -0.5867 -0.3795
   80MOL   C34930527   5.496   4.327   5.431  0.1092 -0.6311 -0.2129
   80MOL   C35030528   5.321   4.239   5.593  0.1368 -0.3344 -0.2006
   80MOL   H35130529   5.442   4.749   5.930  2.3894  1.1736  0.2676
   80MOL   H35230530   5.552   4.627   5.911 -0.3207 -0.0731 -0.4683
   80MOL   H35330531   5.313   4.645   5.727 -0.6734 -0.3713  1.5145
   80MOL   H35430532   5.542   4.501   5.615 -0.1532  1.8015 -0.6839
   80MOL   H35530533   5.380   4.518   5.560  1.7076  3.8771  1.5477
   80MOL   H35630534   5.539   4.265   5.629  0.8987  0.7602  0.3143
   80MOL   H35730535   5.593   4.370   5.408 -0.6727  1.4570  0.3320
   80MOL   H35830536   5.424   4.388   5.376  0.5466  1.0710  1.0707
   80MOL   H35930537   5.479   4.230   5.384 -0.8234 -0.7247  0.3128
   80MOL   H36030538   5.324   4.132   5.614  0.4561 -0.1972  0.4785
   80MOL   H36130539   5.274   4.282   5.681  1.4009  0.0717  0.2880
   80MOL   H36230540   5.259   4.261   5.507  0.4550 -0.8717 -0.5720
   80MOL   C36330541   5.268   4.550   5.920  0.2965 -0.6474 -0.2534
   80MOL   C36430542   5.149   4.459   5.883  0.4313 -0.2825  0.3318
   80MOL   O36530543   5.087   4.514   5.763  0.3514 -0.0132  0.2482
   80MOL   C36630544   4.981   4.439   5.714 -0.2274  0.7096  0.6193
   80MOL   C36730545   4.923   4.502   5.584 -0.4119  0.2788 -0.3192
   80MOL   C36830546   4.852   4.635   5.615  0.6356  0.1380  0.6029
   80MOL   C36930547   4.817   4.412   5.515  0.7348 -0.3549  0.0049
   80MOL   H37030548   5.318   4.506   6.006 -1.4700 -0.4190  0.9179
   80MOL   H37130549   5.230   4.645   5.956 -0.6982 -0.4333 -1.8271
   80MOL   H37230550   5.070   4.470   5.957  1.2517 -1.9815  1.4969
   80MOL   H37330551   5.013   4.339   5.685  0.2029  1.1887 -0.5911
   80MOL   H37430552   4.898   4.424   5.783 -1.9464  1.8869 -1.1586
   80MOL   H37530553   5.005   4.521   5.515 -0.0793 -1.7679 -0.5149
   80MOL   H37630554   4.913   4.708   5.668 -1.9220  1.0038  2.4639
   80MOL   H37730555   4.754   4.613   5.657 -0.6010  6.2632  1.3896
   80MOL   H37830556   4.826   4.686   5.523 -1.5964  1.2067  1.7822
   80MOL   H37930557   4.854   4.320   5.470 -1.6288 -0.9209 -0.8467
   80MOL   H38030558   4.773   4.468   5.432  2.1015  0.3251 -0.2804
   80MOL   H38130559   4.737   4.371   5.576 -0.5802 -1.0532 -2.1169
   80MOL   H38230560   5.165   4.352   5.869 -2.1033 -0.5429 -0.6788
   81MOL     C130561   0.506   6.598   3.622 -0.0717  0.3441 -0.3788
   81MOL     C230562   0.593   6.590   3.749 -0.0313 -0.0380 -0.6284
   81MOL     O330563   0.625   6.451   3.768  0.4617 -0.4736 -0.4292
   81MOL     C430564   0.539   6.374   3.845  0.4021 -0.1264 -0.5048
   81MOL     C530565   0.613   6.254   3.908  0.4262  0.6581  0.4311
   81MOL     C630566   0.530   6.164   3.990 -0.4984  0.4025  0.5918
   81MOL     C730567   0.714   6.307   4.014 -0.4235  0.7158 -0.0081
   81MOL     H830568   0.406   6.556   3.637 -0.0820  0.3226 -0.5021
   81MOL     H930569   0.481   6.702   3.603 -0.2808  0.7816  2.1857
   81MOL    H1030570   0.549   6.643   3.834  0.5510 -2.3279  1.1343
   81MOL    H1130571   0.463   6.340   3.776 -2.1850  2.8944  0.7398
   81MOL    H1230572   0.483   6.429   3.920 -0.8920 -1.9670 -0.0761
   81MOL    H1330573   0.658   6.206   3.822  0.4432  2.8221 -0.7992
   81MOL    H1430574   0.587   6.076   4.021 -0.2473 -0.1875 -1.4860
   81MOL    H1530575   0.474   6.201   4.076 -1.5131 -0.5251  0.3387
   81MOL    H1630576   0.456   6.128   3.918 -0.4656  1.4129  0.0464
   81MOL    H1730577   0.668   6.369   4.091  0.5337 -0.4732  1.5477
   81MOL    H1830578   0.772   6.228   4.061 -1.4213 -0.4370 -0.7024
   81MOL    H1930579   0.788   6.364   3.956 -0.5203 -0.7240 -1.5872
   81MOL    H2030580   0.561   6.559   3.536 -1.6795 -0.4060 -1.1123
   81MOL    C2130581   0.730   6.650   3.733  0.2725  0.0964 -0.3112
   81MOL    C2230582   0.759   6.798   3.705  0.9142 -0.3246  0.5923
   81MOL    O2330583   0.728   6.814   3.568  0.0638  0.1430  0.5806
   81MOL    C2430584   0.763   6.933   3.498  0.0798  0.5886 -0.4574
   81MOL    C2530585   0.759   6.907   3.349  0.5947 -0.1510 -0.2588
   81MOL    C2630586   0.616   6.874   3.299  0.3676  0.3066 -0.2388
   81MOL    C2730587   0.821   7.024   3.274 -0.4229 -0.3573 -0.9389
   81MOL    H2830588   0.774   6.627   3.830  1.0341 -1.0407 -0.9166
   81MOL    H2930589   0.788   6.591   3.663  1.4119  0.2238  0.5086
   81MOL    H3030590   0.867   6.811   3.701  0.7984  0.2729 -1.6719
   81MOL    H3130591   0.864   6.961   3.525  0.7419 -1.2342 -1.0224
   81MOL    H3230592   0.689   7.010   3.523 -0.5164 -1.1065  3.2349
   81MOL    H3330593   0.820   6.820   3.327  0.4478  0.1439 -1.8911
   81MOL    H3430594   0.568   6.780   3.324 -0.6124  0.4094 -1.6425
   81MOL    H3530595   0.609   6.868   3.190  0.1853 -0.3002 -0.1949
   81MOL    H3630596   0.552   6.957   3.329  1.3075  1.0505 -0.2630
   81MOL    H3730597   0.846   6.999   3.171 -1.6865 -1.7830 -0.9085
   81MOL    H3830598   0.754   7.109   3.280 -2.1737 -1.8652  2.2530
   81MOL    H3930599   0.918   7.053   3.315 -1.5311  0.4029  1.2558
   81MOL    C4030600   0.677   6.895   3.798 -0.0323  0.2084  0.2012
   81MOL    C4130601   0.711   6.891   3.951 -0.2612  0.9447  0.6653
   81MOL    O4230602   0.622   6.996   4.002  0.0671 -0.5858  0.3373
   81MOL    C4330603   0.594   6.981   4.140 -0.1644 -0.1487 -0.0033
   81MOL    C4430604   0.488   7.081   4.187  0.1766  0.2523  0.4622
   81MOL    C4530605   0.442   7.044   4.334 -0.1029 -0.1196 -0.6621
   81MOL    C4630606   0.546   7.228   4.178 -0.2112  0.0593 -0.4306
   81MOL    H4730607   0.570   6.878   3.781 -0.1849  1.8829 -0.5786
   81MOL    H4830608   0.695   6.999   3.771  2.4104  0.1257  1.4300
   81MOL    H4930609   0.679   6.797   3.997  4.3752 -1.2216 -0.1470
   81MOL    H5030610   0.686   6.967   4.196 -0.4998  1.3197  0.9424
   81MOL    H5130611   0.544   6.884   4.137 -1.1912  0.3910 -0.7322
   81MOL    H5230612   0.396   7.089   4.129  2.1633  1.0874 -2.6587
   81MOL    H5330613   0.369   7.117   4.369 -0.6018 -1.2394  0.6754
   81MOL    H5430614   0.397   6.945   4.339 -0.1654 -0.0417  0.3123
   81MOL    H5530615   0.522   7.058   4.407  1.0765 -0.1223 -1.9309
   81MOL    H5630616   0.644   7.240   4.223 -0.1628 -0.5413 -0.3711
   81MOL    H5730617   0.479   7.298   4.227 -1.4461 -0.9240 -0.6686
   81MOL    H5830618   0.562   7.271   4.079 -2.6707  0.8068 -0.5558
   81MOL    C5930619   0.865   6.917   3.980 -0.1447  0.1204 -0.0631
   81MOL    C6030620   0.937   6.792   4.044 -0.3202 -0.0308 -0.0492
   81MOL    O6130621   0.888   6.766   4.173 -1.1888 -0.5183  0.0896
   81MOL    C6230622   0.844   6.632   4.201  0.0531  0.6200 -0.1954
   81MOL    C6330623   0.814   6.609   4.354  0.7026 -0.5225 -0.0737
   81MOL    C6430624   0.925   6.654   4.444 -0.3499  0.1050 -0.2594
   81MOL    C6530625   0.671   6.659   4.394  0.1829  0.0167  0.5059
   81MOL    H6630626   0.868   7.001   4.049  0.8319 -0.3727  0.5062
   81MOL    H6730627   0.923   6.951   3.893 -2.9164  2.4330 -1.0808
   81MOL    H6830628   0.934   6.711   3.971  1.8173  1.2773 -1.6454
   81MOL    H6930629   0.753   6.619   4.141  0.4723  0.3082 -0.7664
   81MOL    H7030630   0.912   6.560   4.156  0.4912  1.6402 -1.1756
   81MOL    H7130631   0.814   6.502   4.375 -0.3111 -0.4804  0.1689
   81MOL    H7230632   1.020   6.614   4.410 -0.4105 -0.6762  0.4637
   81MOL    H7330633   0.908   6.634   4.550 -0.9738 -1.4866 -0.6366
   81MOL    H7430634   0.923   6.763   4.438  0.5665  0.0663 -1.3578
   81MOL    H7530635   0.665   6.767   4.376 -1.2683  0.1183  1.5629
   81MOL    H7630636   0.593   6.612   4.335  0.8755  1.2363 -1.4605
   81MOL    H7730637   0.660   6.635   4.499  1.1567 -1.1031  0.3678
   81MOL    C7830638   1.091   6.815   4.055  0.7372 -0.0460  0.5442
   81MOL    C7930639   1.175   6.700   4.113  0.0583 -0.4966  0.2378
   81MOL    O8030640   1.197   6.602   4.004 -0.2573 -0.4456 -0.4349
   81MOL    C8130641   1.278   6.488   4.032 -0.5220 -0.4504 -0.1948
   81MOL    C8230642   1.218   6.369   3.955  0.7530 -1.2692  0.0391
   81MOL    C8330643   1.080   6.327   4.008  0.0206  0.0892  0.1285
   81MOL    C8430644   1.302   6.244   3.943  0.0691 -0.3215 -0.0654
   81MOL    H8530645   1.110   6.912   4.101 -0.0505  0.5025 -0.2486
   81MOL    H8630646   1.132   6.839   3.957 -1.4857 -0.1646 -0.4432
   81MOL    H8730647   1.125   6.648   4.195  1.2003  0.7083  1.7204
   81MOL    H8830648   1.374   6.507   3.984 -0.2307 -2.9530 -0.6609
   81MOL    H8930649   1.288   6.461   4.137  0.6133  1.1671  0.1332
   81MOL    H9030650   1.202   6.415   3.857 -0.2269 -1.9434 -0.1317
   81MOL    H9130651   1.000   6.394   3.976 -0.6409 -0.0429  1.4915
   81MOL    H9230652   1.080   6.314   4.116 -0.8026 -0.6300  0.0489
   81MOL    H9330653   1.053   6.227   3.973  0.0260 -0.5054  1.8175
   81MOL    H9430654   1.392   6.267   3.886  0.6983  0.1874  1.1219
   81MOL    H9530655   1.246   6.167   3.889  0.2768 -1.0767  0.7973
   81MOL    H9630656   1.337   6.201   4.036 -1.1775  2.2002  1.6179
   81MOL    C9730657   1.311   6.753   4.165 -0.3474 -0.5887  0.6453
   81MOL    C9830658   1.306   6.818   4.302  0.2425  0.0303  0.3994
   81MOL    O9930659   1.241   6.943   4.287  0.3041 -0.0927 -0.2318
   81MOL   C10030660   1.157   6.988   4.398  0.2045  0.2644 -0.4563
   81MOL   C10130661   1.076   7.118   4.364  0.1117  0.6021  0.0101
   81MOL   C10230662   1.045   7.197   4.489  0.3724  0.5882 -0.9780
   81MOL   C10330663   1.149   7.207   4.263 -1.0655 -0.6353  0.0773
   81MOL   H10430664   1.352   6.822   4.090 -3.0545 -0.1893 -0.5355
   81MOL   H10530665   1.392   6.680   4.168 -0.7709 -1.1429 -0.7242
   81MOL   H10630666   1.249   6.757   4.371 -1.3619 -0.4905 -1.3533
   81MOL   H10730667   1.231   7.009   4.476  0.2629  1.4701 -0.8213
   81MOL   H10830668   1.093   6.912   4.442 -1.7806  2.2473  0.1582
   81MOL   H10930669   0.977   7.089   4.327 -0.3249  3.2635 -1.0523
   81MOL   H11030670   1.006   7.128   4.565  2.2445  1.3258  0.6970
   81MOL   H11130671   1.142   7.222   4.533  1.0610 -0.6392 -1.7510
   81MOL   H11230672   0.987   7.288   4.478  0.6918  0.5718 -2.9056
   81MOL   H11330673   1.104   7.305   4.245 -0.0467 -0.4516 -1.6056
   81MOL   H11430674   1.248   7.220   4.306 -1.5133  0.0394  0.9221
   81MOL   H11530675   1.156   7.181   4.157 -3.1558  1.0361 -0.5075
   81MOL   C11630676   1.456   6.843   4.353  0.3802 -0.7956 -0.2954
   81MOL   C11730677   1.547   6.721   4.396 -0.1188  0.1612  0.8052
   81MOL   O11830678   1.678   6.769   4.439  0.4446 -0.2518 -0.5631
   81MOL   C11930679   1.757   6.817   4.326  0.5608 -0.6543  0.4395
   81MOL   C12030680   1.896   6.858   4.374  0.4607  0.1051  0.5727
   81MOL   C12130681   1.904   6.969   4.487  0.4182 -0.1971 -0.0213
   81MOL   C12230682   1.982   6.742   4.410  0.0296 -0.0917  0.4800
   81MOL   H12330683   1.502   6.886   4.264 -1.5838 -0.9107 -1.3969
   81MOL   H12430684   1.470   6.924   4.424  1.5624  0.3919 -1.8475
   81MOL   H12530685   1.560   6.646   4.318 -0.1672  0.0682  0.8860
   81MOL   H12630686   1.721   6.892   4.255  2.5801 -0.0032  0.0742
   81MOL   H12730687   1.761   6.736   4.254  3.3951  1.4439 -1.8908
   81MOL   H12830688   1.949   6.910   4.294  0.4572 -0.2126  0.3663
   81MOL   H12930689   1.846   6.953   4.578  2.3824 -1.2507  1.0826
   81MOL   H13030690   1.859   7.061   4.449 -0.6978 -0.3776  0.8449
   81MOL   H13130691   2.007   6.988   4.519 -0.6112  5.0852  0.5776
   81MOL   H13230692   2.090   6.753   4.398  0.0250 -0.4186  0.1061
   81MOL   H13330693   1.963   6.706   4.511  0.7601  1.4753  1.1924
   81MOL   H13430694   1.966   6.665   4.334  1.1288  0.0389  0.0981
   81MOL   C13530695   1.492   6.652   4.517 -0.0607 -0.5097  0.5118
   81MOL   C13630696   1.579   6.545   4.583 -0.3131 -0.7008 -0.1807
   81MOL   O13730697   1.511   6.464   4.684  0.4090 -0.0793  0.1325
   81MOL   C13830698   1.506   6.523   4.812 -0.0787  0.7222  0.0152
   81MOL   C13930699   1.363   6.514   4.871 -0.6774  0.3363 -1.0476
   81MOL   C14030700   1.356   6.572   5.009 -0.1222  0.4449 -0.1660
   81MOL   C14130701   1.257   6.582   4.773 -0.2819 -0.5634 -0.3401
   81MOL   H14230702   1.494   6.733   4.591  2.4550  0.6163 -0.7281
   81MOL   H14330703   1.388   6.621   4.501  0.5211 -2.1007 -0.2227
   81MOL   H14430704   1.675   6.588   4.611 -0.6177 -1.0886  1.5239
   81MOL   H14530705   1.527   6.630   4.810  0.0119  0.7136  0.4008
   81MOL   H14630706   1.589   6.492   4.877 -1.5617  0.9249  2.0621
   81MOL   H14730707   1.335   6.409   4.874  0.7028 -0.0037  0.8560
   81MOL   H14830708   1.401   6.507   5.084  0.1835 -1.4769 -1.9732
   81MOL   H14930709   1.252   6.589   5.037 -0.4945  0.0195 -1.2710
   81MOL   H15030710   1.425   6.657   5.014  1.5690 -0.9032  0.1598
   81MOL   H15130711   1.249   6.541   4.673 -1.2235 -0.5730 -0.2647
   81MOL   H15230712   1.155   6.578   4.812  0.1223 -0.8173  0.6976
   81MOL   H15330713   1.273   6.686   4.744  0.5941 -0.6440 -0.1412
   81MOL   C15430714   1.636   6.440   4.494  0.1926 -0.2335  0.2912
   81MOL   C15530715   1.544   6.337   4.414 -0.5051 -0.5497 -0.4923
   81MOL   O15630716   1.626   6.292   4.310  0.6263 -0.0266  0.3034
   81MOL   C15730717   1.627   6.364   4.190 -0.4205  0.3690 -0.1139
   81MOL   C15830718   1.754   6.338   4.104  0.2236 -0.3605 -0.8569
   81MOL   C15930719   1.891   6.351   4.175 -0.0399 -0.0603 -1.0943
   81MOL   C16030720   1.751   6.209   4.023  0.0688 -0.7569  0.0654
   81MOL   H16130721   1.710   6.378   4.545 -0.6721 -1.5839 -0.0708
   81MOL   H16230722   1.692   6.504   4.425 -0.4654  0.0693  0.0370
   81MOL   H16330723   1.451   6.386   4.386 -0.9697 -0.7369  0.6692
   81MOL   H16430724   1.624   6.472   4.207  2.4549  0.4358  0.2202
   81MOL   H16530725   1.534   6.350   4.134 -0.2239  0.5945 -0.4989
   81MOL   H16630726   1.750   6.422   4.034 -0.2471  0.2995 -0.0491
   81MOL   H16730727   1.976   6.376   4.112 -0.3359  2.2449 -0.6207
   81MOL   H16830728   1.912   6.273   4.249  2.1214  1.2374 -0.2607
   81MOL   H16930729   1.902   6.437   4.241  2.0490 -1.6645  0.7632
   81MOL   H17030730   1.664   6.216   3.958 -0.1153 -0.0014  0.3805
   81MOL   H17130731   1.848   6.190   3.977 -1.3345 -0.4767 -3.0864
   81MOL   H17230732   1.728   6.120   4.081  0.9825  0.0482  1.7143
   81MOL   C17330733   1.510   6.210   4.493 -0.2613 -0.4257  0.2940
   81MOL   C17430734   1.402   6.122   4.432  0.6366  0.3921  0.1441
   81MOL   O17530735   1.275   6.189   4.447  0.1645 -0.4276 -0.0874
   81MOL   C17630736   1.229   6.218   4.584 -0.2197  0.2220 -0.4336
   81MOL   C17730737   1.080   6.194   4.613 -0.3376 -0.1055  0.0088
   81MOL   C17830738   1.039   6.209   4.764  0.0786  0.0730 -0.6065
   81MOL   C17930739   1.002   6.293   4.526 -0.0962 -0.1471 -0.4203
   81MOL   H18030740   1.598   6.147   4.504  0.6198  0.8579  0.7335
   81MOL   H18130741   1.491   6.242   4.596  0.9377  3.2182 -0.5523
   81MOL   H18230742   1.377   6.035   4.492 -1.0154  0.8675  0.1733
   81MOL   H18330743   1.272   6.309   4.627  0.6344 -0.1407 -0.5037
   81MOL   H18430744   1.270   6.138   4.645  0.5411  2.1228  1.6138
   81MOL   H18530745   1.051   6.097   4.573 -0.6565 -0.0944  0.2082
   81MOL   H18630746   0.936   6.178   4.785  0.5923 -0.7340  0.7450
   81MOL   H18730747   1.111   6.162   4.831  1.2622  3.2978  0.4976
   81MOL   H18830748   1.035   6.311   4.801  1.4128 -0.2852  0.5391
   81MOL   H18930749   1.024   6.395   4.561  1.7942 -0.5821 -0.2760
   81MOL   H19030750   0.896   6.271   4.537  0.1665 -0.1084  2.6356
   81MOL   H19130751   1.027   6.303   4.420  2.5852 -1.1553  0.0708
   81MOL   C19230752   1.426   6.084   4.284 -0.1774  0.2126  0.1881
   81MOL   C19330753   1.340   5.976   4.221 -0.1548  0.6006 -0.0414
   81MOL   O19430754   1.366   5.952   4.081 -0.2651  0.1327 -0.1361
   81MOL   C19530755   1.492   5.880   4.052 -0.3830  0.0241 -0.1137
   81MOL   C19630756   1.484   5.833   3.906  0.6105  0.7162  1.0241
   81MOL   C19730757   1.380   5.723   3.873 -0.6105  0.1917  0.6836
   81MOL   C19830758   1.630   5.790   3.870  0.8055  0.4402 -0.4905
   81MOL   H19930759   1.531   6.053   4.288 -0.1744  0.3828  1.6158
   81MOL   H20030760   1.405   6.179   4.237  1.9935  0.5518 -0.1274
   81MOL   H20130761   1.349   5.884   4.279  1.7809 -0.2009 -1.5612
   81MOL   H20230762   1.482   5.790   4.112 -0.7828  0.6994  0.8455
   81MOL   H20330763   1.582   5.937   4.076 -0.7033  0.9228 -1.0158
   81MOL   H20430764   1.465   5.922   3.845  1.5515  1.2287  1.4759
   81MOL   H20530765   1.402   5.692   3.770  2.7877  0.5986  1.2285
   81MOL   H20630766   1.386   5.637   3.938 -1.1480  0.3183  0.9043
   81MOL   H20730767   1.278   5.763   3.872 -0.6362  0.1626 -1.2670
   81MOL   H20830768   1.634   5.743   3.772  0.9867  0.3041 -0.4175
   81MOL   H20930769   1.698   5.874   3.879  0.8434  0.1924  1.9578
   81MOL   H21030770   1.666   5.721   3.947 -0.3176 -0.2568 -0.5607
   81MOL   C21130771   1.182   6.003   4.210  0.1238  0.1186  0.2323
   81MOL   C21230772   1.089   5.886   4.159  0.8745  0.1305 -0.4654
   81MOL   O21330773   1.102   5.768   4.240  0.1563  0.3120 -0.2153
   81MOL   C21430774   1.139   5.655   4.173 -0.0980  0.5725 -0.7066
   81MOL   C21530775   1.123   5.528   4.259  0.7541  0.0397 -0.5732
   81MOL   C21630776   1.234   5.508   4.365 -0.0122 -0.7630 -0.2800
   81MOL   C21730777   0.983   5.517   4.312  0.0006 -0.0784  0.1464
   81MOL   H21830778   1.162   6.086   4.142  0.7461 -1.8091 -2.3922
   81MOL   H21930779   1.151   6.030   4.311  0.3855 -0.4176  0.4579
   81MOL   H22030780   1.107   5.875   4.052 -0.1824 -2.4749 -0.4218
   81MOL   H22130781   1.245   5.677   4.156  0.0224  1.3267  0.9434
   81MOL   H22230782   1.091   5.650   4.075  0.3875 -0.8995 -0.8774
   81MOL   H22330783   1.130   5.446   4.187 -0.3511 -0.4608 -0.1127
   81MOL   H22430784   1.201   5.505   4.469 -0.3074  2.7927 -0.1981
   81MOL   H22530785   1.293   5.417   4.357 -0.7413 -1.2844  0.2395
   81MOL   H22630786   1.301   5.594   4.358  2.2888 -2.3611  1.5183
   81MOL   H22730787   0.947   5.610   4.356 -1.9254  0.5402 -2.5881
   81MOL   H22830788   0.963   5.437   4.383 -0.5863  0.6823  0.8496
   81MOL   H22930789   0.914   5.512   4.227  0.9922  0.0864 -0.6705
   81MOL   C23030790   0.947   5.943   4.173  0.0739 -0.3531  0.1206
   81MOL   C23130791   0.830   5.862   4.122  0.1741  0.2579 -0.4967
   81MOL   O23230792   0.712   5.919   4.171  0.0548 -0.6007 -0.1978
   81MOL   C23330793   0.681   5.868   4.303  0.0410 -0.0980 -0.2703
   81MOL   C23430794   0.599   5.981   4.366 -0.3788  0.0387 -0.1362
   81MOL   C23530795   0.686   6.106   4.372 -0.3281  0.0685  0.2957
   81MOL   C23630796   0.460   5.999   4.296 -0.2132  0.0117 -0.3013
   81MOL   H23730797   0.930   6.035   4.118  0.0082  0.2053  1.0629
   81MOL   H23830798   0.925   5.978   4.274  1.1153  1.2893 -0.2111
   81MOL   H23930799   0.848   5.764   4.166 -0.3038  0.2607 -0.2900
   81MOL   H24030800   0.617   5.779   4.302 -2.0854  1.3924 -2.1620
   81MOL   H24130801   0.769   5.834   4.357 -1.0362 -0.5889  1.2166
   81MOL   H24230802   0.580   5.964   4.472  1.7271  1.5800  0.5121
   81MOL   H24330803   0.641   6.195   4.415  0.6709  1.1088 -0.7638
   81MOL   H24430804   0.703   6.138   4.269 -0.5950 -1.0352 -0.0941
   81MOL   H24530805   0.781   6.089   4.423 -0.8585  1.4214  1.7683
   81MOL   H24630806   0.391   5.924   4.335  0.7813  0.2887  2.1204
   81MOL   H24730807   0.422   6.099   4.318  0.8289  0.6864 -1.5039
   81MOL   H24830808   0.466   5.988   4.188  1.2730  1.2256 -0.3597
   81MOL   C24930809   0.821   5.845   3.965 -0.3504  0.5418 -0.2756
   81MOL   C25030810   0.708   5.755   3.917  0.3000  0.3566  0.3798
   81MOL   O25130811   0.690   5.790   3.779 -0.2593 -0.3255  0.4908
   81MOL   C25230812   0.569   5.860   3.745  0.1031 -0.5274  0.4113
   81MOL   C25330813   0.562   5.889   3.596  0.4799 -0.1534 -0.2146
   81MOL   C25430814   0.470   6.003   3.562  0.1033  0.4394 -0.0832
   81MOL   C25530815   0.540   5.764   3.511 -1.0857 -0.3959  0.3030
   81MOL   H25630816   0.918   5.820   3.922 -0.5949 -1.5171  0.3238
   81MOL   H25730817   0.806   5.944   3.921  0.2306  1.5790  1.7976
   81MOL   H25830818   0.618   5.782   3.972 -1.6524 -3.1775 -0.9447
   81MOL   H25930819   0.480   5.803   3.770  0.4878 -1.1067  0.4618
   81MOL   H26030820   0.568   5.959   3.791  2.0085 -0.3052  0.0235
   81MOL   H26130821   0.665   5.921   3.579  0.4685 -0.5241 -0.9973
   81MOL   H26230822   0.463   6.078   3.640 -1.5328  0.1284  0.1009
   81MOL   H26330823   0.365   5.978   3.542 -0.1989  1.7885 -0.2053
   81MOL   H26430824   0.516   6.050   3.475 -2.5882 -1.0073 -2.3654
   81MOL   H26530825   0.437   5.731   3.523 -1.5638  0.8259 -0.3092
   81MOL   H26630826   0.553   5.802   3.409 -1.8473 -0.7424  0.0791
   81MOL   H26730827   0.620   5.692   3.528  0.7637  1.2403 -1.1077
   81MOL   C26830828   0.752   5.613   3.925  0.4030  0.3630  0.2053
   81MOL   C26930829   0.642   5.510   3.948  0.4663 -0.0094 -0.0688
   81MOL   O27030830   0.619   5.494   4.090  0.5312  0.3622 -0.1742
   81MOL   C27130831   0.501   5.546   4.141 -0.4999  0.4614 -0.4542
   81MOL   C27230832   0.496   5.508   4.295  0.3153  0.4983 -0.2389
   81MOL   C27330833   0.387   5.593   4.364 -0.1551  0.0711  0.0151
   81MOL   C27430834   0.464   5.365   4.303  0.3287 -0.7289 -0.1033
   81MOL   H27530835   0.809   5.603   4.017  1.5215 -0.2347 -0.5450
   81MOL   H27630836   0.814   5.579   3.842 -1.8888  0.7993 -1.7543
   81MOL   H27730837   0.549   5.541   3.901  0.1948  0.1184  0.5427
   81MOL   H27830838   0.494   5.654   4.131 -2.0519  0.7389  2.9809
   81MOL   H27930839   0.415   5.510   4.085 -1.7827 -2.3566  3.1258
   81MOL   H28030840   0.593   5.526   4.342  1.1303 -0.9910 -1.2835
   81MOL   H28130841   0.399   5.699   4.339  2.6249 -0.4616 -1.1826
   81MOL   H28230842   0.385   5.587   4.472 -2.2803 -0.6802 -0.0569
   81MOL   H28330843   0.285   5.572   4.332  0.1492  1.2544 -1.8239
   81MOL   H28430844   0.481   5.332   4.405 -0.7284 -1.5715 -0.1911
   81MOL   H28530845   0.535   5.310   4.240 -0.2945 -0.1271 -1.3392
   81MOL   H28630846   0.362   5.337   4.277 -0.1276 -1.4607  2.3461
   81MOL   C28730847   0.676   5.372   3.880 -0.1645  0.6385 -0.6296
   81MOL   C28830848   0.587   5.252   3.931 -0.8108  0.0509  0.7755
   81MOL   O28930849   0.635   5.129   3.867 -0.0088 -0.4559  0.3450
   81MOL   C29030850   0.745   5.058   3.937  0.1661 -0.5146  0.3040
   81MOL   C29130851   0.753   4.926   3.876 -0.3328  0.3052  0.3906
   81MOL   C29230852   0.621   4.850   3.864 -0.0080  0.8875 -0.2156
   81MOL   C29330853   0.859   4.841   3.932  1.1108  0.2328  0.2127
   81MOL   H29430854   0.779   5.344   3.902 -1.1122  0.6545  4.4162
   81MOL   H29530855   0.663   5.377   3.772 -0.1397  0.6676 -0.6310
   81MOL   H29630856   0.608   5.241   4.037  0.9292  0.7447  0.5257
   81MOL   H29730857   0.833   5.119   3.916 -1.2710  2.4149  2.4766
   81MOL   H29830858   0.724   5.052   4.043 -1.2182  1.6332  0.1812
   81MOL   H29930859   0.780   4.942   3.771  0.0078  1.6415  0.6656
   81MOL   H30030860   0.567   4.825   3.955  0.4220 -2.1381 -0.7505
   81MOL   H30130861   0.630   4.746   3.834 -0.0003  0.5996  0.7659
   81MOL   H30230862   0.548   4.903   3.802 -2.1362 -2.1986 -0.4733
   81MOL   H30330863   0.841   4.823   4.038 -2.7282  1.5746 -0.1450
   81MOL   H30430864   0.871   4.745   3.880 -3.0715 -1.9756  3.0521
   81MOL   H30530865   0.957   4.888   3.923  0.7900  1.1551  1.4781
   81MOL   C30630866   0.430   5.262   3.901 -0.7944 -0.3535  0.4008
   81MOL   C30730867   0.379   5.251   3.756  0.4416  0.1507 -0.0321
   81MOL   O30830868   0.244   5.209   3.784 -0.5098 -0.1270  0.4613
   81MOL   C30930869   0.207   5.083   3.726 -0.4571 -0.1329  0.3232
   81MOL   C31030870   0.058   5.063   3.745  0.7793 -0.2476 -0.3158
   81MOL   C31130871   0.018   4.923   3.696 -0.3861  0.1879  0.1370
   81MOL   C31230872   7.806   5.164   3.668  0.5523  0.0212 -0.2186
   81MOL   H31330873   0.393   5.353   3.948  0.0353 -0.3219  1.0279
   81MOL   H31430874   0.389   5.187   3.969  0.6866 -0.7126  0.9298
   81MOL   H31530875   0.431   5.174   3.699  4.1247  1.4459  1.4054
   81MOL   H31630876   0.262   5.011   3.786 -0.1852 -0.5820 -0.4570
   81MOL   H31730877   0.250   5.074   3.626  1.8523 -1.8890  1.4228
   81MOL   H31830878   0.042   5.071   3.852 -1.6461  0.6606 -0.7214
   81MOL   H31930879   0.026   4.853   3.780 -2.6170 -0.0439  0.1950
   81MOL   H32030880   0.071   4.901   3.604 -0.9674 -0.9405  0.0591
   81MOL   H32130881   7.735   4.922   3.678 -0.7154  1.8671  1.7850
   81MOL   H32230882   7.701   5.155   3.693  0.3249  3.0853  0.1973
   81MOL   H32330883   7.816   5.165   3.559 -0.5064 -2.3464 -0.3575
   81MOL   H32430884   0.018   5.260   3.705 -0.0440 -0.1745  0.8913
   81MOL   C32530885   0.369   5.384   3.681 -0.3976 -0.1643  0.7049
   81MOL   C32630886   0.319   5.373   3.543 -0.0997 -0.2838  0.4621
   81MOL   O32730887   0.247   5.491   3.510 -0.2907  0.4878 -0.2972
   81MOL   C32830888   0.113   5.460   3.480  0.2573 -0.0159 -0.1956
   81MOL   C32930889   0.025   5.592   3.477 -0.1615 -0.0305 -0.2077
   81MOL   C33030890   0.007   5.649   3.622 -0.8174  0.6366  0.2507
   81MOL   C33130891   0.097   5.690   3.378 -0.0555  0.0864 -0.2968
   81MOL   H33230892   0.470   5.425   3.671 -0.5184  0.3591  1.6156
   81MOL   H33330893   0.307   5.458   3.731 -2.1702  0.2587 -1.9944
   81MOL   H33430894   0.255   5.285   3.538  2.1195 -1.9153 -0.2925
   81MOL   H33530895   0.104   5.409   3.385  1.6703  0.4632 -0.6041
   81MOL   H33630896   0.071   5.386   3.548 -0.9935  1.3360  0.5280
   81MOL   H33730897   7.756   5.569   3.426  0.3077 -0.2396 -0.9844
   81MOL   H33830898   7.779   5.579   3.688  0.9932 -2.7262 -1.7542
   81MOL   H33930899   0.100   5.666   3.678  0.0164  0.3578 -1.0189
   81MOL   H34030900   7.783   5.747   3.621 -1.1494  0.5298  2.7379
   81MOL   H34130901   0.153   5.624   3.310  0.1024 -1.2268  1.0754
   81MOL   H34230902   0.020   5.753   3.334  0.4140  1.5778  0.9827
   81MOL   H34330903   0.176   5.744   3.430 -0.2771 -0.7706  0.9507
   81MOL   C34430904   0.428   5.361   3.426 -0.3300  0.9466 -0.5000
   81MOL   C34530905   0.371   5.352   3.279  0.4148  0.3676 -0.5940
   81MOL   O34630906   0.477   5.363   3.176 -0.3818 -0.1100  0.3682
   81MOL   C34730907   0.543   5.488   3.150  0.6301 -0.2827 -0.2829
   81MOL   C34830908   0.671   5.462   3.067  0.1787 -0.8343 -0.1686
   81MOL   C34930909   0.766   5.585   3.061 -0.0346 -0.1765  0.4337
   81MOL   C35030910   0.629   5.416   2.929  0.4346  0.2107  0.9093
   81MOL   H35130911   0.501   5.281   3.437 -0.0541  1.2526 -0.0839
   81MOL   H35230912   0.489   5.452   3.432  0.8208  0.2497 -1.4664
   81MOL   H35330913   0.316   5.444   3.267 -0.7586 -0.1699  0.5434
   81MOL   H35430914   0.572   5.537   3.242 -0.3503 -3.5031  1.8383
   81MOL   H35530915   0.481   5.560   3.097  0.9290  0.6203  0.5760
   81MOL   H35630916   0.726   5.381   3.114 -1.1021 -1.6251  0.0016
   81MOL   H35730917   0.865   5.553   3.028 -0.7601  1.1592 -3.3133
   81MOL   H35830918   0.776   5.622   3.163  0.5346  1.8057 -0.3231
   81MOL   H35930919   0.728   5.662   2.994  0.5773  0.7021  1.0803
   81MOL   H36030920   0.706   5.363   2.873 -1.8463 -0.6765 -1.4758
   81MOL   H36130921   0.546   5.346   2.935  1.8939 -1.6028  0.3645
   81MOL   H36230922   0.588   5.496   2.867  1.1059 -1.1566 -1.3444
   81MOL   C36330923   0.304   5.224   3.241  0.2875  0.4192  0.2657
   81MOL   C36430924   0.209   5.234   3.125 -0.2588  0.9889  0.4811
   81MOL   O36530925   0.103   5.327   3.145 -0.0916  0.0858  0.4432
   81MOL   C36630926   7.814   5.315   3.058  0.0995  0.1956 -0.2638
   81MOL   C36730927   7.705   5.421   3.095 -0.4148  0.1017 -0.3653
   81MOL   C36830928   7.746   5.570   3.101 -0.0430  0.3521 -0.0955
   81MOL   C36930929   7.619   5.381   3.223 -0.2074  0.1123  1.1273
   81MOL   H37030930   0.366   5.137   3.221 -0.9020  0.2323 -2.8881
   81MOL   H37130931   0.233   5.197   3.320 -1.2272  1.3396 -0.7569
   81MOL   H37230932   0.180   5.130   3.112  2.8435 -0.1024  1.7811
   81MOL   H37330933   0.012   5.326   2.952  0.1645 -0.2799 -0.3034
   81MOL   H37430934   7.774   5.215   3.077  2.6304 -1.0060 -1.0446
   81MOL   H37530935   7.628   5.429   3.018  0.4683  0.5272 -1.2107
   81MOL   H37630936   7.768   5.609   3.002 -1.8545 -1.0617 -1.0833
   81MOL   H37730937   0.017   5.570   3.154  0.3598  1.2425 -0.8194
   81MOL   H37830938   7.686   5.636   3.164 -0.9439 -0.5075 -0.0395
   81MOL   H37930939   7.572   5.283   3.223 -1.6460  0.7821  0.0561
   81MOL   H38030940   7.535   5.451   3.226 -0.3317 -0.0461  1.3498
   81MOL   H38130941   7.677   5.383   3.316  1.1905 -2.3970  0.3588
   81MOL   H38230942   0.263   5.270   3.038 -1.6377  0.3572 -0.6498
   82MOL     C130943   5.074   1.803   7.060 -0.2676  0.3846  0.0102
   82MOL     C230944   4.972   1.756   6.958  0.7487  0.1234 -0.3449
   82MOL     O330945   5.028   1.690   6.843  0.3179 -0.0451  0.3709
   82MOL     C430946   5.097   1.782   6.755 -0.3240 -0.1559 -0.1437
   82MOL     C530947   5.176   1.702   6.653  0.2835  0.1287 -0.5290
   82MOL     C630948   5.261   1.599   6.724 -0.0035 -0.9408 -0.2158
   82MOL     C730949   5.251   1.792   6.550  0.2043 -0.0405 -0.1105
   82MOL     H830950   5.147   1.872   7.018  0.5604 -1.3043 -1.3757
   82MOL     H930951   5.041   1.843   7.156 -0.0643 -0.5611  0.4839
   82MOL    H1030952   4.929   1.852   6.929  2.1025  1.1433  0.9741
   82MOL    H1130953   5.171   1.838   6.811  0.4617 -1.7777  0.4713
   82MOL    H1230954   5.013   1.840   6.717 -0.9802 -1.8462 -1.3347
   82MOL    H1330955   5.103   1.633   6.611 -2.3545  2.0244  0.8541
   82MOL    H1430956   5.287   1.518   6.656  2.8669  0.7989 -1.3084
   82MOL    H1530957   5.355   1.640   6.763 -0.0249 -1.5126  0.4499
   82MOL    H1630958   5.212   1.548   6.807  1.2905  0.5080  1.4939
   82MOL    H1730959   5.176   1.839   6.485 -0.7033  0.1478  1.0522
   82MOL    H1830960   5.305   1.869   6.605 -1.5114  0.3809  1.0155
   82MOL    H1930961   5.309   1.727   6.484 -0.9034  1.3193 -2.5030
   82MOL    H2030962   5.141   1.722   7.090 -0.0898 -0.3272 -2.2546
   82MOL    C2130963   4.861   1.658   7.003  0.2387 -0.1098  0.4251
   82MOL    C2230964   4.768   1.695   7.124 -0.0936 -0.1303 -0.0197
   82MOL    O2330965   4.714   1.828   7.098  0.8423 -0.1128 -0.2565
   82MOL    C2430966   4.726   1.915   7.211 -0.7343  0.5763  0.5624
   82MOL    C2530967   4.688   2.050   7.168 -0.7487  0.1160  0.9062
   82MOL    C2630968   4.807   2.112   7.096  0.5684 -0.1318  0.3361
   82MOL    C2730969   4.557   2.062   7.084 -0.5027  0.1707  0.6447
   82MOL    H2830970   4.798   1.624   6.921  1.2006 -0.2568 -0.2692
   82MOL    H2930971   4.917   1.570   7.034 -0.6228 -0.8515 -0.1076
   82MOL    H3030972   4.828   1.704   7.214  0.5456  0.7203 -0.5217
   82MOL    H3130973   4.817   1.920   7.270 -1.1024  0.7034  1.1299
   82MOL    H3230974   4.655   1.876   7.285 -1.6149  1.2519  0.0767
   82MOL    H3330975   4.682   2.101   7.264  5.1984 -2.3045  2.8471
   82MOL    H3430976   4.840   2.052   7.013 -3.0078 -0.6609 -0.7997
   82MOL    H3530977   4.885   2.139   7.167 -1.6046  2.0911  2.0121
   82MOL    H3630978   4.771   2.202   7.045 -2.7995 -1.7455 -0.3278
   82MOL    H3730979   4.518   2.162   7.065  0.5167  0.4256 -0.2479
   82MOL    H3830980   4.568   2.018   6.984 -1.5416  2.7023 -0.6263
   82MOL    H3930981   4.482   2.002   7.134 -0.0243 -0.1565  0.9760
   82MOL    C4030982   4.665   1.598   7.161  0.3134 -0.0092 -0.2149
   82MOL    C4130983   4.718   1.466   7.227  0.2070 -0.4117 -0.3797
   82MOL    O4230984   4.608   1.375   7.234  0.5048 -0.2031  0.2777
   82MOL    C4330985   4.653   1.241   7.241 -0.0728 -0.1104  0.5364
   82MOL    C4430986   4.517   1.162   7.236  0.4795  0.3304  0.3254
   82MOL    C4530987   4.536   1.010   7.233 -0.1291  0.3591  0.0640
   82MOL    C4630988   4.421   1.206   7.356 -0.5429  0.3566  0.3663
   82MOL    H4730989   4.605   1.574   7.073 -0.9188  0.1864  0.5546
   82MOL    H4830990   4.598   1.651   7.229 -0.6606 -0.0316 -1.1401
   82MOL    H4930991   4.792   1.441   7.152  2.1931  0.7188  1.1774
   82MOL    H5030992   4.700   1.246   7.340 -0.1749  0.1690  0.5694
   82MOL    H5130993   4.711   1.197   7.160 -0.1513  1.4110 -0.3521
   82MOL    H5230994   4.471   1.204   7.147  0.4476  0.1328  0.2474
   82MOL    H5330995   4.597   0.985   7.146 -0.0054 -0.4174  0.3697
   82MOL    H5430996   4.572   0.965   7.325  0.2116 -1.7572 -1.0847
   82MOL    H5530997   4.437   0.967   7.216  0.5876 -0.4665 -2.1951
   82MOL    H5630998   4.373   1.304   7.356 -1.3060  0.0353 -2.8001
   82MOL    H5730999   4.459   1.188   7.457  1.6634  1.7507 -0.1899
   82MOL    H5831000   4.326   1.152   7.350 -1.0653  1.2428  0.5307
   82MOL    C5931001   4.779   1.488   7.374  0.3275 -0.1481 -0.0092
   82MOL    C6031002   4.935   1.498   7.377 -0.3477  0.0468  0.4292
   82MOL    O6131003   4.989   1.390   7.296  0.5248 -0.0312 -0.0827
   82MOL    C6231004   5.125   1.412   7.260  0.3723  0.4817  0.7572
   82MOL    C6331005   5.164   1.293   7.170 -0.6798 -0.1072 -0.3842
   82MOL    C6431006   5.288   1.324   7.097 -0.0624 -0.2696  0.5391
   82MOL    C6531007   5.161   1.159   7.248 -0.6917  0.1838  0.3029
   82MOL    H6631008   4.743   1.415   7.446  1.3485  0.8048  1.5027
   82MOL    H6731009   4.738   1.578   7.417  0.8289  0.8359 -1.5329
   82MOL    H6831010   4.970   1.587   7.326 -0.6181  0.2919  0.6663
   82MOL    H6931011   5.135   1.505   7.204  1.8341 -1.6929 -2.8038
   82MOL    H7031012   5.193   1.425   7.344 -1.0475  3.0269  1.5757
   82MOL    H7131013   5.087   1.285   7.094 -0.0746 -2.8246 -0.7652
   82MOL    H7231014   5.321   1.241   7.035 -2.7481 -0.1593 -1.1397
   82MOL    H7331015   5.362   1.326   7.177 -3.5182  1.2519  3.8546
   82MOL    H7431016   5.290   1.415   7.036 -0.8674  0.1361  1.1079
   82MOL    H7531017   5.245   1.154   7.317 -0.5131  1.3299  0.1673
   82MOL    H7631018   5.060   1.146   7.286 -1.6659 -0.8186 -2.4943
   82MOL    H7731019   5.164   1.063   7.196 -1.8520 -0.5700  1.5939
   82MOL    C7831020   4.974   1.474   7.520  0.0411  0.2599  0.0106
   82MOL    C7931021   4.958   1.590   7.616  0.3235  0.0156  0.3649
   82MOL    O8031022   4.974   1.552   7.753 -0.0856  0.3231  0.1301
   82MOL    C8131023   4.866   1.480   7.819  0.6196 -0.5904  0.4798
   82MOL    C8231024   4.896   1.471   0.146  0.2068  0.2809  0.1660
   82MOL    C8331025   4.790   1.387   0.216  0.2516 -0.5049 -0.0277
   82MOL    C8431026   4.916   1.607   0.213  0.3424  0.2637 -0.4818
   82MOL    H8531027   5.081   1.452   7.522  0.4290  2.0052 -0.2559
   82MOL    H8631028   4.930   1.383   7.560  2.5200 -1.0868 -0.2414
   82MOL    H8731029   4.859   1.631   7.599 -1.0596 -3.8096 -1.5464
   82MOL    H8831030   4.772   1.534   7.805  1.1888  0.0444 -1.0748
   82MOL    H8931031   4.849   1.380   7.780 -2.4134  0.7482 -1.8722
   82MOL    H9031032   4.993   1.421   0.149 -0.5080 -1.7690 -5.0534
   82MOL    H9131033   4.785   1.297   0.154 -1.5573  1.3127 -2.6656
   82MOL    H9231034   4.694   1.439   0.212 -0.9073 -2.5692 -0.1283
   82MOL    H9331035   4.818   1.368   0.319  0.4839 -0.4397 -0.0792
   82MOL    H9431036   4.995   1.666   0.165  3.5028 -2.2393  1.4371
   82MOL    H9531037   4.945   1.596   0.317  3.7347  0.7734 -1.2840
   82MOL    H9631038   4.826   1.668   0.223 -0.6541 -1.3137  0.2397
   82MOL    C9731039   5.071   1.692   7.588  0.1208 -0.4349  0.1025
   82MOL    C9831040   5.040   1.833   7.643 -0.1410  0.4848 -0.3995
   82MOL    O9931041   4.921   1.875   7.587 -0.1056 -0.3641 -0.0159
   82MOL   C10031042   4.832   1.923   7.692 -0.5875 -0.5896 -0.0469
   82MOL   C10131043   4.707   1.976   7.635  0.3428 -0.1708 -0.7988
   82MOL   C10231044   4.729   2.111   7.566  0.0708  0.6055  0.0072
   82MOL   C10331045   4.615   1.875   7.570 -0.0947  0.0331  0.3466
   82MOL   H10431046   5.069   1.715   7.482 -0.4114 -4.0168 -0.7435
   82MOL   H10531047   5.164   1.646   7.620 -0.5406 -1.8428  0.0597
   82MOL   H10631048   5.048   1.825   7.751 -0.6289  2.6031 -0.1868
   82MOL   H10731049   4.879   2.009   7.739 -0.9881 -0.0782 -0.5720
   82MOL   H10831050   4.806   1.852   7.771 -0.8527  1.0577  1.3693
   82MOL   H10931051   4.638   1.993   7.718 -0.3123 -2.1311 -0.9138
   82MOL   H11031052   4.791   2.107   7.476 -0.2985  0.6932 -0.2538
   82MOL   H11131053   4.637   2.169   7.554 -0.0285  0.7879  1.5288
   82MOL   H11231054   4.790   2.179   7.625  2.2182 -1.7160  0.5646
   82MOL   H11331055   4.668   1.797   7.515  1.5728 -0.0418  2.0035
   82MOL   H11431056   4.560   1.821   7.647  1.5453 -1.5674  0.4205
   82MOL   H11531057   4.545   1.922   7.502 -0.0089 -2.2976 -1.4284
   82MOL   C11631058   5.160   1.929   7.601  0.5547 -0.0252  1.0939
   82MOL   C11731059   5.148   2.072   7.650 -0.1267 -0.5188 -0.5334
   82MOL   O11831060   5.167   2.074   7.797 -0.0550  0.4769 -0.1556
   82MOL   C11931061   5.114   2.183   0.049 -0.1145  0.5302  0.1479
   82MOL   C12031062   5.105   2.137   0.198  0.0313 -0.7590  0.7531
   82MOL   C12131063   5.068   2.258   0.286  0.2746 -0.1627 -0.2352
   82MOL   C12231064   4.995   2.033   0.213  0.2663  0.1692  0.3811
   82MOL   H12331065   5.256   1.886   7.632  0.9780  0.8191  0.9744
   82MOL   H12431066   5.152   1.939   7.493  1.6443  1.7504  1.1537
   82MOL   H12531067   5.049   2.114   7.634 -1.2302 -2.5637  0.8212
   82MOL   H12631068   5.012   2.195   0.012  0.5268  0.7457 -1.5807
   82MOL   H12731069   5.161   2.279   0.032  0.9890  0.1445  0.9562
   82MOL   H12831070   5.205   2.110   0.231  1.1761 -0.4915 -2.3612
   82MOL   H12931071   4.996   2.330   0.248 -0.2825  1.7438  4.0559
   82MOL   H13031072   5.161   2.309   0.308 -0.6605  1.7644 -0.6716
   82MOL   H13131073   5.027   2.230   0.384  1.3036  0.1070  0.2755
   82MOL   H13231074   4.897   2.069   0.183  1.7017  2.1407 -2.1373
   82MOL   H13331075   5.015   1.947   0.148 -0.3598 -1.0071  1.7098
   82MOL   H13431076   4.999   1.982   0.309 -3.1646 -2.5805 -0.8329
   82MOL   C13531077   5.262   2.163   7.588  0.4404  0.4661  0.5564
   82MOL   C13631078   5.231   2.209   7.452  0.6002 -0.3955 -0.2833
   82MOL   O13731079   5.133   2.309   7.466  0.1976 -0.4093 -0.1066
   82MOL   C13831080   5.020   2.295   7.383 -0.3000 -0.2469  0.0397
   82MOL   C13931081   4.940   2.422   7.395  0.4164 -0.3659  0.0063
   82MOL   C14031082   5.019   2.553   7.360  0.1215  0.1662  0.8368
   82MOL   C14131083   4.808   2.422   7.312  0.6309 -0.1749 -0.4020
   82MOL   H14231084   5.274   2.256   7.643  0.5443  0.5720  0.3541
   82MOL   H14331085   5.359   2.114   7.599 -0.5104 -1.9331 -1.2070
   82MOL   H14431086   5.192   2.124   7.397  0.1918  0.6776 -1.6624
   82MOL   H14531087   4.967   2.211   7.429  0.6216 -0.6959  0.2958
   82MOL   H14631088   5.059   2.289   7.281 -0.4253 -0.7302  0.0156
   82MOL   H14731089   4.903   2.424   7.497 -1.3646  0.1932 -0.6416
   82MOL   H14831090   5.024   2.559   7.252  0.7407  1.0561  0.9138
   82MOL   H14931091   5.117   2.558   7.407  0.3933 -0.4413  0.3367
   82MOL   H15031092   4.966   2.643   7.391  1.1338  0.8670  0.5246
   82MOL   H15131093   4.823   2.448   7.207  3.8330 -0.9712 -0.2118
   82MOL   H15231094   4.763   2.323   7.324 -0.7573  0.6876  1.7622
   82MOL   H15331095   4.735   2.488   7.357  1.3042  1.0107 -1.0121
   82MOL   C15431096   5.338   2.282   7.369 -0.5564 -0.4837 -0.4735
   82MOL   C15531097   5.445   2.191   7.300  0.6351 -0.2036  0.5394
   82MOL   O15631098   5.392   2.114   7.194  0.4055  0.7576  0.4222
   82MOL   C15731099   5.462   1.986   7.173  0.4854 -0.0196  0.3852
   82MOL   C15831100   5.480   1.950   7.024 -0.0198 -0.9066 -0.2382
   82MOL   C15931101   5.561   2.053   6.940  0.1294 -0.4020  0.0529
   82MOL   C16031102   5.521   1.805   7.011 -0.2150  0.2754  0.4036
   82MOL   H16131103   5.383   2.350   7.441 -0.2814 -0.9572 -0.2007
   82MOL   H16231104   5.290   2.342   7.292 -0.8799  1.2700  1.0652
   82MOL   H16331105   5.474   2.122   7.379  0.0833 -1.2802 -0.1794
   82MOL   H16431106   5.404   1.909   7.223 -0.2706 -0.0407 -0.5135
   82MOL   H16531107   5.560   1.981   7.221  0.3509  1.8747  0.9031
   82MOL   H16631108   5.386   1.966   6.972  0.1069 -1.3888 -0.6119
   82MOL   H16731109   5.667   2.038   6.960  0.3740 -0.3238 -1.1725
   82MOL   H16831110   5.546   2.161   6.937  0.8224 -0.3456 -1.8063
   82MOL   H16931111   5.551   2.019   6.837  1.5054 -0.3309 -0.1143
   82MOL   H17031112   5.449   1.728   7.036 -0.4721 -0.5642 -2.6384
   82MOL   H17131113   5.548   1.786   6.907  0.1531 -0.1782  0.5784
   82MOL   H17231114   5.613   1.787   7.067 -0.7669 -0.7584  0.9885
   82MOL   C17331115   5.569   2.259   7.256 -0.0070 -0.3664 -0.1255
   82MOL   C17431116   5.667   2.275   7.370 -0.6489  0.6753 -0.5746
   82MOL   O17531117   5.713   2.142   7.409 -0.3041 -0.3446 -0.1344
   82MOL   C17631118   5.746   2.135   7.548 -0.6780 -0.5695  0.2783
   82MOL   C17731119   5.744   1.990   7.593 -0.2924  0.5605 -0.1452
   82MOL   C17831120   5.790   1.985   7.742 -0.1985  0.5223  0.5181
   82MOL   C17931121   5.610   1.915   7.562  0.3908 -0.4978 -0.2384
   82MOL   H18031122   5.613   2.190   7.183 -2.1124 -1.6693 -0.2131
   82MOL   H18131123   5.544   2.351   7.203 -0.0137  0.7817  1.8154
   82MOL   H18231124   5.612   2.331   7.445 -0.3944 -0.2779  0.3338
   82MOL   H18331125   5.689   2.200   7.614  1.2829  2.2560 -0.6827
   82MOL   H18431126   5.849   2.171   7.553 -0.0139 -2.1898 -1.0801
   82MOL   H18531127   5.822   1.939   7.536  1.6219  2.9536  0.2587
   82MOL   H18631128   5.719   2.028   7.812 -0.7683 -2.1074  1.6040
   82MOL   H18731129   5.803   1.880   7.765 -2.8250 -0.8820 -3.8048
   82MOL   H18831130   5.883   2.041   7.755  1.0104 -1.6999  1.6493
   82MOL   H18931131   5.604   1.909   7.454 -0.9064  1.3234 -0.2686
   82MOL   H19031132   5.524   1.971   7.598 -0.4009 -1.4083 -0.7000
   82MOL   H19131133   5.611   1.815   7.606 -0.7585 -0.6315 -0.5226
   82MOL   C19231134   5.787   2.350   7.315  0.6819 -0.7880 -0.5507
   82MOL   C19331135   5.780   2.503   7.327  0.5027 -0.0600 -0.7535
   82MOL   O19431136   5.881   2.558   7.249  0.0371 -0.5285 -0.4532
   82MOL   C19531137   5.843   2.622   7.128 -1.0032 -0.0619  0.0234
   82MOL   C19631138   5.964   2.667   7.047  0.0310 -0.1956  1.0041
   82MOL   C19731139   6.025   2.788   7.122  0.1337  0.1681  0.3832
   82MOL   C19831140   5.908   2.715   6.911 -0.1952 -0.0336  0.0356
   82MOL   H19931141   5.816   2.322   7.214  2.0647  2.8273 -1.2201
   82MOL   H20031142   5.866   2.332   7.387  0.0528 -0.0831  0.3304
   82MOL   H20131143   5.677   2.527   7.300  0.4165  1.4206  0.7763
   82MOL   H20231144   5.785   2.710   7.154 -1.6193  0.0020 -1.5225
   82MOL   H20331145   5.776   2.562   7.066  1.2583 -2.4581 -0.1842
   82MOL   H20431146   6.047   2.597   7.032  0.4568  0.8675 -1.8710
   82MOL   H20531147   6.126   2.813   7.089 -0.3151  2.0175  0.3794
   82MOL   H20631148   5.962   2.877   7.119 -0.3014 -0.1634 -0.6454
   82MOL   H20731149   6.040   2.765   7.227  0.3800  2.4971  0.8816
   82MOL   H20831150   5.853   2.634   6.863  0.1122 -0.6235  0.6573
   82MOL   H20931151   5.844   2.800   6.932 -1.1395 -0.6294 -0.3741
   82MOL   H21031152   5.985   2.755   6.845  1.0354  2.5395  2.9432
   82MOL   C21131153   5.809   2.554   7.474 -0.2703 -0.0385  0.4473
   82MOL   C21231154   5.756   2.692   7.504  0.5347  0.0572  0.3037
   82MOL   O21331155   5.618   2.686   7.481  0.0651  0.4832  0.1214
   82MOL   C21431156   5.566   2.797   7.413  0.2004 -0.3421  0.0803
   82MOL   C21531157   5.414   2.762   7.388  0.7437  0.0138 -0.5039
   82MOL   C21631158   5.323   2.886   7.374  0.4465  0.3514 -0.2977
   82MOL   C21731159   5.408   2.667   7.268  0.1011  0.7684  0.1357
   82MOL   H21831160   5.918   2.554   7.479 -0.2085 -1.7957 -0.4183
   82MOL   H21931161   5.769   2.477   7.540  1.2248 -1.6885 -0.5078
   82MOL   H22031162   5.817   2.754   7.439  2.7167 -0.1769  2.0489
   82MOL   H22131163   5.616   2.810   7.317 -1.9788 -0.7673 -1.1689
   82MOL   H22231164   5.567   2.888   7.474 -2.2820  0.8571 -1.5515
   82MOL   H22331165   5.392   2.698   7.474 -0.5362 -1.4437 -1.8793
   82MOL   H22431166   5.329   2.950   7.461 -0.7543 -1.1361  0.9027
   82MOL   H22531167   5.341   2.945   7.284 -0.8345  0.7581 -0.2867
   82MOL   H22631168   5.217   2.863   7.381  0.0175  2.2981 -0.2682
   82MOL   H22731169   5.310   2.620   7.261  0.6524 -0.9721  2.9690
   82MOL   H22831170   5.463   2.574   7.274 -1.4187 -0.1432  0.2845
   82MOL   H22931171   5.429   2.723   7.177 -0.1820  0.7150  0.0377
   82MOL   C23031172   5.780   2.727   7.649 -0.2131  0.1516  0.2060
   82MOL   C23131173   5.745   2.870   7.708  0.1354  0.5095 -0.0352
   82MOL   O23231174   5.752   2.972   7.611  0.0510 -0.1969  0.2102
   82MOL   C23331175   5.882   3.012   7.565 -0.0261 -0.1357  0.4954
   82MOL   C23431176   5.873   3.133   7.468 -0.7198 -0.6512 -0.9702
   82MOL   C23531177   5.781   3.117   7.347 -0.4562 -1.1302  0.0120
   82MOL   C23631178   5.841   3.270   7.544 -0.2069  0.3723 -0.2985
   82MOL   H23731179   5.888   2.720   7.660 -0.2169  0.4226  0.4203
   82MOL   H23831180   5.733   2.652   7.713 -2.7116 -1.7378 -3.6813
   82MOL   H23931181   5.815   2.893   7.789  0.6907 -0.0700 -0.3454
   82MOL   H24031182   5.939   3.043   7.652 -2.3904  2.6322  1.1607
   82MOL   H24131183   5.939   2.934   7.515 -1.8023  0.1782 -2.1377
   82MOL   H24231184   5.971   3.141   7.421 -0.3013  0.4513  0.0696
   82MOL   H24331185   5.802   3.022   7.298  0.9208 -0.6853 -0.2737
   82MOL   H24431186   5.772   3.197   7.274 -0.4195 -2.0431 -0.9977
   82MOL   H24531187   5.679   3.105   7.385 -0.9145  0.6135 -0.6349
   82MOL   H24631188   5.921   3.301   7.612 -1.6053  0.6232  1.2374
   82MOL   H24731189   5.846   3.350   7.470 -1.0779 -1.7740 -2.7576
   82MOL   H24831190   5.750   3.266   7.603  0.0149 -2.0703 -0.0878
   82MOL   C24931191   5.599   2.882   7.770  0.3513  0.1963 -0.0123
   82MOL   C25031192   5.568   3.009   0.022  0.5074 -0.4846  0.0494
   82MOL   O25131193   5.435   2.997   0.063 -0.2908  0.3108 -0.1452
   82MOL   C25231194   5.352   3.114   0.083 -0.1741 -0.3572 -0.0436
   82MOL   C25331195   5.204   3.060   0.051 -0.3882 -0.3909  0.3679
   82MOL   C25431196   5.170   2.960   0.158 -0.0379 -0.1688  0.2768
   82MOL   C25531197   5.173   3.000   7.740  0.8023 -0.3205 -0.1866
   82MOL   H25631198   5.575   2.796   0.008 -0.8964 -0.4327 -1.3370
   82MOL   H25731199   5.527   2.890   7.689  0.9892  0.4462 -0.5622
   82MOL   H25831200   5.568   3.093   7.777 -1.4302 -0.7765 -0.3401
   82MOL   H25931201   5.346   3.166   0.179  2.5118  1.5560 -0.8463
   82MOL   H26031202   5.368   3.192   0.008 -0.8916 -0.5956 -0.4523
   82MOL   H26131203   5.144   3.151   0.057  0.8667  0.7100 -2.4267
   82MOL   H26231204   5.081   2.901   0.135 -0.2514  0.3451 -0.2394
   82MOL   H26331205   5.151   3.008   0.254 -4.7353 -0.7433 -0.2293
   82MOL   H26431206   5.250   2.886   0.163  0.0156  0.0395  3.3888
   82MOL   H26531207   5.219   2.902   7.724  0.5340 -0.7135  1.3201
   82MOL   H26631208   5.065   2.983   7.735  0.7300  0.2655 -0.5296
   82MOL   H26731209   5.202   3.077   7.670 -2.8864 -0.0831 -1.5699
   82MOL   C26831210   5.655   3.041   0.144 -0.7101  0.3556 -1.0743
   82MOL   C26931211   5.657   2.956   0.272  0.8936  0.6060 -0.4055
   82MOL   O27031212   5.674   3.051   0.379  0.5310 -0.2507 -0.6537
   82MOL   C27131213   5.545   3.081   0.436  0.4222 -0.2921  0.2279
   82MOL   C27231214   5.564   3.207   0.529  0.1837 -0.3185  0.1569
   82MOL   C27331215   5.617   3.332   0.459  0.1455  0.5744  0.6414
   82MOL   C27431216   5.432   3.248   0.589  0.0072  0.6167 -0.0038
   82MOL   H27531217   5.613   3.135   0.180 -1.6170  0.5220 -2.5757
   82MOL   H27631218   5.754   3.078   0.114 -0.1414 -0.6019 -0.4043
   82MOL   H27731219   5.558   2.911   0.281  2.0271 -1.8997 -0.0728
   82MOL   H27831220   5.471   3.093   0.356  0.8646 -1.0777 -0.3058
   82MOL   H27931221   5.504   2.999   0.495  1.8083  0.1609  1.8428
   82MOL   H28031222   5.624   3.182   0.616 -0.2130  2.7787  1.3994
   82MOL   H28131223   5.580   3.359   0.360  0.7006 -1.9963 -0.3020
   82MOL   H28231224   5.725   3.322   0.458  0.0875  0.0140 -0.7318
   82MOL   H28331225   5.588   3.424   0.509  0.1727  1.0159 -0.1597
   82MOL   H28431226   5.357   3.290   0.522 -0.8160 -1.2762 -0.2997
   82MOL   H28531227   5.439   3.333   0.657 -0.4680 -0.2893  1.1882
   82MOL   H28631228   5.380   3.170   0.643 -0.0068  1.3741  1.0812
   82MOL   C28731229   5.771   2.853   0.271 -0.2617  0.4461  0.3682
   82MOL   C28831230   5.776   2.755   0.389 -0.2462 -0.4587  0.6477
   82MOL   O28931231   5.918   2.720   0.408  0.5532 -0.0956  0.6716
   82MOL   C29031232   5.998   2.814   0.488 -0.4456 -0.0732 -0.2519
   82MOL   C29131233   6.120   2.737   0.545 -0.2393  0.0232  0.1859
   82MOL   C29231234   6.077   2.623   0.638 -0.3273  0.1315 -0.3219
   82MOL   C29331235   6.227   2.830   0.618  0.2965  1.1864  0.2644
   82MOL   H29431236   5.859   2.918   0.273  0.0780  0.1356 -2.3365
   82MOL   H29531237   5.769   2.812   0.170  1.1532  1.2911 -0.0289
   82MOL   H29631238   5.720   2.791   0.475  2.2581  2.0403  1.3224
   82MOL   H29731239   6.029   2.900   0.429 -0.5455  0.3532  0.3179
   82MOL   H29831240   5.932   2.861   0.560 -1.3770 -2.3506  0.4441
   82MOL   H29931241   6.170   2.703   0.454 -1.7111 -0.4071 -0.4841
   82MOL   H30031242   6.162   2.577   0.689  0.9858  1.5371 -1.2046
   82MOL   H30131243   6.023   2.539   0.595 -1.0435  0.1824  0.4696
   82MOL   H30231244   6.024   2.649   0.730 -0.1398 -1.4473  0.2590
   82MOL   H30331245   6.248   2.911   0.547 -1.0385  0.7400 -0.6751
   82MOL   H30431246   6.188   2.879   0.707 -2.0582 -1.3613  0.6955
   82MOL   H30531247   6.321   2.786   0.649  1.0706  1.9759 -0.8820
   82MOL   C30631248   5.705   2.614   0.353  0.0660 -0.4833 -1.1373
   82MOL   C30731249   5.694   2.513   0.476 -0.0544  0.0591  0.2881
   82MOL   O30831250   5.608   2.575   0.564  0.0947  0.9234  0.2256
   82MOL   C30931251   5.670   2.610   0.690  0.6343 -0.6171  0.1192
   82MOL   C31031252   5.561   2.671   0.779 -0.2283  0.5324  0.3825
   82MOL   C31131253   5.445   2.568   0.798  0.1338 -0.3405 -0.5209
   82MOL   C31231254   5.508   2.805   0.724  0.3277  0.3358 -0.7721
   82MOL   H31331255   5.761   2.576   0.268 -0.9499  0.5487 -2.2879
   82MOL   H31431256   5.599   2.631   0.333 -0.2299  1.5620  1.8660
   82MOL   H31531257   5.797   2.497   0.508  0.7478  0.7597 -1.8722
   82MOL   H31631258   5.755   2.678   0.676  2.1604 -2.9150 -2.2603
   82MOL   H31731259   5.704   2.529   0.755 -0.7296  0.0596  1.7106
   82MOL   H31831260   5.619   2.690   0.869  0.7520 -0.6314  0.0151
   82MOL   H31931261   5.374   2.606   0.871  1.9624  0.2240  1.0048
   82MOL   H32031262   5.488   2.472   0.827  1.2340  1.1107  2.8655
   82MOL   H32131263   5.384   2.552   0.709  0.5566 -0.8284 -0.7274
   82MOL   H32231264   5.428   2.836   0.791  3.1739  0.0103  2.9505
   82MOL   H32331265   5.481   2.791   0.620  0.6122  0.4055 -0.8560
   82MOL   H32431266   5.599   2.866   0.722  0.9042 -0.4310  0.6558
   82MOL   C32531267   5.651   2.366   0.440 -0.3509  0.6382 -0.4016
   82MOL   C32631268   5.510   2.353   0.385  0.6699  0.6764 -0.5805
   82MOL   O32731269   5.511   2.416   0.258  0.0190  0.6859  0.4989
   82MOL   C32831270   5.391   2.419   0.186 -0.2257  0.2895  1.3530
   82MOL   C32931271   5.435   2.516   0.074  0.1801 -0.7856  0.1574
   82MOL   C33031272   5.530   2.441   7.801 -0.3551  0.2935 -0.0082
   82MOL   C33131273   5.314   2.583   7.823  0.8913 -0.3732 -0.2225
   82MOL   H33231274   5.671   2.314   0.534 -1.5105 -1.6213 -1.3487
   82MOL   H33331275   5.724   2.335   0.365  0.8202  1.5661  0.3373
   82MOL   H33431276   5.447   2.409   0.453  0.4626 -0.3266  0.0667
   82MOL   H33531277   5.350   2.321   0.162  0.2178  0.7050 -1.1905
   82MOL   H33631278   5.310   2.455   0.251  0.6891 -0.3011  2.8550
   82MOL   H33731279   5.492   2.599   0.117 -0.5349 -1.3753  2.3136
   82MOL   H33831280   5.493   2.345   7.766  1.6548  0.1467 -1.7878
   82MOL   H33931281   5.540   2.504   7.712  0.2106  0.3402  0.0848
   82MOL   H34031282   5.623   2.423   0.030 -0.1576 -0.5610 -0.6242
   82MOL   H34131283   5.364   2.652   7.755 -1.7431 -0.3247 -2.1803
   82MOL   H34231284   5.246   2.516   7.770 -0.9321  1.7819 -0.6982
   82MOL   H34331285   5.253   2.647   0.063  2.2118  0.2243  0.4591
   82MOL   C34431286   5.480   2.204   0.371  0.0482 -0.7745 -0.0103
   82MOL   C34531287   5.453   2.130   0.500  0.2848 -0.1057 -0.4849
   82MOL   O34631288   5.321   2.154   0.558  0.2512  0.0201  0.4244
   82MOL   C34731289   5.314   2.166   0.704  0.1611 -0.3649  0.0941
   82MOL   C34831290   5.167   2.207   0.739 -0.3598 -0.5044  0.6363
   82MOL   C34931291   5.058   2.117   0.675 -0.6493 -0.5257 -0.4690
   82MOL   C35031292   5.141   2.355   0.715  0.6555 -0.0816 -0.0981
   82MOL   H35131293   5.561   2.151   0.321  0.0092 -0.0420 -0.8746
   82MOL   H35231294   5.387   2.199   0.314  0.1164 -2.5383  0.0119
   82MOL   H35331295   5.522   2.154   0.581 -0.4476 -0.8209  0.3712
   82MOL   H35431296   5.394   2.227   0.743  0.3765 -0.4242 -0.2532
   82MOL   H35531297   5.329   2.066   0.747  1.0615 -0.5596 -0.6726
   82MOL   H35631298   5.167   2.186   0.846  0.7467 -0.3107  0.6803
   82MOL   H35731299   4.960   2.158   0.700 -0.1653  1.1373 -1.2668
   82MOL   H35831300   5.062   2.015   0.713  1.0798  0.6206  2.5754
   82MOL   H35931301   5.069   2.106   0.567  0.1966 -3.4140 -0.1247
   82MOL   H36031302   5.191   2.421   0.786 -1.9033  1.1529  0.6420
   82MOL   H36131303   5.161   2.376   0.610  0.2914  0.5061 -0.0513
   82MOL   H36231304   5.033   2.364   0.728  0.4403 -1.8091 -0.6599
   82MOL   C36331305   5.469   1.980   0.484  0.0509 -0.0574  0.2122
   82MOL   C36431306   5.365   1.912   0.392 -0.1950 -0.8512 -0.9362
   82MOL   O36531307   5.385   1.773   0.406  0.0678 -0.4349 -0.1478
   82MOL   C36631308   5.302   1.697   0.316  0.6579  0.3557  0.1915
   82MOL   C36731309   5.357   1.677   0.173  0.1424 -0.2060 -1.4380
   82MOL   C36831310   5.289   1.563   0.096  0.0560 -0.5380  0.4588
   82MOL   C36931311   5.514   1.658   0.155  0.0646  0.4697  0.6691
   82MOL   H37031312   5.566   1.950   0.446 -0.7585 -1.8259 -0.5128
   82MOL   H37131313   5.459   1.940   0.585  0.6138  0.6511  0.5487
   82MOL   H37231314   5.379   1.950   0.291 -1.5290  0.5920 -0.5971
   82MOL   H37331315   5.298   1.598   0.361  1.1973  1.2563  2.2800
   82MOL   H37431316   5.203   1.741   0.309  1.0587  1.0606 -1.0817
   82MOL   H37531317   5.334   1.768   0.119 -1.6104  0.4117  0.2894
   82MOL   H37631318   5.185   1.581   0.069  0.1998  0.3262  0.4531
   82MOL   H37731319   5.278   1.479   0.163  0.7894 -0.8114  0.2425
   82MOL   H37831320   5.348   1.544   0.006  0.3777  1.1959  0.2718
   82MOL   H37931321   5.542   1.573   0.218 -2.0248  1.0133  2.3928
   82MOL   H38031322   5.556   1.748   0.199 -0.9860  0.3598  1.9093
   82MOL   H38131323   5.561   1.667   0.057  0.6566 -0.1745  0.8888
   82MOL   H38231324   5.262   1.939   0.417 -0.2380 -1.6294 -0.2670
   83MOL     C131325   1.322   7.122   6.190  0.4801  0.2885  0.6276
   83MOL     C231326   1.297   7.018   6.082 -0.2800  0.3502  0.3244
   83MOL     O331327   1.218   6.928   6.159  0.1273  0.0314 -0.9527
   83MOL     C431328   1.206   6.797   6.094 -0.6996  0.6180  0.8275
   83MOL     C531329   1.160   6.695   6.203  0.1339 -0.6046 -0.4231
   83MOL     C631330   1.271   6.649   6.293  0.4099  0.2036  0.3559
   83MOL     C731331   1.094   6.572   6.142  0.1320  0.0199  0.0362
   83MOL     H831332   1.396   7.194   6.155 -0.5203  0.2497 -1.6854
   83MOL     H931333   1.239   7.187   6.219  1.2571  0.1902  3.1842
   83MOL    H1031334   1.394   6.972   6.066 -0.3956  0.5150 -0.9253
   83MOL    H1131335   1.298   6.755   6.051 -1.8597  0.4797 -1.5996
   83MOL    H1231336   1.146   6.803   6.003  0.9349  0.4555 -0.3098
   83MOL    H1331337   1.081   6.741   6.263  0.0973  0.7731 -1.4888
   83MOL    H1431338   1.306   6.733   6.353  0.0508  0.4072  0.2794
   83MOL    H1531339   1.232   6.566   6.353  2.2782 -1.8806 -1.2443
   83MOL    H1631340   1.359   6.608   6.245  0.9717  1.3700  0.3992
   83MOL    H1731341   1.026   6.515   6.206  1.5378 -0.6150  0.9927
   83MOL    H1831342   1.024   6.608   6.067 -0.6962  0.9125  1.2044
   83MOL    H1931343   1.162   6.493   6.110  1.4666  1.2590 -0.2353
   83MOL    H2031344   1.354   7.068   6.279 -2.9226 -0.7481  1.3007
   83MOL    C2131345   1.234   7.075   5.951  0.0778  0.2430 -0.4493
   83MOL    C2231346   1.320   7.154   5.854 -0.1601  0.2210  0.9376
   83MOL    O2331347   1.408   7.067   5.792 -0.6367 -0.3489 -0.1143
   83MOL    C2431348   1.541   7.120   5.779 -0.4060  0.0919  0.3195
   83MOL    C2531349   1.620   7.060   5.902  0.7345  0.1251 -0.1732
   83MOL    C2631350   1.617   6.908   5.925  0.2284  0.0542  0.0333
   83MOL    C2731351   1.763   7.115   5.917  0.1042  0.1457  0.3388
   83MOL    H2831352   1.174   7.002   5.897 -1.3199  0.2658  1.0131
   83MOL    H2931353   1.155   7.144   5.979 -0.1490 -0.2142  0.0423
   83MOL    H3031354   1.375   7.218   5.923  0.2573 -0.7558  1.5177
   83MOL    H3131355   1.550   7.228   5.775 -0.4646  0.0254 -2.8135
   83MOL    H3231356   1.569   7.072   5.685 -0.5650  1.5150 -0.4670
   83MOL    H3331357   1.554   7.101   5.979 -0.8952  3.9945 -3.4184
   83MOL    H3431358   1.684   6.887   6.008 -0.3827 -3.4026 -0.2671
   83MOL    H3531359   1.676   6.870   5.841 -0.6640 -0.5513 -0.3311
   83MOL    H3631360   1.519   6.860   5.930 -0.5687  1.5796 -0.4647
   83MOL    H3731361   1.758   7.224   5.912 -2.1134  0.2406  3.3337
   83MOL    H3831362   1.813   7.083   6.008 -1.0545  0.6080  1.1531
   83MOL    H3931363   1.824   7.082   5.833 -1.5112  0.7005 -1.0814
   83MOL    C4031364   1.241   7.242   5.752  0.1377 -0.0296 -1.2145
   83MOL    C4131365   1.147   7.170   5.656 -0.2892  0.1613 -0.4266
   83MOL    O4231366   1.150   7.243   5.530 -0.6844  0.0901  0.4919
   83MOL    C4331367   1.224   7.175   5.429  0.1665  0.4011 -0.2408
   83MOL    C4431368   1.248   7.279   5.316 -0.5261  0.3024  0.0392
   83MOL    C4531369   1.335   7.403   5.351  0.1915  0.1160 -0.9806
   83MOL    C4631370   1.310   7.211   5.193  0.3107  0.1599 -0.4326
   83MOL    H4731371   1.323   7.282   5.692  0.0055  0.5643 -1.0041
   83MOL    H4831372   1.192   7.326   5.802  0.8764  1.6820 -3.2846
   83MOL    H4931373   1.187   7.068   5.650 -1.1614 -0.2470  0.5780
   83MOL    H5031374   1.170   7.084   5.401 -0.1305  0.7212 -0.7069
   83MOL    H5131375   1.319   7.143   5.471 -0.4193 -0.6702  0.2857
   83MOL    H5231376   1.153   7.319   5.281 -2.6700 -2.1738  2.7224
   83MOL    H5331377   1.359   7.462   5.263 -0.4571 -0.7489 -1.7514
   83MOL    H5431378   1.285   7.470   5.421  0.9067  0.0396 -0.3992
   83MOL    H5531379   1.430   7.369   5.393  0.1721  1.9224  0.5816
   83MOL    H5631380   1.403   7.164   5.226 -0.4195 -0.5292  0.6911
   83MOL    H5731381   1.334   7.289   5.121  1.1623 -0.1219 -0.4609
   83MOL    H5831382   1.251   7.132   5.146  0.4869 -0.5116  0.4621
   83MOL    C5931383   0.997   7.160   5.707  0.1930  0.4520 -0.5351
   83MOL    C6031384   0.907   7.057   5.628  0.2075  0.8836 -0.2047
   83MOL    O6131385   0.773   7.078   5.680 -0.3582 -0.4104 -0.0551
   83MOL    C6231386   0.685   7.150   5.600 -0.3949 -0.3505  0.4793
   83MOL    C6331387   0.565   7.196   5.683 -1.4872  0.0172 -0.8764
   83MOL    C6431388   0.595   7.343   5.738 -0.4537  0.9571 -0.5554
   83MOL    C6531389   0.435   7.200   5.600  0.7485 -0.2433  0.2256
   83MOL    H6631390   0.963   7.263   5.708  0.1342  0.4298  0.0850
   83MOL    H6731391   0.982   7.120   5.808 -0.5590 -0.7522 -1.1074
   83MOL    H6831392   0.905   7.084   5.522 -0.6300 -0.5723 -0.5682
   83MOL    H6931393   0.734   7.229   5.542 -0.7195 -1.6858 -1.6643
   83MOL    H7031394   0.649   7.077   5.528 -0.2608  1.1822 -1.1842
   83MOL    H7131395   0.554   7.122   5.763  1.4052  0.1831 -0.2742
   83MOL    H7231396   0.623   7.411   5.658 -1.4498 -0.2471 -1.9619
   83MOL    H7331397   0.686   7.342   5.797 -0.5061  0.6491 -0.4798
   83MOL    H7431398   0.514   7.388   5.796 -1.1638 -2.5258  1.3042
   83MOL    H7531399   0.355   7.215   5.672  0.2650 -0.8083 -0.1837
   83MOL    H7631400   0.432   7.292   5.543 -0.3586 -0.4862 -0.1247
   83MOL    H7731401   0.412   7.114   5.537  0.3112 -0.0593  0.1335
   83MOL    C7831402   0.952   6.910   5.657  0.6685  0.5429 -0.1086
   83MOL    C7931403   0.873   6.823   5.560 -0.3510 -0.0021 -0.8035
   83MOL    O8031404   0.925   6.861   5.435 -0.1475  0.8396  0.4954
   83MOL    C8131405   0.838   6.825   5.327 -0.0958 -0.5562 -0.6756
   83MOL    C8231406   0.887   6.893   5.203 -0.4294 -0.6955  0.5345
   83MOL    C8331407   1.013   6.843   5.146  0.2407 -0.5559  0.2586
   83MOL    C8431408   0.889   7.046   5.233  0.2212  0.1291  0.1704
   83MOL    H8531409   0.928   6.884   5.760  0.5070  0.7502 -0.0917
   83MOL    H8631410   1.053   6.879   5.632 -1.2214 -5.9283 -0.7536
   83MOL    H8731411   0.767   6.846   5.561 -0.4048 -0.2374  0.6964
   83MOL    H8831412   0.831   6.717   5.314  0.1229 -1.1664  3.5037
   83MOL    H8931413   0.733   6.847   5.347 -0.1049 -1.0747 -0.1469
   83MOL    H9031414   0.811   6.869   5.128 -1.0969  1.8059  0.3512
   83MOL    H9131415   1.007   6.832   5.038 -0.4258 -1.5666  0.3918
   83MOL    H9231416   1.026   6.739   5.176  0.7816 -0.7249 -0.5253
   83MOL    H9331417   1.103   6.896   5.176  1.2359 -2.9029  1.5716
   83MOL    H9431418   0.791   7.080   5.267  0.5096 -0.7943  1.9668
   83MOL    H9531419   0.926   7.111   5.153 -2.1784  0.3876 -0.7989
   83MOL    H9631420   0.960   7.071   5.310 -1.1205  1.8523  0.8833
   83MOL    C9731421   0.881   6.670   5.587 -0.4688  0.2573  0.1600
   83MOL    C9831422   0.845   6.623   5.740  0.0105  1.0459 -0.1437
   83MOL    O9931423   0.860   6.481   5.749 -0.1708 -0.6000 -0.3411
   83MOL   C10031424   0.988   6.416   5.729 -0.4517  0.3703  0.5159
   83MOL   C10131425   0.959   6.270   5.766  0.6836  0.0709  0.4925
   83MOL   C10231426   0.919   6.249   5.917  0.2396  0.1202 -0.2367
   83MOL   C10331427   0.854   6.195   5.676  0.1634  0.4408 -0.5757
   83MOL   H10431428   0.981   6.633   5.563 -0.7136 -0.0635 -0.3701
   83MOL   H10531429   0.801   6.618   5.535  1.8776 -1.4448 -1.8609
   83MOL   H10631430   0.920   6.676   5.798 -1.4744  0.9954  1.8957
   83MOL   H10731431   1.060   6.455   5.800  1.8669 -2.0421 -0.4175
   83MOL   H10831432   1.030   6.426   5.629  0.3618 -0.6750  0.7365
   83MOL   H10931433   1.054   6.217   5.749  0.1370 -0.8033  0.1019
   83MOL   H11031434   0.901   6.146   5.948 -3.1338  0.3941 -1.0921
   83MOL   H11131435   0.989   6.298   5.985 -3.3202  1.2091  2.7821
   83MOL   H11231436   0.821   6.290   5.939 -1.8353 -3.9854 -1.4611
   83MOL   H11331437   0.760   6.250   5.671  0.0952  0.4586  0.6522
   83MOL   H11431438   0.891   6.194   5.574  1.3013  0.6112 -0.1756
   83MOL   H11531439   0.850   6.096   5.722 -1.9436  1.0999  0.7525
   83MOL   C11631440   0.707   6.657   5.783 -0.1647  0.6435  0.0734
   83MOL   C11731441   0.694   6.689   5.929 -0.6434  0.4155 -0.2601
   83MOL   O11831442   0.744   6.819   5.938  0.0113 -0.0661  0.0168
   83MOL   C11931443   0.774   6.863   6.069 -0.1614 -0.1735  0.1918
   83MOL   C12031444   0.831   7.006   6.056  0.1059 -0.3279 -0.1038
   83MOL   C12131445   0.731   7.104   5.992  0.2292 -0.1959  0.1878
   83MOL   C12231446   0.886   7.051   6.192  0.1711  0.1264  0.3988
   83MOL   H12331447   0.664   6.732   5.716 -1.9745 -0.7406 -0.3407
   83MOL   H12431448   0.633   6.580   5.762 -0.6996  0.2926  3.0674
   83MOL   H12531449   0.752   6.624   5.995 -1.0769  1.2749  0.9963
   83MOL   H12631450   0.850   6.793   6.104  0.1893  0.4952  0.7772
   83MOL   H12731451   0.685   6.862   6.132  0.0300 -1.2214  0.4491
   83MOL   H12831452   0.921   6.992   5.996 -0.9537  1.2637 -2.1431
   83MOL   H12931453   0.704   7.065   5.894 -0.1918  0.8809 -0.1342
   83MOL   H13031454   0.783   7.200   5.987  0.8044 -0.5277 -0.3339
   83MOL   H13131455   0.647   7.096   6.061 -1.5694 -1.4654 -2.0647
   83MOL   H13231456   0.918   7.155   6.198  0.2423  0.1481 -0.2515
   83MOL   H13331457   0.815   7.041   6.274  0.1214  1.6108  0.5387
   83MOL   H13431458   0.973   6.991   6.220  0.3706  0.3938  0.3438
   83MOL   C13531459   0.551   6.677   5.981 -0.1847  0.4496 -0.0978
   83MOL   C13631460   0.453   6.788   5.939 -0.2326  0.4955 -0.1956
   83MOL   O13731461   0.409   6.738   5.810  0.0533  0.8196 -0.3266
   83MOL   C13831462   0.374   6.842   5.724 -0.1158  0.0079  1.1124
   83MOL   C13931463   0.341   6.770   5.589  0.5325  0.2075  0.2874
   83MOL   C14031464   0.474   6.721   5.529  0.7825 -0.2426 -0.5890
   83MOL   C14131465   0.228   6.670   5.613 -0.5092 -0.0008  0.4299
   83MOL   H14231466   0.519   6.576   5.954 -0.0088  0.6909 -1.2194
   83MOL   H14331467   0.562   6.679   6.090  0.2518 -0.0426 -0.1291
   83MOL   H14431468   0.511   6.879   5.921  1.3390 -0.4879 -0.1247
   83MOL   H14531469   0.464   6.903   5.712 -0.6666  0.8058  0.9622
   83MOL   H14631470   0.287   6.895   5.765  0.5956  1.1004  1.2317
   83MOL   H14731471   0.294   6.846   5.527 -2.4873  0.0631  2.2920
   83MOL   H14831472   0.504   6.643   5.599 -1.8482  1.4894  2.5827
   83MOL   H14931473   0.541   6.806   5.514 -0.3543  0.7381 -0.2056
   83MOL   H15031474   0.454   6.683   5.429 -2.3205  1.0232 -0.5032
   83MOL   H15131475   0.257   6.579   5.664  1.3842  0.3208 -0.0104
   83MOL   H15231476   0.154   6.718   5.676  0.0787  0.7044  0.6020
   83MOL   H15331477   0.188   6.634   5.519 -0.4407 -1.9520  1.1375
   83MOL   C15431478   0.329   6.824   6.031 -0.0931 -0.4682  0.3798
   83MOL   C15531479   0.327   6.968   6.097  0.2138  0.1445  0.1943
   83MOL   O15631480   0.440   6.985   6.179  0.5592 -0.4916 -0.2620
   83MOL   C15731481   0.413   6.949   6.312  0.3284 -0.1460  0.0070
   83MOL   C15831482   0.536   6.963   6.398 -0.2854 -0.4581 -1.0084
   83MOL   C15931483   0.588   7.105   6.413  0.1285  0.1122  0.3630
   83MOL   C16031484   0.514   6.897   6.536  0.2217  0.2606 -0.1770
   83MOL   H16131485   0.327   6.750   6.111  0.2073 -0.5321  0.3285
   83MOL   H16231486   0.233   6.802   5.983  0.1929  0.9160 -0.8545
   83MOL   H16331487   0.232   6.987   6.146  0.7746  2.2901  0.4767
   83MOL   H16431488   0.390   6.843   6.301 -2.2711 -0.1475  4.3532
   83MOL   H16531489   0.326   7.005   6.346  0.3101 -0.0871 -0.1369
   83MOL   H16631490   0.616   6.909   6.347  1.5172  2.5966 -1.5701
   83MOL   H16731491   0.672   7.098   6.482  3.0691 -0.7401 -3.1096
   83MOL   H16831492   0.517   7.171   6.464  2.5621  1.7728  1.7123
   83MOL   H16931493   0.608   7.153   6.317 -0.9875  1.1257  0.6296
   83MOL   H17031494   0.487   6.791   6.537  1.4432 -0.0664 -0.6602
   83MOL   H17131495   0.606   6.906   6.594  0.2776 -0.8419 -0.0734
   83MOL   H17231496   0.433   6.953   6.582  0.0290 -1.5955  1.8495
   83MOL   C17331497   0.330   7.081   5.994 -0.0377  0.2389 -0.2311
   83MOL   C17431498   0.300   7.226   6.040 -1.1414 -0.4845  0.1163
   83MOL   O17531499   0.170   7.243   6.090 -0.0819 -0.0777  0.6329
   83MOL   C17631500   0.071   7.278   6.000 -0.0099 -0.0874 -0.4350
   83MOL   C17731501   7.785   7.338   6.088 -0.3686  0.0222  0.9028
   83MOL   C17831502   7.665   7.387   6.002 -0.5362 -1.0546  0.1152
   83MOL   C17931503   7.723   7.233   6.187 -0.4522 -0.1811 -0.0257
   83MOL   H18031504   0.426   7.097   5.944  1.3470 -1.4829  1.7759
   83MOL   H18131505   0.246   7.054   5.930  1.0307  1.2470 -2.1224
   83MOL   H18231506   0.309   7.283   5.948 -1.3265  0.4190  0.6579
   83MOL   H18331507   0.025   7.193   5.949  0.5261 -0.5422 -0.1628
   83MOL   H18431508   0.084   7.347   5.917 -3.4780  0.1985 -0.8377
   83MOL   H18531509   0.010   7.423   6.134 -2.8841  0.2282  3.3640
   83MOL   H18631510   7.633   7.312   5.929 -1.2216 -0.6957  0.0445
   83MOL   H18731511   7.578   7.416   6.061 -0.4530  1.4668 -0.9187
   83MOL   H18831512   7.675   7.480   5.947 -0.7870 -1.7036 -1.0479
   83MOL   H18931513   7.676   7.272   6.278  2.1223  3.3676 -0.0955
   83MOL   H19031514   7.805   7.178   6.232 -0.9423 -0.9634 -0.0763
   83MOL   H19131515   7.653   7.158   6.150 -0.1370  0.5199 -2.0723
   83MOL   C19231516   0.412   7.279   6.127 -0.3203  0.1355 -0.2056
   83MOL   C19331517   0.403   7.425   6.157 -0.7532 -0.1006 -0.5744
   83MOL   O19431518   0.427   7.501   6.044 -0.3590  0.0334  0.1891
   83MOL   C19531519   0.319   7.588   6.018 -0.8918  1.2553  0.2356
   83MOL   C19631520   0.326   7.636   5.872 -0.0401  0.5276  0.1884
   83MOL   C19731521   0.447   7.719   5.845  1.3528  0.5875  0.7871
   83MOL   C19831522   0.194   7.701   5.835 -0.0584 -0.0780 -0.5349
   83MOL   H19931523   0.508   7.260   6.079  0.5040  0.6311  1.2044
   83MOL   H20031524   0.402   7.219   6.217  2.1788 -0.3755 -0.2172
   83MOL   H20131525   0.310   7.455   6.206 -1.1687 -2.5185  0.1582
   83MOL   H20231526   0.306   7.668   6.091  1.0341  0.3726  1.6023
   83MOL   H20331527   0.235   7.518   6.017 -0.3228  0.5683 -1.3831
   83MOL   H20431528   0.338   7.544   5.815 -0.8782  2.9018 -4.0115
   83MOL   H20531529   0.438   7.822   5.880  1.6735  0.6740  0.6252
   83MOL   H20631530   0.533   7.672   5.892  0.7023 -0.7980  0.6108
   83MOL   H20731531   0.475   7.719   5.739  0.7487  0.3416  0.6279
   83MOL   H20831532   0.198   7.739   5.733  1.6487  0.0874 -0.4172
   83MOL   H20931533   0.106   7.636   5.841 -2.0512  2.6082  0.4470
   83MOL   H21031534   0.169   7.781   5.906  0.5083  0.5576 -1.0424
   83MOL   C21131535   0.521   7.464   6.255  0.3849  0.0598 -0.4279
   83MOL   C21231536   0.512   7.601   6.324  0.4424  0.4627 -0.9235
   83MOL   O21331537   0.385   7.599   6.392 -0.1308  0.1861  0.2710
   83MOL   C21431538   0.330   7.731   6.405  0.8339 -0.0302 -0.3261
   83MOL   C21531539   0.183   7.717   6.453 -0.2881 -0.5183  0.2578
   83MOL   C21631540   0.101   7.626   6.357 -1.0349  0.5490 -0.0443
   83MOL   C21731541   0.172   7.667   6.598 -0.2363  0.2053 -0.5500
   83MOL   H21831542   0.619   7.452   6.210  1.2249  0.7289  1.1882
   83MOL   H21931543   0.530   7.394   6.338 -1.9446  0.2430  0.0158
   83MOL   H22031544   0.519   7.672   6.242  1.1201  1.7381  0.2159
   83MOL   H22131545   0.310   7.773   6.307  1.1252  2.2047  0.5504
   83MOL   H22231546   0.392   7.789   6.473 -1.4703 -0.7215  2.5021
   83MOL   H22331547   0.139   7.817   6.458 -0.9012 -0.7766 -0.0050
   83MOL   H22431548   7.822   7.645   6.387 -0.8514  0.5077  0.6126
   83MOL   H22531549   0.117   7.647   6.251 -0.0806  0.8200  0.1564
   83MOL   H22631550   0.126   7.522   6.376 -2.1153 -0.2095 -2.4697
   83MOL   H22731551   0.074   7.668   6.646 -1.0043  1.4984 -2.1088
   83MOL   H22831552   0.242   7.716   6.665  1.1622 -3.2949  0.6478
   83MOL   H22931553   0.200   7.562   6.586 -1.6076 -0.0488 -1.7216
   83MOL   C23031554   0.627   7.626   6.415 -0.5549  0.1634 -0.1433
   83MOL   C23131555   0.754   7.672   6.351  0.6211  0.2963  0.1189
   83MOL   O23231556   0.712   7.800   6.305 -1.0356  0.3233  0.1779
   83MOL   C23331557   0.772   0.001   6.179  0.3774 -0.4709 -0.3064
   83MOL   C23431558   0.752   0.158   6.143 -0.3799 -0.7578 -0.1916
   83MOL   C23531559   0.822   0.186   6.002 -0.2075  0.3326  0.0768
   83MOL   C23631560   0.604   0.192   6.146  0.1598 -0.8627  0.3321
   83MOL   H23731561   0.651   7.544   6.482  2.4265 -0.9198 -2.3999
   83MOL   H23831562   0.592   7.709   6.476  0.9603  1.3163 -0.8289
   83MOL   H23931563   0.771   7.593   6.278  0.1839 -1.0333  1.4245
   83MOL   H24031564   0.873   7.788   6.172 -0.3388 -2.6563  0.7839
   83MOL   H24131565   0.725   7.767   6.099 -2.6913  2.6154 -0.9062
   83MOL   H24231566   0.804   0.208   6.224 -1.6250  0.8311 -0.3554
   83MOL   H24331567   0.787   0.114   5.927  0.1520  0.1093  0.1213
   83MOL   H24431568   0.929   0.181   6.020 -0.3741 -1.0159  0.8258
   83MOL   H24531569   0.785   0.281   5.965 -0.6946 -0.8094 -2.5121
   83MOL   H24631570   0.549   0.178   6.239 -0.1856  0.0864  0.2791
   83MOL   H24731571   0.594   0.298   6.124  1.5280 -0.1670  2.8346
   83MOL   H24831572   0.564   0.123   6.072 -0.0666  0.1255 -0.4845
   83MOL   C24931573   0.880   7.687   6.433  0.1263 -0.6538 -0.4060
   83MOL   C25031574   0.958   7.554   6.439  0.0680  0.4187  0.1661
   83MOL   O25131575   1.001   7.531   6.305 -0.5263  0.4284 -0.3085
   83MOL   C25231576   0.984   7.403   6.254  0.5751  0.5341  0.4881
   83MOL   C25331577   1.044   7.410   6.108  0.0065 -0.3987 -0.0018
   83MOL   C25431578   1.190   7.457   6.087 -0.3867  0.1211 -0.7285
   83MOL   C25531579   0.953   7.493   6.018  0.3437 -0.3995 -0.0474
   83MOL   H25631580   0.851   7.730   6.528  0.5287  0.3368 -0.7331
   83MOL   H25731581   0.934   7.765   6.380  1.1254 -1.7033 -0.9665
   83MOL   H25831582   0.895   7.476   6.483  0.6702  1.3867  2.8353
   83MOL   H25931583   1.045   7.327   6.303  0.5080  0.3675  0.3163
   83MOL   H26031584   0.883   7.363   6.267 -0.4068  2.3395 -1.3212
   83MOL   H26131585   1.039   7.305   6.081 -1.5355 -0.0405 -1.1294
   83MOL   H26231586   1.237   7.438   6.183 -0.7169 -0.5922 -0.7027
   83MOL   H26331587   1.190   7.566   6.078  0.0299  0.0436 -1.7049
   83MOL   H26431588   1.248   7.406   6.011 -0.4898  0.8939 -1.3390
   83MOL   H26531589   0.991   7.496   5.916 -0.5612 -1.6161 -0.4370
   83MOL   H26631590   0.862   7.435   6.003  1.3660 -1.5999 -1.8118
   83MOL   H26731591   0.946   7.599   6.042 -0.6150  0.0913 -2.3583
   83MOL   C26831592   1.086   7.569   6.527 -0.3056  0.4177 -0.3326
   83MOL   C26931593   1.160   7.436   6.561 -0.1726  0.9373  1.0517
   83MOL   O27031594   1.064   7.327   6.571 -0.2037  0.7841 -0.0493
   83MOL   C27131595   1.116   7.196   6.544  0.4175 -0.2148 -0.0226
   83MOL   C27231596   1.005   7.097   6.530 -0.3208 -0.2848 -0.2298
   83MOL   C27331597   1.050   6.956   6.490 -0.8117  0.2260  0.2912
   83MOL   C27431598   0.907   7.101   6.648 -0.3851 -0.4555  0.0960
   83MOL   H27531599   1.055   7.608   6.624  2.3636  0.2343  0.6286
   83MOL   H27631600   1.146   7.648   6.480  2.1877  0.7472  3.2794
   83MOL   H27731601   1.201   7.417   6.462 -1.2825 -0.9122  0.9101
   83MOL   H27831602   1.183   7.196   6.458 -0.9199 -1.3368 -1.0719
   83MOL   H27931603   1.185   7.168   6.625 -1.4038 -1.4761  1.1217
   83MOL   H28031604   0.949   7.137   6.446 -1.2914  0.5103  0.7761
   83MOL   H28131605   1.104   6.954   6.395 -0.3912 -1.6358  0.5561
   83MOL   H28231606   0.970   6.886   6.469  0.7195 -0.8327 -2.2925
   83MOL   H28331607   1.115   6.908   6.563 -0.7888  0.9616  0.7668
   83MOL   H28431608   0.946   7.053   6.738  0.5074 -1.1534 -0.6508
   83MOL   H28531609   0.818   7.043   6.622 -0.4263  0.2761 -1.4419
   83MOL   H28631610   0.884   7.205   6.670 -1.6370 -0.4863 -0.9724
   83MOL   C28731611   1.259   7.435   6.671 -0.3681 -0.0659 -0.1401
   83MOL   C28831612   1.372   7.539   6.659 -0.0433  0.0916 -0.2162
   83MOL   O28931613   1.433   7.490   6.552  0.3325 -0.5913 -0.2387
   83MOL   C29031614   1.500   7.583   6.463  0.3935 -0.4005 -0.0132
   83MOL   C29131615   1.510   7.503   6.329  0.1003 -0.2723  0.1064
   83MOL   C29231616   1.616   7.402   6.359  0.1570  0.3350  0.0931
   83MOL   C29331617   1.546   7.592   6.210 -0.1039  0.5732 -0.2125
   83MOL   H29431618   1.299   7.336   6.693 -0.0618  0.2348  0.6757
   83MOL   H29531619   1.203   7.449   6.764 -0.4505 -2.2753  0.1764
   83MOL   H29631620   1.321   7.633   6.638  0.2053  0.3437  0.2957
   83MOL   H29731621   1.427   7.662   6.450  2.2500  1.5653  1.1508
   83MOL   H29831622   1.593   7.627   6.499  0.4947  1.3067 -2.2626
   83MOL   H29931623   1.421   7.448   6.298  0.6156 -0.9937 -0.0773
   83MOL   H30031624   1.589   7.320   6.425  0.1364 -0.4051 -0.8194
   83MOL   H30131625   1.711   7.442   6.395  2.0273 -1.3796 -2.6766
   83MOL   H30231626   1.645   7.352   6.266  1.9212  2.2192 -0.3982
   83MOL   H30331627   1.640   7.647   6.217 -0.1231  0.2700  3.0727
   83MOL   H30431628   1.548   7.529   6.121  0.9075 -1.2250  1.0554
   83MOL   H30531629   1.465   7.664   6.195 -2.1449 -1.3703  1.0856
   83MOL   C30631630   1.464   7.562   6.781  0.2634 -0.4499 -0.9942
   83MOL   C30731631   1.537   7.691   6.784 -0.6534 -0.0762  0.9057
   83MOL   O30831632   1.446   7.797   6.789 -0.0806  0.0603  0.4675
   83MOL   C30931633   1.473   0.078   6.692 -0.0188  0.1493  0.1167
   83MOL   C31031634   1.360   0.178   6.707  0.1804  0.1774 -0.2736
   83MOL   C31131635   1.218   0.122   6.677 -0.3254  0.1069 -0.8733
   83MOL   C31231636   1.389   0.296   6.612 -0.3573 -0.2925  0.2832
   83MOL   H31331637   1.539   7.483   6.785 -0.2750 -0.9315 -0.3585
   83MOL   H31431638   1.400   7.554   6.869  0.4734 -0.2358 -0.8202
   83MOL   H31531639   1.602   7.697   6.697 -1.5449  1.0380  0.3117
   83MOL   H31631640   1.471   0.039   6.590 -0.2733 -0.8159  0.4866
   83MOL   H31731641   1.569   0.118   6.725 -0.7592  2.0076  0.0482
   83MOL   H31831642   1.372   0.213   6.809 -2.2161 -0.8694  0.4035
   83MOL   H31931643   1.220   0.064   6.584  0.8358 -0.9340 -0.2096
   83MOL   H32031644   1.153   0.209   6.664 -2.5213 -1.4434 -0.4266
   83MOL   H32131645   1.188   0.064   6.764 -0.6894  0.0375 -1.0414
   83MOL   H32231646   1.485   0.337   6.642 -1.7376  1.9729  1.7733
   83MOL   H32331647   1.325   0.381   6.634  0.3954  0.3485  0.0404
   83MOL   H32431648   1.388   0.270   6.506  0.3922  1.7127 -0.2427
   83MOL   C32531649   1.627   7.708   6.909 -0.4003 -0.4424 -0.3571
   83MOL   C32631650   1.739   7.606   6.929  1.0119  0.3678  0.1086
   83MOL   O32731651   1.821   7.600   6.813  0.3315 -0.1174  0.1377
   83MOL   C32831652   1.910   7.708   6.778  0.3456  0.3663 -1.3643
   83MOL   C32931653   2.015   7.660   6.684  0.3196  0.5300  0.3182
   83MOL   C33031654   1.966   7.617   6.543 -0.4100 -0.2492 -0.2730
   83MOL   C33131655   2.119   7.774   6.673 -0.3567 -0.1209 -0.2972
   83MOL   H33231656   1.569   7.720   7.001  0.2660 -0.0648  0.0204
   83MOL   H33331657   1.674   7.806   6.894 -0.4776 -0.1124  1.3745
   83MOL   H33431658   1.689   7.514   6.955  0.8813  1.6683  5.0096
   83MOL   H33531659   1.861   7.796   6.735  2.6175  1.7212 -1.2315
   83MOL   H33631660   1.970   7.741   6.862 -1.8925  0.5722  0.2005
   83MOL   H33731661   2.069   7.574   6.724 -0.7032  0.0592  0.7011
   83MOL   H33831662   1.877   7.553   6.550 -1.1854  0.7509 -0.8454
   83MOL   H33931663   1.922   7.701   6.489 -0.3046 -0.0110  0.0170
   83MOL   H34031664   2.047   7.570   6.487  0.9596 -1.4347  2.6155
   83MOL   H34131665   2.075   0.034   6.621  0.3796  0.5265  0.1163
   83MOL   H34231666   2.150   7.805   6.773  1.5039  0.4337 -1.0149
   83MOL   H34331667   2.218   7.755   6.631  0.0432 -0.2260  0.7019
   83MOL   C34431668   1.824   7.650   7.059  0.1217 -0.4889  0.5666
   83MOL   C34531669   1.924   7.540   7.112 -0.0930  0.1077  0.4652
   83MOL   O34631670   2.019   7.604   7.198  0.1021  0.3291  0.3640
   83MOL   C34731671   2.131   7.663   7.126 -0.0893  0.5220  0.4504
   83MOL   C34831672   2.215   7.750   7.220 -0.2690 -0.2399 -0.9301
   83MOL   C34931673   2.293   7.674   7.327  0.2800  0.2099 -0.5724
   83MOL   C35031674   2.124   0.022   7.299  0.2834 -0.2999  1.1285
   83MOL   H35131675   1.757   7.671   7.143  1.1209  1.3819  0.9349
   83MOL   H35231676   1.869   7.749   7.049 -1.7427  0.3421  0.0821
   83MOL   H35331677   1.990   7.492   7.040  1.9090  1.7454  1.1731
   83MOL   H35431678   2.097   7.725   7.043 -2.0590  0.8973  1.5021
   83MOL   H35531679   2.191   7.580   7.087 -0.1259  1.1725 -1.0437
   83MOL   H35631680   2.280   7.812   7.159  0.4726 -1.5269 -1.4620
   83MOL   H35731681   2.381   7.724   7.366 -1.3381  1.6058  1.3456
   83MOL   H35831682   2.329   7.576   7.293 -0.1971 -0.3751  0.5796
   83MOL   H35931683   2.222   7.645   7.405  0.3925 -0.3733 -0.6841
   83MOL   H36031684   2.086   0.097   7.231  0.4438 -1.0735  0.1808
   83MOL   H36131685   2.040   7.788   7.335 -0.1860  0.2477  0.9303
   83MOL   H36231686   2.170   0.061   7.390 -3.0294 -3.6410  4.4361
   83MOL   C36331687   1.848   7.427   7.180 -0.1886 -0.5778 -0.6123
   83MOL   C36431688   1.939   7.344   7.269  0.5376  0.5398 -0.3120
   83MOL   O36531689   1.862   7.247   7.335 -0.6624 -0.4796 -0.4518
   83MOL   C36631690   1.949   7.158   7.404 -0.6061  0.5178 -0.1078
   83MOL   C36731691   1.874   7.083   7.514 -0.7262  0.1386 -0.1734
   83MOL   C36831692   1.966   6.994   7.603  0.1631  0.0649 -0.2938
   83MOL   C36931693   1.744   7.010   7.466 -0.6214  0.5561 -1.0832
   83MOL   H37031694   1.771   7.471   7.243  2.2028 -0.1419  2.0818
   83MOL   H37131695   1.801   7.369   7.100  1.4048  0.1969 -2.1275
   83MOL   H37231696   1.966   7.406   7.354 -0.6876  0.8836 -0.1528
   83MOL   H37331697   1.995   7.087   7.336 -2.4319 -0.8697  0.0674
   83MOL   H37431698   2.029   7.216   7.449 -0.8871  0.3006  0.6898
   83MOL   H37531699   1.847   7.159   7.587 -0.6488 -0.6923  0.7399
   83MOL   H37631700   1.992   6.905   7.546  1.3533  0.2549 -0.0505
   83MOL   H37731701   1.921   6.968   7.699 -0.5817  1.5666 -0.2170
   83MOL   H37831702   2.058   7.050   7.618  1.7799 -2.5447 -0.1420
   83MOL   H37931703   1.723   7.023   7.360 -0.3031  1.1166 -1.0851
   83MOL   H38031704   1.667   7.073   7.512 -0.4391  0.2433 -0.3341
   83MOL   H38131705   1.739   6.906   7.498  4.1065  0.8904  1.0991
   83MOL   H38231706   2.030   7.328   7.212 -0.2411 -0.9906 -1.1663
   84MOL     C131707   0.965   4.932   5.221  0.0683 -0.8550 -0.6024
   84MOL     C231708   0.816   4.934   5.168 -0.2114 -0.1502 -0.5622
   84MOL     O331709   0.724   4.971   5.263  0.1057 -0.4426  0.3727
   84MOL     C431710   0.681   4.872   5.355  0.5795 -0.1608  0.1626
   84MOL     C531711   0.581   4.931   5.459  0.7122 -0.7666 -0.1494
   84MOL     C631712   0.456   4.991   5.392  0.1690 -0.0829  0.0362
   84MOL     C731713   0.652   5.033   5.556  0.1517 -0.2847  0.1932
   84MOL     H831714   0.999   5.032   5.248 -0.7788 -0.1192 -2.2185
   84MOL     H931715   0.973   4.870   5.310  0.5632  0.7795  0.5077
   84MOL    H1031716   0.789   4.835   5.133 -0.1594  0.0768 -1.2607
   84MOL    H1131717   0.764   4.826   5.408  2.0420  1.2309 -0.8997
   84MOL    H1231718   0.627   4.790   5.309 -1.2083  0.2872  1.3926
   84MOL    H1331719   0.537   4.857   5.525 -1.3035 -0.1123 -0.7282
   84MOL    H1431720   0.493   5.082   5.345 -0.4341  0.3438  0.3808
   84MOL    H1531721   0.407   4.928   5.318 -3.6709  0.2486  2.2013
   84MOL    H1631722   0.373   5.017   5.458 -0.1977 -0.0813 -0.4210
   84MOL    H1731723   0.742   4.985   5.594 -0.3661 -0.3584  1.3261
   84MOL    H1831724   0.685   5.124   5.505 -0.7022  0.3330  0.7170
   84MOL    H1931725   0.584   5.061   5.636  1.9806 -1.1246  2.0708
   84MOL    H2031726   1.038   4.884   5.156  1.1665 -1.0235  0.7459
   84MOL    C2131727   0.812   5.022   5.044 -0.6570 -0.3043  0.2618
   84MOL    C2231728   0.679   5.042   4.972  0.4915  0.6803  0.5004
   84MOL    O2331729   0.709   5.089   4.841 -0.3911 -0.4009 -0.2756
   84MOL    C2431730   0.691   5.226   4.819  0.3743  0.2783 -0.3151
   84MOL    C2531731   0.736   5.240   4.674  0.1436 -0.4635  0.4056
   84MOL    C2631732   0.674   5.154   4.569  0.1941  0.3094 -0.1592
   84MOL    C2731733   0.724   5.388   4.639 -0.3402  0.8692 -0.2604
   84MOL    H2831734   0.858   5.116   5.077  1.0389 -0.7289 -0.8261
   84MOL    H2931735   0.877   4.977   4.969 -1.4459 -0.1449 -0.5235
   84MOL    H3031736   0.630   5.122   5.027  2.3449  3.7822 -2.1602
   84MOL    H3131737   0.761   5.280   4.882  0.7700  1.3027 -1.6089
   84MOL    H3231738   0.593   5.270   4.836  0.1342  1.0423 -3.2664
   84MOL    H3331739   0.842   5.217   4.674  0.8620  2.5878  0.4128
   84MOL    H3431740   0.566   5.167   4.572  0.4139  2.7736 -1.4534
   84MOL    H3531741   0.691   5.046   4.571  1.3654  0.4815 -0.5645
   84MOL    H3631742   0.708   5.185   4.470 -0.6590  2.4006  0.1758
   84MOL    H3731743   0.757   5.458   4.715 -0.0921  1.2263 -0.6956
   84MOL    H3831744   0.773   5.411   4.544  2.8981  0.7262  1.3272
   84MOL    H3931745   0.622   5.422   4.616 -0.2072  0.9428 -0.7471
   84MOL    C4031746   0.581   4.926   4.958 -0.2286 -0.3763  0.2049
   84MOL    C4131747   0.457   4.951   4.871  0.7155 -0.3225 -0.3459
   84MOL    O4231748   0.386   5.065   4.917 -0.9372  0.1960 -0.6884
   84MOL    C4331749   0.321   5.136   4.813 -0.4595 -0.1369  0.4750
   84MOL    C4431750   0.211   5.227   4.871 -0.2779 -0.3098 -0.3505
   84MOL    C4531751   0.124   5.144   4.959 -0.2080  0.1053  0.1240
   84MOL    C4631752   0.261   5.359   4.940  0.4675  0.2551  0.2262
   84MOL    H4731753   0.548   4.904   5.060  0.6048 -1.2503  0.2921
   84MOL    H4831754   0.626   4.830   4.934 -0.1732 -0.4260  0.4976
   84MOL    H4931755   0.484   4.971   4.767  2.1052  1.0045  0.2687
   84MOL    H5031756   0.274   5.076   4.735  0.5269 -1.6111  1.0032
   84MOL    H5131757   0.391   5.202   4.761 -0.2894 -1.5021 -1.0949
   84MOL    H5231758   0.153   5.267   4.788  1.0130  0.0712 -1.0906
   84MOL    H5331759   0.052   5.208   5.009 -2.3538 -1.2611 -1.1500
   84MOL    H5431760   0.072   5.059   4.916 -1.5915  1.3798 -0.7562
   84MOL    H5531761   0.177   5.112   5.049 -3.0348 -0.3721  1.6778
   84MOL    H5631762   0.172   5.411   4.977  0.4463  0.9441 -0.7589
   84MOL    H5731763   0.320   5.422   4.874  1.0889  1.6625  2.0760
   84MOL    H5831764   0.337   5.325   5.010  0.6720  2.2846  1.0346
   84MOL    C5931765   0.358   4.827   4.872  0.4794  0.2529 -0.2686
   84MOL    C6031766   0.358   4.739   4.750  0.8589  0.5767  0.1754
   84MOL    O6131767   0.248   4.659   4.738 -0.1318  0.3500 -0.3327
   84MOL    C6231768   0.122   4.717   4.714  0.0832 -0.3704 -0.1466
   84MOL    C6331769   0.030   4.599   4.702  0.1998  0.1441 -0.3041
   84MOL    C6431770   0.071   4.496   4.593 -0.8435 -0.5424 -0.7119
   84MOL    C6531771   7.814   4.537   4.841  0.0200  0.2895  0.1171
   84MOL    H6631772   0.263   4.880   4.879 -0.8191 -2.1133  0.6950
   84MOL    H6731773   0.361   4.772   4.966 -2.6768  2.1491  1.0330
   84MOL    H6831774   0.358   4.814   4.671  0.9028 -1.2201 -1.5685
   84MOL    H6931775   0.090   4.775   4.800  1.0819  0.7423 -0.5186
   84MOL    H7031776   0.123   4.788   4.632 -2.7834 -0.2075 -0.0956
   84MOL    H7131777   7.760   4.644   4.672 -0.6248 -2.2850 -1.5655
   84MOL    H7231778   0.004   4.411   4.583 -0.5434 -0.5899 -2.4332
   84MOL    H7331779   0.169   4.456   4.622 -0.3347  0.5988 -0.8179
   84MOL    H7431780   0.081   4.532   4.491 -0.8266 -0.9619 -0.8592
   84MOL    H7531781   0.076   4.488   4.884 -0.6822 -0.6006  0.5284
   84MOL    H7631782   7.801   4.619   4.911 -1.7328 -0.5783  0.8592
   84MOL    H7731783   7.725   4.475   4.827  0.5865 -0.2501 -1.1691
   84MOL    C7831784   0.479   4.644   4.745 -0.7163  0.4170  0.3599
   84MOL    C7931785   0.490   4.571   4.613  0.2671  0.0669 -0.2222
   84MOL    O8031786   0.527   4.672   4.521  0.6829 -0.7089  0.2616
   84MOL    C8131787   0.474   4.652   4.395 -0.4429 -0.6768 -0.9410
   84MOL    C8231788   0.507   4.780   4.304 -0.4955 -0.0777  0.2609
   84MOL    C8331789   0.652   4.797   4.284 -0.3490  0.1623  0.1110
   84MOL    C8431790   0.430   4.906   4.354  0.7784  0.3012 -0.4524
   84MOL    H8531791   0.474   4.563   4.817  3.3919  0.7562  1.1574
   84MOL    H8631792   0.578   4.687   4.761  0.6400 -1.1194 -3.3825
   84MOL    H8731793   0.390   4.531   4.598  1.0740 -1.8678 -0.6229
   84MOL    H8831794   0.533   4.572   4.351  0.0130 -0.5098 -0.6479
   84MOL    H8931795   0.369   4.626   4.387 -0.4388 -1.2298  0.6346
   84MOL    H9031796   0.470   4.766   4.203  1.6538 -2.0207 -0.3141
   84MOL    H9131797   0.695   4.835   4.377 -0.0218  0.6042 -0.2178
   84MOL    H9231798   0.669   4.863   4.199  1.1071 -0.9991 -0.5151
   84MOL    H9331799   0.689   4.696   4.263  0.6243 -0.1231  2.9757
   84MOL    H9431800   0.324   4.892   4.332  1.4091 -4.1673 -1.0210
   84MOL    H9531801   0.462   4.990   4.292 -0.6470  1.9204  0.9331
   84MOL    H9631802   0.440   4.939   4.457 -2.2753  0.1018 -0.0583
   84MOL    C9731803   0.588   4.452   4.627  0.9928  0.9351  0.1135
   84MOL    C9831804   0.733   4.487   4.676  0.7399  0.7911 -0.1669
   84MOL    O9931805   0.745   4.511   4.814  0.0465  0.4440 -0.2030
   84MOL   C10031806   0.750   4.406   4.900  0.5226  0.2371 -0.5712
   84MOL   C10131807   0.748   4.458   5.044  0.1963 -0.4748  0.1421
   84MOL   C10231808   0.876   4.539   5.068  0.3314 -0.3327  0.5129
   84MOL   C10331809   0.622   4.539   5.062 -0.1933 -0.9677 -0.0593
   84MOL   H10431810   0.593   4.390   4.537  1.6113 -1.3967  1.7417
   84MOL   H10531811   0.548   4.374   4.691  0.5587  1.1093  0.0596
   84MOL   H10631812   0.795   4.402   4.650 -0.9891 -0.4264 -0.3763
   84MOL   H10731813   0.837   4.346   4.872 -0.8045 -1.3631 -1.3137
   84MOL   H10831814   0.671   4.333   4.889  0.1663  0.7070 -1.2125
   84MOL   H10931815   0.747   4.371   5.109 -1.1584  0.5196  1.4988
   84MOL   H11031816   0.864   4.631   5.010 -0.3350 -1.4572 -1.1486
   84MOL   H11131817   0.903   4.554   5.173  0.5290 -1.0450  0.5616
   84MOL   H11231818   0.965   4.490   5.029 -0.6255  0.3060 -2.5862
   84MOL   H11331819   0.622   4.619   4.988 -0.7601 -0.0350  0.9342
   84MOL   H11431820   0.530   4.484   5.040  0.3920 -2.0168  0.0753
   84MOL   H11531821   0.611   4.588   5.159  0.2382  0.1136 -0.5487
   84MOL   C11631822   0.794   4.609   4.599  0.1504  0.4884 -0.1585
   84MOL   C11731823   0.945   4.644   4.635  0.0777 -0.3406 -0.6603
   84MOL   O11831824   1.018   4.661   4.508 -0.0594 -0.0531 -0.0241
   84MOL   C11931825   1.089   4.550   4.467  0.3355  0.4997 -0.0995
   84MOL   C12031826   1.159   4.569   4.335 -0.9496  0.1593  0.2248
   84MOL   C12131827   1.086   4.665   4.240 -0.0931 -1.1086 -0.1899
   84MOL   C12231828   1.300   4.613   4.365 -0.3246  0.3433  0.3080
   84MOL   H12331829   0.794   4.589   4.492  1.2672 -0.7935  0.0622
   84MOL   H12431830   0.722   4.690   4.611 -0.0292  0.0785  1.6528
   84MOL   H12531831   0.985   4.553   4.679 -0.6765 -0.5613 -0.4229
   84MOL   H12631832   1.019   4.467   4.461 -0.4422  1.3296 -3.3631
   84MOL   H12731833   1.159   4.516   4.544  1.2167 -0.7666 -1.4273
   84MOL   H12831834   1.166   4.476   4.280 -0.7413 -0.1056  0.6975
   84MOL   H12931835   1.136   4.682   4.145  0.2911 -0.6687  0.0922
   84MOL   H13031836   1.084   4.764   4.285  0.3651 -1.1548 -0.0649
   84MOL   H13131837   0.981   4.638   4.233 -0.1466 -0.8756 -0.3061
   84MOL   H13231838   1.342   4.615   4.265 -2.7899 -0.4249 -0.7724
   84MOL   H13331839   1.305   4.706   4.422  2.4411  0.5213 -0.1161
   84MOL   H13431840   1.354   4.533   4.418 -0.0222 -0.0780 -0.6299
   84MOL   C13531841   0.965   4.770   4.727 -0.5092 -0.3001 -0.4011
   84MOL   C13631842   1.107   4.800   4.775 -0.2856 -0.4648 -0.2043
   84MOL   O13731843   1.124   4.912   4.852 -0.0167  0.0689 -0.3611
   84MOL   C13831844   1.121   5.031   4.773  0.4563  0.6306 -0.6680
   84MOL   C13931845   1.195   5.150   4.833 -0.1316  0.5244 -0.3286
   84MOL   C14031846   1.109   5.206   4.949 -0.1234  0.3159  0.6507
   84MOL   C14131847   1.330   5.117   4.876 -0.8540 -0.2489  0.7223
   84MOL   H14231848   0.936   4.855   4.666 -0.6786  0.7846  1.1544
   84MOL   H14331849   0.890   4.768   4.806  1.1586  0.5021  1.2629
   84MOL   H14431850   1.175   4.795   4.690 -1.3506  0.4238 -1.1423
   84MOL   H14531851   1.018   5.061   4.754 -0.5607 -2.6902 -0.7336
   84MOL   H14631852   1.166   5.003   4.677  0.8492 -1.2251  0.0337
   84MOL   H14731853   1.191   5.236   4.766 -0.6210  0.5878 -0.2179
   84MOL   H14831854   1.017   5.239   4.900  0.5096 -0.1232 -0.8710
   84MOL   H14931855   1.151   5.294   4.998  0.6031 -0.2639  1.0680
   84MOL   H15031856   1.086   5.118   5.009 -0.5380  1.8934  2.8702
   84MOL   H15131857   1.374   5.201   4.929  2.2573 -0.8984 -0.6742
   84MOL   H15231858   1.328   5.029   4.941  0.1818 -1.2630 -0.5764
   84MOL   H15331859   1.391   5.095   4.788 -1.5799 -0.7984  0.3556
   84MOL   C15431860   1.160   4.682   4.858  0.1201  0.1406  0.2745
   84MOL   C15531861   1.309   4.692   4.901 -0.0838 -0.0366 -0.9126
   84MOL   O15631862   1.328   4.603   5.010 -0.5976  0.2129  0.2212
   84MOL   C15731863   1.313   4.676   5.132  0.5697 -0.0664 -0.3674
   84MOL   C15831864   1.368   4.580   5.236 -0.3525 -0.2916  0.0186
   84MOL   C15931865   1.514   4.546   5.218 -0.3881 -0.0962  0.3343
   84MOL   C16031866   1.325   4.634   5.373 -0.5587  0.2759  0.4410
   84MOL   H16131867   1.157   4.591   4.799  0.0183  0.1722  0.2314
   84MOL   H16231868   1.095   4.678   4.946 -1.9635  1.4781 -1.1573
   84MOL   H16331869   1.324   4.796   4.928 -1.4595 -0.0662 -0.0092
   84MOL   H16431870   1.210   4.709   5.149  0.4067 -0.9429  0.3864
   84MOL   H16531871   1.374   4.765   5.144  1.8582 -1.2651  2.1539
   84MOL   H16631872   1.313   4.488   5.214 -1.0528 -0.1289  1.0589
   84MOL   H16731873   1.524   4.519   5.113 -0.1925 -0.2186  0.3837
   84MOL   H16831874   1.536   4.461   5.283 -1.4322 -1.6949 -1.3474
   84MOL   H16931875   1.577   4.633   5.240 -2.1344  0.9449  1.2779
   84MOL   H17031876   1.366   4.585   5.462 -0.2758 -3.0901 -1.4737
   84MOL   H17131877   1.355   4.738   5.391 -0.0679 -0.0040  1.2775
   84MOL   H17231878   1.217   4.624   5.369 -0.5843  0.8780 -0.5653
   84MOL   C17331879   1.412   4.656   4.781  0.5295  0.0955 -0.3295
   84MOL   C17431880   1.553   4.688   4.830 -0.4521 -0.9219 -0.1703
   84MOL   O17531881   1.643   4.634   4.730  0.7679  0.3658  0.7576
   84MOL   C17631882   1.665   4.492   4.748  0.2577 -0.0263  0.0804
   84MOL   C17731883   1.778   4.428   4.661 -0.0817 -0.1125  0.1938
   84MOL   C17831884   1.752   4.448   4.510 -0.9743 -0.3327  0.0854
   84MOL   C17931885   1.923   4.476   4.711  0.6524 -0.2146  0.3308
   84MOL   H18031886   1.397   4.548   4.774 -0.8400  0.1356  1.6220
   84MOL   H18131887   1.390   4.702   4.685 -0.9801  0.7562  0.3182
   84MOL   H18231888   1.573   4.644   4.928 -1.1517  1.6785  1.1853
   84MOL   H18331889   1.572   4.449   4.710  0.9037 -1.6135  0.2725
   84MOL   H18431890   1.670   4.468   4.854  2.8580 -1.8858 -0.4110
   84MOL   H18531891   1.789   4.323   4.687 -1.1753 -0.7388 -1.7988
   84MOL   H18631892   1.819   4.392   4.445 -1.1450  0.0833 -0.4566
   84MOL   H18731893   1.648   4.430   4.481 -1.7879  3.9011 -0.0033
   84MOL   H18831894   1.777   4.550   4.479  0.7249 -0.7378  0.0818
   84MOL   H18931895   1.950   4.577   4.678  0.7642 -0.1937  0.4863
   84MOL   H19031896   2.009   4.424   4.668  0.7627 -0.5745  0.9860
   84MOL   H19131897   1.927   4.461   4.818 -0.8747 -0.3184  0.3777
   84MOL   C19231898   1.584   4.841   4.832  0.1427 -0.2119 -0.8398
   84MOL   C19331899   1.722   4.891   4.872  0.5337 -0.3487 -0.3122
   84MOL   O19431900   1.771   4.829   4.986 -0.1860 -0.5595  0.2221
   84MOL   C19531901   1.886   4.751   4.951 -0.3136 -0.4008  0.2940
   84MOL   C19631902   1.954   4.714   5.082 -0.7362  1.4648 -0.4221
   84MOL   C19731903   2.033   4.837   5.135  0.3262  0.2333 -0.4733
   84MOL   C19831904   2.051   4.602   5.051  0.2185  0.9580 -0.1381
   84MOL   H19931905   1.520   4.872   4.915 -0.0482 -2.0924 -0.2667
   84MOL   H20031906   1.535   4.883   4.744  1.3391  1.1710 -0.8515
   84MOL   H20131907   1.786   4.882   4.784  2.5740  1.2351  0.9593
   84MOL   H20231908   1.957   4.800   4.885 -1.0820 -1.0624 -1.0558
   84MOL   H20331909   1.852   4.662   4.898 -1.3567  0.1336  0.0443
   84MOL   H20431910   1.878   4.688   5.155 -0.7047 -0.3921 -1.0030
   84MOL   H20531911   1.971   4.926   5.141  0.6179  0.3753  0.6620
   84MOL   H20631912   2.052   4.820   5.241 -1.4920 -0.7674 -0.2880
   84MOL   H20731913   2.128   4.860   5.085  1.6945 -2.0806  0.9561
   84MOL   H20831914   2.002   4.505   5.054  0.6292  0.7380 -0.6254
   84MOL   H20931915   2.085   4.599   4.947  0.5614  1.4532 -0.0414
   84MOL   H21031916   2.138   4.589   5.115 -1.2212 -1.1567  1.4610
   84MOL   C21131917   1.717   5.048   4.898  0.2447  0.4374 -0.1967
   84MOL   C21231918   1.737   5.135   4.767 -0.0540  0.9370 -0.7387
   84MOL   O21331919   1.623   5.100   4.689  0.0022 -0.0059  0.4531
   84MOL   C21431920   1.660   5.059   4.560 -0.3445 -0.5985  0.4715
   84MOL   C21531921   1.545   5.053   4.463  0.0428 -0.0854 -0.3018
   84MOL   C21631922   1.438   4.946   4.501  0.4676 -0.5644 -0.1626
   84MOL   C21731923   1.470   5.185   4.433  0.3008  0.4086 -0.3540
   84MOL   H21831924   1.787   5.076   4.976 -2.9061 -1.2139  3.3880
   84MOL   H21931925   1.624   5.084   4.942 -0.3996 -0.0873 -1.0960
   84MOL   H22031926   1.835   5.114   4.724  0.4960  0.7680  0.5731
   84MOL   H22131927   1.714   4.964   4.564  0.2366 -0.2938  0.0396
   84MOL   H22231928   1.726   5.137   4.523  0.7319 -2.2042 -1.0721
   84MOL   H22331929   1.602   5.017   4.377 -0.3457 -1.2014 -0.0932
   84MOL   H22431930   1.396   4.962   4.600  0.8626  0.4329 -0.1532
   84MOL   H22531931   1.362   4.934   4.424 -0.4093  2.4456  0.1575
   84MOL   H22631932   1.493   4.852   4.494  0.3599 -0.6269 -0.1729
   84MOL   H22731933   1.400   5.165   4.351  0.9954 -3.1280 -0.1317
   84MOL   H22831934   1.540   5.259   4.396  0.3960  1.3333  1.6145
   84MOL   H22931935   1.423   5.224   4.523  0.9319 -1.5742  0.8507
   84MOL   C23031936   1.730   5.289   4.791  0.8683  0.0545 -0.0624
   84MOL   C23131937   1.862   5.364   4.839  0.5169 -0.5008  0.2372
   84MOL   O23231938   1.904   5.314   4.970  0.0614 -0.0717  0.1956
   84MOL   C23331939   1.839   5.375   5.083 -0.7514 -0.0623  0.1017
   84MOL   C23431940   1.894   5.309   5.211  0.6478 -0.3365 -0.3232
   84MOL   C23531941   2.049   5.319   5.218 -0.2160 -0.4298  0.2735
   84MOL   C23631942   1.836   5.372   5.339 -0.4853  0.0824  0.1362
   84MOL   H23731943   1.646   5.303   4.859  0.3086  1.2413 -0.9675
   84MOL   H23831944   1.701   5.339   4.699  0.6251 -1.2657 -0.7183
   84MOL   H23931945   1.843   5.472   4.839  2.4592 -0.1418 -0.7525
   84MOL   H24031946   1.860   5.481   5.097  0.9940  0.1847 -3.7109
   84MOL   H24131947   1.732   5.354   5.077 -0.0977 -4.2851  1.7777
   84MOL   H24231948   1.876   5.201   5.214 -1.1398 -0.0473  0.0873
   84MOL   H24331949   2.093   5.418   5.227 -0.3667 -0.0558 -2.4773
   84MOL   H24431950   2.086   5.266   5.130  0.4336 -1.1115  0.9563
   84MOL   H24531951   2.091   5.269   5.305 -0.5624 -1.2209 -0.0151
   84MOL   H24631952   1.855   5.480   5.333  2.9920 -0.4142  0.7138
   84MOL   H24731953   1.730   5.350   5.337 -0.5693  0.5535 -1.6021
   84MOL   H24831954   1.889   5.339   5.428 -0.2407 -0.6452 -0.2739
   84MOL   C24931955   1.985   5.345   4.740  0.5949 -0.1569 -0.5022
   84MOL   C25031956   2.108   5.437   4.775  0.4838 -0.2422 -0.1005
   84MOL   O25131957   2.211   5.431   4.676  0.2711 -0.1467  0.3339
   84MOL   C25231958   2.306   5.325   4.696 -0.5021 -0.1240 -0.3408
   84MOL   C25331959   2.327   5.263   4.563 -0.5095 -0.0387  0.5597
   84MOL   C25431960   2.405   5.357   4.471 -0.6370 -0.0321 -0.1349
   84MOL   C25531961   2.204   5.190   4.503  0.3615  1.0104  0.5726
   84MOL   H25631962   1.955   5.369   4.637 -2.2747  2.8398  0.9247
   84MOL   H25731963   2.020   5.242   4.746 -1.1382 -0.7998 -0.8596
   84MOL   H25831964   2.149   5.412   4.873  0.1343  0.2636  0.1774
   84MOL   H25931965   2.398   5.363   4.740 -0.2746 -1.7370  0.6341
   84MOL   H26031966   2.270   5.252   4.768 -0.0875 -1.0880 -1.0967
   84MOL   H26131967   2.402   5.187   4.584 -1.2886 -0.9138  0.2017
   84MOL   H26231968   2.338   5.426   4.419 -1.0215 -0.7329 -0.5918
   84MOL   H26331969   2.442   5.292   4.391 -0.8651  0.6981 -0.8398
   84MOL   H26431970   2.490   5.395   4.527  0.3503 -1.2549 -0.7682
   84MOL   H26531971   2.187   5.112   4.576  1.2630 -1.0368 -1.3623
   84MOL   H26631972   2.116   5.253   4.490 -0.4492 -0.2401 -0.1324
   84MOL   H26731973   2.209   5.121   4.419 -2.0799 -0.7596  1.8353
   84MOL   C26831974   2.065   5.589   4.783  0.0472 -0.3112 -0.1382
   84MOL   C26931975   2.175   5.696   4.819 -0.4696 -0.5183  0.1414
   84MOL   O27031976   2.217   5.655   4.952  0.1828 -0.6950  0.0820
   84MOL   C27131977   2.349   5.686   4.990  0.0997 -0.3085 -0.3116
   84MOL   C27231978   2.355   5.643   5.135  0.6508 -0.0313 -0.0169
   84MOL   C27331979   2.370   5.495   5.155  0.3402  0.1228 -0.4738
   84MOL   C27431980   2.475   5.721   5.200 -0.8038 -1.0726  0.2780
   84MOL   H27531981   1.996   5.600   4.867  1.2362 -0.1597  0.8500
   84MOL   H27631982   2.017   5.610   4.688  1.0993  0.0356 -0.5950
   84MOL   H27731983   2.256   5.685   4.746  0.7409 -0.1462  1.3937
   84MOL   H27831984   2.422   5.648   4.918  0.9397 -0.0256  0.3746
   84MOL   H27931985   2.349   5.795   4.987 -0.7784 -0.3058 -0.2359
   84MOL   H28031986   2.270   5.684   5.188  1.0781  1.7673 -0.6958
   84MOL   H28131987   2.469   5.451   5.138  0.4853  0.7024 -1.1279
   84MOL   H28231988   2.294   5.438   5.102 -0.7274  2.1114 -1.1008
   84MOL   H28331989   2.358   5.468   5.260  3.6334 -2.9492 -0.7650
   84MOL   H28431990   2.449   5.826   5.210  0.2640 -1.0150  2.8569
   84MOL   H28531991   2.560   5.715   5.133 -2.2001 -0.9577 -1.5248
   84MOL   H28631992   2.504   5.693   5.302  0.4040 -1.0027 -0.0471
   84MOL   C28731993   2.126   5.840   4.810  0.3824  0.0189  0.2308
   84MOL   C28831994   2.092   5.883   4.669  0.1462 -0.3849 -0.4583
   84MOL   O28931995   2.220   5.895   4.595  0.2883 -0.3464 -0.2384
   84MOL   C29031996   2.216   5.816   4.479 -0.2294  0.0547  0.4383
   84MOL   C29131997   2.355   5.805   4.419  1.0219 -0.4498  0.2303
   84MOL   C29231998   2.342   5.738   4.282 -0.8098 -0.2158 -1.0519
   84MOL   C29331999   2.439   5.729   4.523 -0.5454 -0.0535 -1.1325
   84MOL   H29432000   2.201   5.903   4.858  1.2795 -0.3438 -0.6629
   84MOL   H29532001   2.040   5.846   4.877 -0.4789  1.1605 -0.9495
   84MOL   H29632002   2.020   5.816   4.622 -1.0465  0.8243 -0.3922
   84MOL   H29732003   2.175   5.717   4.496  0.6547 -0.2542  0.8169
   84MOL   H29832004   2.149   5.869   4.412  0.0797 -0.6296 -0.4135
   84MOL   H29932005   2.392   5.906   4.402  0.1540 -0.0535  0.6540
   84MOL   H30032006   2.445   5.717   4.255 -0.1521 -0.7786  1.7143
   84MOL   H30132007   2.298   5.811   4.214 -1.6497  2.4601  2.1978
   84MOL   H30232008   2.287   5.645   4.287  1.0695 -1.3481 -0.8241
   84MOL   H30332009   2.423   5.773   4.621  1.8606  1.9462 -1.5838
   84MOL   H30432010   2.405   5.627   4.539  0.6750  0.3894  6.3164
   84MOL   H30532011   2.548   5.739   4.522 -0.5997  1.6534  2.2252
   84MOL   C30632012   2.022   6.018   4.683  0.0509  0.9064 -0.1462
   84MOL   C30732013   1.972   6.059   4.535  0.3779 -0.1240  0.1722
   84MOL   O30832014   1.848   5.995   4.510 -0.2079 -0.1132 -0.0727
   84MOL   C30932015   1.843   5.935   4.379 -0.0180 -0.6873 -0.0230
   84MOL   C31032016   1.731   5.830   4.396 -0.6875 -0.1512 -0.2679
   84MOL   C31132017   1.723   5.758   4.532 -0.2270 -0.1224  0.5097
   84MOL   C31232018   1.747   5.720   4.281 -0.8861 -0.3427  0.2646
   84MOL   H31332019   2.097   6.089   4.718  0.2594 -0.0867  1.4910
   84MOL   H31432020   1.936   6.011   4.749  2.4382  1.4516  3.1350
   84MOL   H31532021   2.050   6.054   4.458 -0.0627  1.5155 -0.4014
   84MOL   H31632022   1.933   5.879   4.352 -1.5471 -2.0206 -2.5461
   84MOL   H31732023   1.826   6.015   4.307 -2.9132 -2.2897 -1.2343
   84MOL   H31832024   1.640   5.888   4.378 -0.9102 -0.4726 -0.1790
   84MOL   H31932025   1.641   5.689   4.511 -0.3963  0.2205  0.0532
   84MOL   H32032026   1.707   5.815   4.624 -1.5574  0.5261 -0.1236
   84MOL   H32132027   1.812   5.697   4.550  0.1752 -0.1174 -1.4012
   84MOL   H32232028   1.724   5.765   4.184  2.4599  3.5030  1.1508
   84MOL   H32332029   1.672   5.641   4.271 -0.2693 -0.9036  0.0611
   84MOL   H32432030   1.847   5.677   4.282 -2.0772 -3.3843 -1.5331
   84MOL   C32532031   1.939   6.206   4.524 -0.7849 -0.4666 -0.5716
   84MOL   C32632032   2.055   6.309   4.535 -0.8657 -0.8453  0.5264
   84MOL   O32732033   2.111   6.319   4.410 -0.6272 -0.0253  0.4004
   84MOL   C32832034   2.242   6.369   4.393  0.2802 -0.4070 -0.0563
   84MOL   C32932035   2.329   6.254   4.381 -0.6764  0.3731  0.0027
   84MOL   C33032036   2.299   6.181   4.246  0.0842  0.2528  0.0745
   84MOL   C33132037   2.481   6.295   4.385  0.1687 -0.2521 -0.7919
   84MOL   H33232038   1.880   6.226   4.613 -0.1651  1.6614 -0.6120
   84MOL   H33332039   1.871   6.227   4.442 -0.6929 -0.7856 -0.7308
   84MOL   H33432040   2.133   6.279   4.605  0.0593 -1.2884 -0.6766
   84MOL   H33532041   2.257   6.435   4.308  0.7268  0.6505  0.8348
   84MOL   H33632042   2.267   6.438   4.473 -2.8480  0.2268  0.4404
   84MOL   H33732043   2.317   6.184   4.464 -0.3913 -1.4983 -1.4912
   84MOL   H33832044   2.376   6.106   4.229  1.1159  1.6435 -1.6177
   84MOL   H33932045   2.203   6.130   4.235  1.1726 -1.6238 -0.9754
   84MOL   H34032046   2.322   6.249   4.163  2.0413  1.4186  1.5418
   84MOL   H34132047   2.541   6.204   4.393  0.0809 -0.2414  0.1102
   84MOL   H34232048   2.522   6.360   4.308 -2.3652  1.4647 -0.7432
   84MOL   H34332049   2.496   6.357   4.474 -1.8088  0.3294 -0.8568
   84MOL   C34432050   2.009   6.451   4.581 -0.3659  0.0384  0.2244
   84MOL   C34532051   2.019   6.463   4.734 -0.0122  0.4067 -0.0402
   84MOL   O34632052   2.153   6.441   4.779 -0.5445 -0.3110 -0.2221
   84MOL   C34732053   2.164   6.399   4.916 -0.5539 -0.0844  0.6295
   84MOL   C34832054   2.306   6.375   4.961 -0.3510 -0.1706  0.0942
   84MOL   C34932055   2.365   6.516   4.974 -0.3682 -0.4103 -0.5432
   84MOL   C35032056   2.374   6.279   4.855  0.5559  0.1921  0.1025
   84MOL   H35132057   1.910   6.465   4.536 -1.0989 -4.1576  0.3344
   84MOL   H35232058   2.077   6.526   4.542  0.1857 -0.3075  0.5040
   84MOL   H35332059   1.963   6.378   4.773  1.2518 -0.7582 -0.7341
   84MOL   H35432060   2.104   6.309   4.928  0.0019 -1.0858 -3.4911
   84MOL   H35532061   2.120   6.478   4.978 -2.1979 -0.9413  0.5729
   84MOL   H35632062   2.312   6.326   5.059  1.3305  2.0076  1.1182
   84MOL   H35732063   2.468   6.517   5.010 -0.7205 -0.7009  0.5095
   84MOL   H35832064   2.307   6.586   5.035 -0.6495  0.2300 -1.5418
   84MOL   H35932065   2.357   6.574   4.882  0.2867  3.5332  1.7263
   84MOL   H36032066   2.303   6.198   4.835  3.1111 -1.8970 -0.7239
   84MOL   H36132067   2.398   6.308   4.753  1.5427  0.1817  0.3312
   84MOL   H36232068   2.458   6.233   4.907  0.7151 -0.1735 -0.4777
   84MOL   C36332069   1.959   6.597   4.789  0.7148 -0.4455 -0.0760
   84MOL   C36432070   2.061   6.713   4.790  0.9612  0.1395 -0.2639
   84MOL   O36532071   2.001   6.817   4.867  0.0238  0.1742  0.2254
   84MOL   C36632072   2.082   6.931   4.872  0.7508  0.4439 -0.2238
   84MOL   C36732073   2.002   7.040   4.955  0.3643 -0.1883  0.1997
   84MOL   C36832074   1.921   7.120   4.862  0.0777 -0.1472  0.1608
   84MOL   C36932075   2.090   7.117   5.050  0.0397  0.2370 -0.8151
   84MOL   H37032076   1.877   6.629   4.724 -0.0614  2.2380  2.1057
   84MOL   H37132077   1.919   6.580   4.889  0.4919  2.1856  0.3354
   84MOL   H37232078   2.074   6.751   4.688  3.1307 -0.4318 -0.2221
   84MOL   H37332079   2.164   6.902   4.937  0.3346  1.9730  1.0159
   84MOL   H37432080   2.121   6.971   4.779  3.3719 -1.9141 -0.1828
   84MOL   H37532081   1.931   6.983   5.014 -0.0721  1.0289  0.8696
   84MOL   H37632082   1.879   7.205   4.916 -0.9818 -2.4728  3.1728
   84MOL   H37732083   1.841   7.058   4.824 -0.0950  1.5003 -2.2923
   84MOL   H37832084   1.981   7.156   4.778  0.4207 -0.7130  0.1588
   84MOL   H37932085   2.157   7.174   4.985  0.7737 -0.9413 -1.0987
   84MOL   H38032086   2.143   7.056   5.123  3.4637  1.0337 -2.5312
   84MOL   H38132087   2.031   7.184   5.113 -0.4553  0.1952 -1.2366
   84MOL   H38232088   2.156   6.683   4.834  1.6772  2.9552  0.1839
   85MOL     C132089   6.796   4.058   4.031  0.1303  0.2987  0.2712
   85MOL     C232090   6.703   3.990   3.924 -0.5985 -0.2713 -0.3745
   85MOL     O332091   6.671   3.866   3.975 -0.1797 -0.5726  0.2522
   85MOL     C432092   6.759   3.764   3.931 -0.6528  0.3507 -0.2306
   85MOL     C532093   6.703   3.632   3.993 -1.0076  0.1505  0.6879
   85MOL     C632094   6.733   3.634   4.148 -0.2415 -0.4579  0.3244
   85MOL     C732095   6.745   3.507   3.914 -0.7344  0.5174 -0.2176
   85MOL     H832096   6.821   4.161   4.006  1.3417 -0.1614 -0.4222
   85MOL     H932097   6.740   4.083   4.121  1.2610  0.8099  0.8340
   85MOL    H1032098   6.763   3.985   3.833  3.6573  1.4844  2.1493
   85MOL    H1132099   6.859   3.789   3.966 -0.0329 -1.6172 -0.5478
   85MOL    H1232100   6.762   3.759   3.822 -0.0464  0.9083 -0.2469
   85MOL    H1332101   6.596   3.633   3.972 -0.6909  1.7943 -0.9766
   85MOL    H1432102   6.703   3.727   4.197  0.4891 -0.3092  0.4913
   85MOL    H1532103   6.691   3.552   4.205  0.5859 -1.5772 -0.6505
   85MOL    H1632104   6.840   3.625   4.165 -0.1730  0.2372  0.3141
   85MOL    H1732105   6.848   3.482   3.941 -1.1519  0.3051  1.2222
   85MOL    H1832106   6.681   3.426   3.947 -0.4274  2.0651  4.5782
   85MOL    H1932107   6.745   3.531   3.807 -0.7272 -0.5560 -0.4621
   85MOL    H2032108   6.882   3.999   4.061 -0.1050 -0.4625 -0.5604
   85MOL    C2132109   6.574   4.070   3.900 -0.1848 -1.1006  0.2576
   85MOL    C2232110   6.591   4.185   3.800 -0.6352  0.1273 -0.6386
   85MOL    O2332111   6.653   4.304   3.849 -0.2277 -0.4744  0.0743
   85MOL    C2432112   6.550   4.392   3.907  0.1502 -0.5455 -0.1429
   85MOL    C2532113   6.617   4.528   3.943  0.2582 -0.0098  0.1542
   85MOL    C2632114   6.531   4.630   4.008  0.6615 -0.1979  0.3781
   85MOL    C2732115   6.748   4.498   4.028  0.5456  0.3680 -0.0257
   85MOL    H2832116   6.504   4.003   3.850 -2.9204  1.8931 -0.0510
   85MOL    H2932117   6.549   4.111   3.998 -0.0111 -0.9126  0.2233
   85MOL    H3032118   6.487   4.214   3.785 -0.1795  2.1575 -0.0630
   85MOL    H3132119   6.494   4.348   3.989 -0.2296 -0.2705 -0.2548
   85MOL    H3232120   6.472   4.427   3.840  1.0922 -2.6753 -2.4469
   85MOL    H3332121   6.659   4.561   3.848 -0.2077 -0.2516 -0.1311
   85MOL    H3432122   6.591   4.721   4.020 -0.5492  0.9110 -1.6725
   85MOL    H3532123   6.499   4.594   4.106 -0.8336  1.5020  0.5395
   85MOL    H3632124   6.446   4.651   3.944  0.8919 -0.8535 -0.1469
   85MOL    H3732125   6.810   4.421   3.982 -1.1972 -1.4113  0.5453
   85MOL    H3832126   6.814   4.583   4.048 -1.9016  1.9679  1.5517
   85MOL    H3932127   6.721   4.448   4.121  0.9626  0.8888  0.3829
   85MOL    C4032128   6.656   4.144   3.667 -0.3822 -0.2265 -0.1473
   85MOL    C4132129   6.592   4.025   3.594  0.6642  0.1777 -0.3283
   85MOL    O4232130   6.656   3.992   3.472  0.1518 -0.4904  0.3219
   85MOL    C4332131   6.784   3.933   3.478  0.5701  0.2169  0.3503
   85MOL    C4432132   6.834   3.859   3.349  0.4959 -0.3692  0.3060
   85MOL    C4532133   6.831   3.945   3.218 -0.0822  0.6737  0.1517
   85MOL    C4632134   6.972   3.796   3.364 -0.3542 -0.2004 -0.3922
   85MOL    H4732135   6.764   4.132   3.671 -0.4264 -0.2968  0.9450
   85MOL    H4832136   6.650   4.233   3.605 -2.1279  0.9783  1.6805
   85MOL    H4932137   6.607   3.942   3.664  0.3497  0.3995  0.0039
   85MOL    H5032138   6.765   3.848   3.543  0.7956  0.0956  0.2592
   85MOL    H5132139   6.863   3.986   3.531  2.3332 -2.8099  0.8512
   85MOL    H5232140   6.768   3.772   3.345  2.3565 -1.8942  1.6083
   85MOL    H5332141   6.820   3.882   3.130  0.1721 -0.2222  0.7521
   85MOL    H5432142   6.736   3.999   3.211  0.4752  1.8743  1.5135
   85MOL    H5532143   6.907   4.023   3.214 -0.1590  0.6984 -0.9347
   85MOL    H5632144   6.962   3.718   3.440 -0.4377 -0.9836 -1.1984
   85MOL    H5732145   7.041   3.874   3.395  1.4236 -1.8826 -0.0699
   85MOL    H5832146   6.998   3.747   3.270 -3.1218 -1.5398 -0.5293
   85MOL    C5932147   6.443   4.050   3.556  0.0114  0.0114 -0.4844
   85MOL    C6032148   6.359   3.919   3.523  0.0182  0.0740  1.2777
   85MOL    O6132149   6.227   3.952   3.491  0.4007 -0.1612 -0.4255
   85MOL    C6232150   6.198   3.986   3.357 -0.3741 -0.0900 -0.2641
   85MOL    C6332151   6.064   4.058   3.348 -0.3880 -0.4347 -0.2582
   85MOL    C6432152   5.942   3.970   3.377 -0.3224 -0.1390  0.3793
   85MOL    C6532153   6.049   4.198   3.412  0.8564 -0.0215 -0.2546
   85MOL    H6632154   6.439   4.116   3.469 -3.5808  2.0223  1.0940
   85MOL    H6732155   6.386   4.114   3.625  2.1450  0.8969  0.5076
   85MOL    H6832156   6.412   3.880   3.436 -1.7297  0.1720  0.1278
   85MOL    H6932157   6.277   4.048   3.314  2.3759 -1.8589  2.0358
   85MOL    H7032158   6.184   3.902   3.290  0.1205  0.2945 -0.8540
   85MOL    H7132159   6.051   4.080   3.243 -0.4292 -1.6352 -0.5173
   85MOL    H7232160   5.958   3.918   3.472  0.0164 -0.4629  0.1505
   85MOL    H7332161   5.934   3.889   3.305  2.2470 -0.3247  0.2497
   85MOL    H7432162   5.855   4.035   3.380 -0.6521 -0.6495  2.9185
   85MOL    H7532163   6.131   4.217   3.481 -1.3447 -0.7470  2.6692
   85MOL    H7632164   6.055   4.285   3.347 -4.2942  0.7499  0.0801
   85MOL    H7732165   5.964   4.207   3.480  0.9530  1.4098 -0.3133
   85MOL    C7832166   6.344   3.814   3.639  0.0356  0.3804  0.2531
   85MOL    C7932167   6.265   3.693   3.584 -0.1116  0.2184 -0.8373
   85MOL    O8032168   6.322   3.570   3.633 -0.6665  0.9096  0.1111
   85MOL    C8132169   6.433   3.512   3.569  0.4694 -0.1227 -0.2841
   85MOL    C8232170   6.494   3.402   3.662  0.1101  0.3589 -0.0845
   85MOL    C8332171   6.624   3.342   3.612  0.3303 -0.1536  1.0368
   85MOL    C8432172   6.396   3.290   3.693  0.7045  0.5088 -0.1503
   85MOL    H8532173   6.301   3.857   3.729 -2.2741 -0.5176 -0.3835
   85MOL    H8632174   6.445   3.786   3.666  0.6478  0.2354 -2.1148
   85MOL    H8732175   6.282   3.684   3.476  1.2111  1.8026 -0.7766
   85MOL    H8832176   6.398   3.466   3.476  0.2246 -0.6436  0.0592
   85MOL    H8932177   6.509   3.588   3.556 -0.0596  0.2774 -1.0453
   85MOL    H9032178   6.521   3.448   3.757  0.8285  1.7062 -0.9259
   85MOL    H9132179   6.705   3.416   3.609 -1.5782  2.0730  2.3843
   85MOL    H9232180   6.608   3.315   3.508  0.0702  1.3607  0.6635
   85MOL    H9332181   6.660   3.255   3.668  0.9213  1.1142  2.6783
   85MOL    H9432182   6.314   3.345   3.737 -1.6857 -1.5127 -1.9583
   85MOL    H9532183   6.425   3.224   3.775  0.5372  1.3953  0.6325
   85MOL    H9632184   6.373   3.237   3.601 -0.4705 -1.9965  1.5452
   85MOL    C9732185   6.113   3.689   3.619 -0.5523 -0.0950 -0.1866
   85MOL    C9832186   6.036   3.564   3.563  0.4164  0.6682  0.2742
   85MOL    O9932187   6.060   3.559   3.421  0.5218 -0.0351  0.0633
   85MOL   C10032188   6.039   3.434   3.363 -0.1095  0.3764  0.2097
   85MOL   C10132189   6.048   3.446   3.212  0.2302 -0.0047  0.5024
   85MOL   C10232190   5.933   3.530   3.146 -0.0482 -0.5025  0.1111
   85MOL   C10332191   6.188   3.490   3.168 -0.4706 -0.7024  0.3910
   85MOL   H10432192   6.081   3.784   3.578 -0.2707 -1.2504 -3.1914
   85MOL   H10532193   6.089   3.692   3.726  1.5326  2.1834  0.2766
   85MOL   H10632194   6.077   3.473   3.605  1.9338  0.6219 -1.2614
   85MOL   H10732195   5.954   3.372   3.390  1.0527 -0.7271  1.4300
   85MOL   H10832196   6.127   3.381   3.401  1.7156  2.8266 -0.4669
   85MOL   H10932197   6.029   3.343   3.183 -0.4732  0.4798 -0.8089
   85MOL   H11032198   5.953   3.637   3.151  0.2174 -0.5122 -0.7069
   85MOL   H11132199   5.928   3.498   3.042  0.2695 -0.4460  0.0799
   85MOL   H11232200   5.834   3.500   3.181  0.0396  2.1773  2.8798
   85MOL   H11332201   6.270   3.426   3.200  0.3954  1.2044  2.1141
   85MOL   H11432202   6.200   3.496   3.060  1.3876  3.4659  0.7230
   85MOL   H11532203   6.205   3.590   3.209  0.4882  0.0953 -1.8769
   85MOL   C11632204   5.884   3.568   3.583 -0.2529 -0.3071  0.9339
   85MOL   C11732205   5.826   3.597   3.723 -0.5146  0.9061  0.3824
   85MOL   O11832206   5.835   3.741   3.738 -0.0498 -0.2459  0.0808
   85MOL   C11932207   5.832   3.794   3.876  0.5661  0.5028 -0.8096
   85MOL   C12032208   5.867   3.945   3.862  0.1216 -0.2227 -0.2718
   85MOL   C12132209   6.012   3.982   3.819 -0.1513  0.2158 -0.5321
   85MOL   C12232210   5.763   4.009   3.773 -0.2413  0.3099 -0.4087
   85MOL   H12332211   5.850   3.644   3.512  0.6168 -1.8666 -1.2163
   85MOL   H12432212   5.844   3.469   3.558 -0.1432 -0.4471  1.3108
   85MOL   H12532213   5.893   3.554   3.797 -1.3774 -0.6769  0.2575
   85MOL   H12632214   5.907   3.748   3.941 -0.0045 -0.0894 -0.5752
   85MOL   H12732215   5.736   3.784   3.926  1.4829 -2.1799  0.4648
   85MOL   H12832216   5.858   3.982   3.964 -0.0640 -1.1576  0.0570
   85MOL   H12932217   6.033   4.086   3.844  2.1570 -0.7427  1.7431
   85MOL   H13032218   6.031   3.963   3.713  1.0420  0.6249 -0.4001
   85MOL   H13132219   6.065   3.916   3.888 -1.7969 -0.7931 -0.1927
   85MOL   H13232220   5.766   4.117   3.779  2.5369  0.2655 -0.3870
   85MOL   H13332221   5.755   3.975   3.670 -1.7688  3.7181 -1.4777
   85MOL   H13432222   5.670   3.970   3.813  1.7310 -2.6363  1.5720
   85MOL   C13532223   5.680   3.562   3.746 -0.3856  0.0552  0.1706
   85MOL   C13632224   5.647   3.414   3.763  0.0232  0.0820 -0.6467
   85MOL   O13732225   5.747   3.358   3.848 -0.0642 -0.1727 -0.1109
   85MOL   C13832226   5.770   3.222   3.820 -0.5660 -0.1036  0.0622
   85MOL   C13932227   5.869   3.177   3.930 -0.2069  0.1143 -0.3539
   85MOL   C14032228   5.899   3.024   3.925 -0.2367  0.0279  0.1289
   85MOL   C14132229   6.001   3.267   3.912  0.0337 -0.3375 -0.2140
   85MOL   H14232230   5.637   3.618   3.829 -1.9252  0.9477 -1.1879
   85MOL   H14332231   5.614   3.601   3.668 -0.5471 -0.6974 -0.0742
   85MOL   H14432232   5.648   3.374   3.661 -0.1021  0.6564 -0.8765
   85MOL   H14532233   5.795   3.201   3.716 -0.6056 -0.5782  0.1468
   85MOL   H14632234   5.687   3.155   3.845 -1.4522  0.4873 -1.2243
   85MOL   H14732235   5.818   3.194   4.025 -2.2388 -1.2685 -1.1560
   85MOL   H14832236   5.828   2.962   3.871 -1.1736  0.2993  1.0119
   85MOL   H14932237   5.928   2.985   4.023 -2.4716 -3.7098 -0.6133
   85MOL   H15032238   5.988   3.016   3.863 -0.1022 -0.3323  0.3683
   85MOL   H15132239   5.974   3.366   3.947 -0.9672 -0.9340  0.7261
   85MOL   H15232240   6.084   3.224   3.969  1.3128  0.9664 -1.0351
   85MOL   H15332241   6.031   3.279   3.808  0.5002  0.5451  0.0157
   85MOL   C15432242   5.512   3.385   3.833 -0.3612  0.3881  0.4708
   85MOL   C15532243   5.389   3.391   3.739 -0.0831  0.1747 -1.0695
   85MOL   O15632244   5.418   3.286   3.645 -0.0922 -0.1436  0.5299
   85MOL   C15732245   5.348   3.308   3.524 -0.0441 -0.0609 -0.3503
   85MOL   C15832246   5.358   3.190   3.431 -0.1395  0.1995 -0.3503
   85MOL   C15932247   5.320   3.057   3.496  0.6706 -0.3018  0.5662
   85MOL   C16032248   5.284   3.208   3.291 -0.7260 -0.1623  0.9054
   85MOL   H16132249   5.503   3.459   3.913 -1.6721  0.8584 -0.0925
   85MOL   H16232250   5.511   3.288   3.882  1.0158 -0.0801 -0.4013
   85MOL   H16332251   5.386   3.487   3.687 -0.0224  2.0410  2.2519
   85MOL   H16432252   5.383   3.400   3.477 -1.3581 -0.3014 -1.8386
   85MOL   H16532253   5.241   3.324   3.541 -0.2114 -0.3890 -1.0678
   85MOL   H16632254   5.466   3.181   3.416  0.1371  1.5385  0.6969
   85MOL   H16732255   5.345   3.052   3.602  2.3482  0.2271  0.2037
   85MOL   H16832256   5.378   2.977   3.450 -0.8558 -1.6219  0.8822
   85MOL   H16932257   5.214   3.038   3.479  0.0849  0.8346  2.7877
   85MOL   H17032258   5.324   3.296   3.241  2.9598 -0.9727  2.2889
   85MOL   H17132259   5.283   3.123   3.222  0.7649  1.8386 -1.6807
   85MOL   H17232260   5.178   3.232   3.298 -0.7909 -0.1798  0.0539
   85MOL   C17332261   5.259   3.351   3.823 -0.0324  0.2796  0.5836
   85MOL   C17432262   5.228   3.439   3.947  0.4939 -0.4086  0.7121
   85MOL   O17532263   5.234   3.571   3.893  0.5782 -0.9715  0.2277
   85MOL   C17632264   5.225   3.672   3.994  0.0203 -0.3813  0.3596
   85MOL   C17732265   5.270   3.813   3.948 -0.9515  0.7137 -0.4435
   85MOL   C17832266   5.427   3.824   3.931  0.2103 -0.1718 -0.0543
   85MOL   C17932267   5.196   3.849   3.818 -0.4380  0.8926  0.2916
   85MOL   H18032268   5.171   3.356   3.758 -0.1237 -1.5685  0.5436
   85MOL   H18132269   5.263   3.247   3.855  2.5402 -0.3518 -1.6363
   85MOL   H18232270   5.303   3.436   4.027  0.3844  1.1578  0.8879
   85MOL   H18332271   5.279   3.639   4.082 -0.3334  1.1736  1.1771
   85MOL   H18432272   5.123   3.687   4.029 -0.2608  1.7917 -1.2639
   85MOL   H18532273   5.251   3.887   4.026  1.2752  1.1173 -0.2473
   85MOL   H18632274   5.457   3.759   3.848  4.3007  1.7130 -0.1670
   85MOL   H18732275   5.457   3.921   3.894 -1.8325  0.2593 -0.5939
   85MOL   H18832276   5.477   3.810   4.028 -2.9133 -1.3385  1.4527
   85MOL   H18932277   5.230   3.948   3.786 -1.3894  0.3644 -2.4456
   85MOL   H19032278   5.091   3.839   3.848 -0.3245  0.8920  0.7048
   85MOL   H19132279   5.228   3.778   3.742  0.0379 -1.0908  2.2979
   85MOL   C19232280   5.084   3.409   4.009 -0.6321  0.3781  0.2269
   85MOL   C19332281   5.078   3.279   4.091  1.1997  0.6054  0.9439
   85MOL   O19432282   4.940   3.237   4.095 -0.5612 -0.2363 -0.8684
   85MOL   C19532283   4.892   3.135   4.012  0.4733  0.1526  0.4314
   85MOL   C19632284   4.738   3.133   4.006 -0.7300  0.2859  0.3768
   85MOL   C19732285   4.691   3.007   3.923 -0.0106 -0.7748  0.4483
   85MOL   C19832286   4.667   3.266   3.964 -0.3185 -0.2220  0.1124
   85MOL   H19932287   5.021   3.380   3.926  1.4662 -0.4534 -1.1280
   85MOL   H20032288   5.047   3.485   4.078  1.3586 -1.4166  3.4533
   85MOL   H20132289   5.139   3.203   4.041 -0.1291  1.6000 -2.2965
   85MOL   H20232290   4.932   3.040   4.047 -2.9829 -0.7239  2.2824
   85MOL   H20332291   4.943   3.152   3.918  2.0800 -1.4839  0.9764
   85MOL   H20432292   4.709   3.116   4.109  2.7603  3.3887  1.9926
   85MOL   H20532293   4.719   3.020   3.819  0.6229 -0.4977  0.6473
   85MOL   H20632294   4.722   2.908   3.957 -1.1789 -1.4894 -0.5453
   85MOL   H20732295   4.582   3.012   3.926 -0.0362 -1.4726  0.6693
   85MOL   H20832296   4.652   3.327   4.052 -3.5649 -1.4235  0.4718
   85MOL   H20932297   4.726   3.321   3.891 -0.5526  0.7166  0.6349
   85MOL   H21032298   4.568   3.244   3.922 -1.0740  2.3746  0.5008
   85MOL   C21132299   5.130   3.291   4.243  0.2174  0.4348 -0.8370
   85MOL   C21232300   5.176   3.157   4.313 -0.0625  0.3621  0.8275
   85MOL   O21332301   5.308   3.169   4.367  0.0358 -0.2655 -0.0450
   85MOL   C21432302   5.402   3.131   4.278 -0.3784 -0.7061 -0.1646
   85MOL   C21532303   5.541   3.131   4.330 -0.4152 -0.5471 -0.2167
   85MOL   C21632304   5.562   3.041   4.458 -0.1307 -0.1263 -0.2522
   85MOL   C21732305   5.640   3.083   4.222 -0.2591 -0.2536  0.5470
   85MOL   H21832306   5.054   3.344   4.302 -0.1355 -1.6515  0.6155
   85MOL   H21932307   5.215   3.358   4.233  1.0628 -0.6137 -0.6338
   85MOL   H22032308   5.152   3.084   4.235  0.8254  0.2848  0.6216
   85MOL   H22132309   5.390   3.198   4.194  1.1298  1.3285  1.1898
   85MOL   H22232310   5.370   3.031   4.249 -0.1165 -0.4693 -1.2873
   85MOL   H22332311   5.567   3.235   4.346 -0.4095 -0.7473  1.1474
   85MOL   H22432312   5.532   2.938   4.439 -2.1219  0.2906  0.5000
   85MOL   H22532313   5.659   3.040   4.508 -0.0440  0.1771 -0.4077
   85MOL   H22632314   5.498   3.084   4.535  0.2635 -0.5637  0.3243
   85MOL   H22732315   5.638   3.149   4.136  0.1879  0.1640  0.8486
   85MOL   H22832316   5.624   2.982   4.185  0.4545  0.6625 -2.3396
   85MOL   H22932317   5.742   3.084   4.262 -0.0587  0.7032  0.0158
   85MOL   C23032318   5.075   3.109   4.427  0.6282 -0.1588  0.7002
   85MOL   C23132319   5.102   2.971   4.494  0.1307 -0.2948  0.0547
   85MOL   O23232320   5.123   2.869   4.402 -0.4817 -0.9990  0.1425
   85MOL   C23332321   5.005   2.822   4.343  0.1224 -0.1399  0.1199
   85MOL   C23432322   5.032   2.676   4.305 -0.0757  0.2541  0.4762
   85MOL   C23532323   5.041   2.598   4.441 -0.3250  0.2337  1.3490
   85MOL   C23632324   4.926   2.632   4.200  0.8817  0.6877 -0.3001
   85MOL   H23732325   4.971   3.120   4.399  0.4498 -0.2198  1.3546
   85MOL   H23832326   5.079   3.190   4.500 -3.3617 -2.0766  3.1763
   85MOL   H23932327   5.007   2.949   4.544  0.7380 -1.1150  0.8747
   85MOL   H24032328   4.915   2.823   4.404 -1.2530  2.1282 -1.8495
   85MOL   H24132329   4.976   2.885   4.259  1.9900  2.0423  1.0552
   85MOL   H24232330   5.130   2.663   4.260 -1.5638 -2.8446 -2.0607
   85MOL   H24332331   5.065   2.493   4.424 -0.3417  0.0865  2.2091
   85MOL   H24432332   4.950   2.599   4.501 -1.7283 -1.9981 -0.6139
   85MOL   H24532333   5.115   2.648   4.502 -1.4455  1.2253  1.9167
   85MOL   H24632334   4.825   2.642   4.240 -0.0775 -0.7841 -2.2731
   85MOL   H24732335   4.927   2.695   4.111  1.4067 -1.0082 -1.5061
   85MOL   H24832336   4.938   2.528   4.169  0.2194  0.0963  1.3517
   85MOL   C24932337   5.225   2.969   4.583  0.1484  0.3529  0.1687
   85MOL   C25032338   5.197   2.977   4.736 -0.3272 -0.3853 -0.3460
   85MOL   O25132339   5.302   2.915   4.804  0.2900 -0.2082 -0.1838
   85MOL   C25232340   5.289   2.778   4.818  0.6782 -0.9776 -0.1451
   85MOL   C25332341   5.402   2.701   4.884 -0.6562 -0.0310 -0.6072
   85MOL   C25432342   5.358   2.560   4.907  0.3973 -0.5423  0.7440
   85MOL   C25532343   5.431   2.768   5.021 -1.3313 -0.9257 -0.4957
   85MOL   H25632344   5.293   3.051   4.564 -0.7167  0.9592 -0.3657
   85MOL   H25732345   5.290   2.885   4.558  1.3874  1.2447  0.3851
   85MOL   H25832346   5.109   2.921   4.766 -0.8314  0.9558  0.7598
   85MOL   H25932347   5.206   2.764   4.887  0.5042  0.8353  0.0268
   85MOL   H26032348   5.273   2.738   4.718  3.7818 -0.4017 -0.9301
   85MOL   H26132349   5.493   2.701   4.824  0.9800  0.8407  1.7682
   85MOL   H26232350   5.342   2.508   4.812 -0.4845  1.1617 -0.0530
   85MOL   H26332351   5.271   2.560   4.971  0.1134 -0.5161  0.3607
   85MOL   H26432352   5.430   2.500   4.963 -0.3274 -0.1766  2.0689
   85MOL   H26532353   5.346   2.768   5.089 -0.3265  4.0152  0.9729
   85MOL   H26632354   5.503   2.705   5.075  0.6994  0.4632 -1.5380
   85MOL   H26732355   5.472   2.869   5.014 -1.5466 -0.8735 -0.9604
   85MOL   C26832356   5.186   3.121   4.791  0.1866  0.1295  0.5500
   85MOL   C26932357   5.083   3.135   4.910  0.3340  1.1584  0.2721
   85MOL   O27032358   4.959   3.097   4.866 -0.3549  0.2124 -0.0985
   85MOL   C27132359   4.876   3.023   4.954  0.0637  0.0152  0.0223
   85MOL   C27232360   4.730   3.001   4.896  0.1609 -0.1892 -1.0215
   85MOL   C27332361   4.663   3.123   4.822  0.5330  0.0355  0.8361
   85MOL   C27432362   4.731   2.880   4.796  0.0728  0.4958  0.4956
   85MOL   H27532363   5.140   3.184   4.715 -0.9225 -2.1580 -0.7642
   85MOL   H27632364   5.280   3.170   4.812  0.1514  1.1807 -1.5946
   85MOL   H27732365   5.110   3.062   4.986  1.2080  1.7687  0.5489
   85MOL   H27832366   4.916   2.923   4.970 -0.7139 -0.9243 -3.4406
   85MOL   H27932367   4.879   3.078   5.048 -0.0593  0.6881 -0.3685
   85MOL   H28032368   4.668   2.964   4.977  0.2196  1.6356 -0.1136
   85MOL   H28132369   4.559   3.091   4.809  0.8464 -0.2690 -0.9472
   85MOL   H28232370   4.715   3.139   4.728 -0.5759  0.2020  0.2432
   85MOL   H28332371   4.666   3.215   4.881  0.3729  0.3676  0.3269
   85MOL   H28432372   4.630   2.840   4.789 -0.3857  1.3114  2.2381
   85MOL   H28532373   4.783   2.795   4.841 -1.6194 -1.8622 -1.7953
   85MOL   H28632374   4.786   2.896   4.703 -1.0958  0.3664 -0.2227
   85MOL   C28732375   5.091   3.279   4.973  0.7253  0.1462  0.0450
   85MOL   C28832376   5.205   3.293   5.074 -0.3924  0.7598 -0.4677
   85MOL   O28932377   5.336   3.291   5.018  0.2603 -1.0362  0.5361
   85MOL   C29032378   5.380   3.413   4.970 -0.6322  0.3695 -0.0249
   85MOL   C29132379   5.529   3.425   4.925  0.0325 -0.5351 -1.4377
   85MOL   C29232380   5.559   3.342   4.796 -0.3914 -0.8787  0.3153
   85MOL   C29332381   5.613   3.371   5.043 -0.1638 -0.1286  0.2938
   85MOL   H29432382   4.993   3.296   5.018  0.7812  1.3236 -0.2730
   85MOL   H29532383   5.098   3.354   4.895  0.8473 -0.0847 -0.1661
   85MOL   H29632384   5.201   3.384   5.135  4.2558  1.3098 -0.8044
   85MOL   H29732385   5.312   3.448   4.892  0.9657  3.0978 -0.2408
   85MOL   H29832386   5.366   3.488   5.048  1.0042  0.2977  0.3463
   85MOL   H29932387   5.558   3.526   4.895  2.9234 -0.3121  1.7954
   85MOL   H30032388   5.576   3.235   4.809 -0.6879 -0.8905  0.6238
   85MOL   H30132389   5.654   3.380   4.757  0.3785 -1.8144  1.2341
   85MOL   H30232390   5.476   3.353   4.726  0.6022  0.5153 -0.6784
   85MOL   H30332391   5.614   3.442   5.126  1.2071  1.3885 -0.9974
   85MOL   H30432392   5.578   3.272   5.071  0.8672 -0.4544  0.4514
   85MOL   H30532393   5.715   3.348   5.012 -0.6254 -4.1464  1.4528
   85MOL   C30632394   5.201   3.185   5.196  0.1563  0.0490 -0.1678
   85MOL   C30732395   5.289   3.224   5.316  0.2185 -0.0115  0.5031
   85MOL   O30832396   5.217   3.315   5.398  0.0386  0.2474 -0.2899
   85MOL   C30932397   5.290   3.400   5.489 -0.0152  0.3816  0.7416
   85MOL   C31032398   5.232   3.382   5.625 -0.3302  0.2250  0.1598
   85MOL   C31132399   5.095   3.447   5.639  0.4111  0.0250  0.3312
   85MOL   C31232400   5.322   3.447   5.729 -0.1424 -0.4054  0.1174
   85MOL   H31332401   5.241   3.095   5.149 -1.7774 -0.1634 -1.4997
   85MOL   H31432402   5.098   3.163   5.225 -0.6205 -0.5622 -3.1398
   85MOL   H31532403   5.378   3.276   5.279  1.1876 -1.5341  0.6433
   85MOL   H31632404   5.273   3.497   5.442  1.5002  0.4709  0.3582
   85MOL   H31732405   5.398   3.383   5.486  0.1434  1.2656  1.0838
   85MOL   H31832406   5.215   3.280   5.658 -0.5691  0.4567  0.7485
   85MOL   H31932407   5.090   3.556   5.633  0.0565  0.0444  0.9478
   85MOL   H32032408   5.053   3.412   5.733 -0.8233 -0.5501 -0.4343
   85MOL   H32132409   5.037   3.397   5.562  1.0391 -0.6330  0.2808
   85MOL   H32232410   5.339   3.552   5.705 -2.5400  0.0565  0.3120
   85MOL   H32332411   5.421   3.405   5.745  0.2312  0.4075 -0.0244
   85MOL   H32432412   5.277   3.425   5.826  0.8379 -0.8385  0.4796
   85MOL   C32532413   5.315   3.095   5.400  0.1864  0.1070 -0.0568
   85MOL   C32632414   5.455   3.041   5.368  0.0505  0.2106  0.0529
   85MOL   O32732415   5.550   3.132   5.426  0.2358 -0.3222 -0.0237
   85MOL   C32832416   5.684   3.121   5.375 -0.1384 -0.1254 -0.0022
   85MOL   C32932417   5.779   3.213   5.453  0.1962 -0.5556  0.0833
   85MOL   C33032418   5.769   3.200   5.609 -0.0270 -0.0332 -0.1792
   85MOL   C33132419   5.926   3.199   5.407 -0.4805  0.4290  0.5888
   85MOL   H33232420   5.247   3.014   5.374  2.4935 -3.0477  3.2774
   85MOL   H33332421   5.315   3.118   5.506 -1.8677  1.5180 -0.3348
   85MOL   H33432422   5.465   3.043   5.260  0.9548 -0.0268  0.1242
   85MOL   H33532423   5.719   3.017   5.372 -3.2183 -1.1692 -1.1984
   85MOL   H33632424   5.680   3.157   5.272 -0.6067  1.4006  0.5449
   85MOL   H33732425   5.754   3.313   5.417  0.0892 -0.1103  1.3630
   85MOL   H33832426   5.829   3.273   5.663 -0.3176  1.5634 -1.9436
   85MOL   H33932427   5.664   3.218   5.634 -0.2591 -1.0236 -0.4361
   85MOL   H34032428   5.796   3.101   5.645  2.2614  0.7956  0.4678
   85MOL   H34132429   5.994   3.271   5.453  0.3677  0.2230 -0.3190
   85MOL   H34232430   5.960   3.105   5.451 -0.2824 -1.0086 -2.5302
   85MOL   H34332431   5.939   3.194   5.299  1.1113  0.1355  0.7778
   85MOL   C34432432   5.474   2.894   5.397  0.9325 -0.4009  0.8793
   85MOL   C34532433   5.429   2.847   5.535  0.3239 -0.9958 -0.1826
   85MOL   O34632434   5.422   2.703   5.528  0.6670 -0.0816  0.3248
   85MOL   C34732435   5.303   2.640   5.535 -0.2033  0.7281 -0.4943
   85MOL   C34832436   5.306   2.515   5.449  0.8858  0.1305 -0.5116
   85MOL   C34932437   5.379   2.396   5.499 -0.1135  0.2305 -0.6042
   85MOL   C35032438   5.327   2.550   5.303  0.2684  0.1331  0.2860
   85MOL   H35132439   5.576   2.865   5.374  0.6809  0.4575 -1.4516
   85MOL   H35232440   5.407   2.840   5.331  0.4285 -1.3500  2.1526
   85MOL   H35332441   5.324   2.872   5.550  0.7786  0.3812  0.7096
   85MOL   H35432442   5.220   2.698   5.496 -0.1353  1.7585  0.8330
   85MOL   H35532443   5.281   2.615   5.639  1.2227 -0.7971 -0.5346
   85MOL   H35632444   5.201   2.488   5.445  0.4322  1.4561  1.5378
   85MOL   H35732445   5.464   2.371   5.435  0.3518 -1.4512  0.6121
   85MOL   H35832446   5.316   2.306   5.495 -0.0828  0.1417  0.5426
   85MOL   H35932447   5.418   2.413   5.600  1.2320  0.6777 -1.1944
   85MOL   H36032448   5.334   2.465   5.236 -1.1373  0.0983  0.1842
   85MOL   H36132449   5.254   2.620   5.263  0.2258 -0.4324 -0.6328
   85MOL   H36232450   5.419   2.605   5.281  0.2118  0.2729  0.3913
   85MOL   C36332451   5.512   2.889   5.651  0.1299 -0.3699  0.5274
   85MOL   C36432452   5.461   2.846   5.790 -0.1172  0.5498  0.3240
   85MOL   O36532453   5.346   2.914   5.827 -0.1138  0.7499  0.3607
   85MOL   C36632454   5.306   2.904   5.962 -0.1536 -0.3825 -0.0113
   85MOL   C36732455   5.163   2.963   5.972 -0.2638  0.3671 -0.2703
   85MOL   C36832456   5.059   2.854   5.952  0.3220 -0.1096  0.5921
   85MOL   C36932457   5.138   3.098   5.896  0.2193 -0.6154  0.1251
   85MOL   H37032458   5.619   2.870   5.639  0.7491 -0.0681  5.0037
   85MOL   H37132459   5.513   2.998   5.650  1.3993 -0.3668  0.7548
   85MOL   H37232460   5.533   2.860   5.870 -1.2549  1.3376  1.2310
   85MOL   H37332461   5.309   2.798   5.989  3.1612 -0.4965 -0.5448
   85MOL   H37432462   5.373   2.959   6.028 -0.8067 -0.1761  0.4803
   85MOL   H37532463   5.141   3.000   6.073  0.5328  1.3221 -0.4383
   85MOL   H37632464   5.061   2.827   5.846  0.1670 -0.7752  0.7549
   85MOL   H37732465   4.956   2.880   5.975  0.4871  0.1710  1.0185
   85MOL   H37832466   5.086   2.756   5.991  0.3729  0.8661  3.0799
   85MOL   H37932467   5.051   3.151   5.934 -0.7696 -1.4275 -0.9716
   85MOL   H38032468   5.144   3.101   5.787 -0.1879 -1.1699  0.0875
   85MOL   H38132469   5.229   3.152   5.921  1.0652 -1.2762 -1.4814
   85MOL   H38232470   5.439   2.740   5.778  0.2913  0.2829  1.8821
   86MOL     C132471   3.714   3.565   0.384  0.4163  0.2841  0.2413
   86MOL     C232472   3.834   3.579   0.490  0.5428  0.1056 -0.3017
   86MOL     O332473   3.807   3.697   0.561 -0.0260  0.3721  0.6215
   86MOL     C432474   3.925   3.759   0.611  0.5135 -0.0034  0.2214
   86MOL     C532475   3.891   3.839   0.743 -0.3408  0.3387  0.6869
   86MOL     C632476   4.007   3.934   0.779  0.3231  0.2100  0.3531
   86MOL     C732477   3.851   3.736   0.853 -0.1383  0.3008  0.1082
   86MOL     H832478   3.626   3.548   0.446 -0.0539 -0.0343 -0.5109
   86MOL     H932479   3.695   3.653   0.323 -0.6005  2.0135  2.9787
   86MOL    H1032480   3.930   3.580   0.438  0.6959 -0.4705 -0.0325
   86MOL    H1132481   3.968   3.816   0.528  2.7400  0.6459  1.7689
   86MOL    H1232482   4.004   3.689   0.642 -0.3479 -2.8488 -3.5989
   86MOL    H1332483   3.808   3.906   0.722  1.1899  2.4229  1.1232
   86MOL    H1432484   4.098   3.887   0.816  1.0064  1.8894  0.8869
   86MOL    H1532485   4.031   3.998   0.694 -0.8045  0.3610  0.1444
   86MOL    H1632486   3.986   3.998   0.865 -1.3365 -0.3699  0.4022
   86MOL    H1732487   3.943   3.702   0.901  0.3858  0.2829 -0.8860
   86MOL    H1832488   3.793   3.788   0.929  1.6537  0.3710  1.4789
   86MOL    H1932489   3.810   3.643   0.814  2.1072 -0.6143 -0.1511
   86MOL    H2032490   3.712   3.472   0.327 -1.6019  0.2890  0.2763
   86MOL    C2132491   3.840   3.454   0.578 -0.3164  0.5509  0.1187
   86MOL    C2232492   3.876   3.318   0.512 -0.5594 -0.9586 -0.0134
   86MOL    O2332493   4.016   3.320   0.469  0.3780 -0.3900  0.2219
   86MOL    C2432494   4.127   3.322   0.566 -0.0486 -0.0183 -0.2012
   86MOL    C2532495   4.250   3.306   0.477  0.5515 -0.2201  0.4869
   86MOL    C2632496   4.274   3.445   0.418  0.5837 -0.1684  0.2940
   86MOL    C2732497   4.365   3.252   0.561 -0.6537  0.0738  0.0629
   86MOL    H2832498   3.922   3.481   0.644  0.2470  1.4829 -0.9552
   86MOL    H2932499   3.757   3.454   0.649  1.1555 -0.3637  1.9089
   86MOL    H3032500   3.822   3.313   0.418  1.1540  2.0112 -1.2423
   86MOL    H3132501   4.124   3.233   0.629 -0.1692 -0.6154 -1.0419
   86MOL    H3232502   4.136   3.414   0.623  3.1390 -0.7439  0.6048
   86MOL    H3332503   4.224   3.247   0.389  0.7979  1.7077 -0.8976
   86MOL    H3432504   4.195   3.475   0.350  0.5191  0.0498  0.4672
   86MOL    H3532505   4.368   3.454   0.363  0.1090 -1.5476 -0.7752
   86MOL    H3632506   4.270   3.516   0.501 -1.1376 -0.7944  0.7637
   86MOL    H3732507   4.456   3.266   0.503  0.3641 -1.7172  1.1692
   86MOL    H3832508   4.388   3.299   0.656  1.2944 -0.1152 -0.2960
   86MOL    H3932509   4.340   3.147   0.576  1.0387 -0.2419  0.8346
   86MOL    C4032510   3.840   3.200   0.599 -0.0290  0.1265  0.3344
   86MOL    C4132511   3.892   3.072   0.543 -0.6184  0.6129  0.2796
   86MOL    O4232512   3.803   3.038   0.433 -0.1829  0.0188  0.3717
   86MOL    C4332513   3.864   2.970   0.322 -0.1696 -0.3109  0.4162
   86MOL    C4432514   3.782   3.001   0.194  0.1838 -1.2971  0.4085
   86MOL    C4532515   3.834   3.132   0.138 -0.0254 -0.9767  0.6079
   86MOL    C4632516   3.791   2.881   0.099 -0.1455  0.4475  0.0827
   86MOL    H4732517   3.732   3.192   0.609 -0.0308  0.1447  0.3255
   86MOL    H4832518   3.891   3.215   0.694 -1.6092  1.2779  0.9976
   86MOL    H4932519   3.997   3.079   0.517 -1.2896  0.8168 -2.5670
   86MOL    H5032520   3.878   2.865   0.346  0.4626 -0.1059  0.9697
   86MOL    H5132521   3.965   3.005   0.305 -0.5788  1.0474  0.7166
   86MOL    H5232522   3.677   3.007   0.221  0.0363 -3.1999  0.2853
   86MOL    H5332523   3.769   3.151   0.053  1.5272 -0.3322 -0.4444
   86MOL    H5432524   3.828   3.207   0.217 -2.1076 -2.6134  2.0572
   86MOL    H5532525   3.932   3.133   0.092 -0.1194 -1.5612  0.3898
   86MOL    H5632526   3.893   2.867   0.066  0.3564  2.7770  0.5415
   86MOL    H5732527   3.731   2.883   0.008  0.0152 -0.1586 -0.0358
   86MOL    H5832528   3.769   2.790   0.155 -0.2804  1.1891  1.2471
   86MOL    C5932529   3.873   2.961   0.651  0.0477 -0.1104 -0.2670
   86MOL    C6032530   3.981   2.957   0.771  0.5433  0.3501  0.4928
   86MOL    O6132531   4.081   2.854   0.723 -0.4699 -0.3369 -0.2707
   86MOL    C6232532   4.192   2.828   0.801  0.1850 -0.1080 -0.4999
   86MOL    C6332533   4.272   2.736   0.710 -0.7186  0.2980 -0.3652
   86MOL    C6432534   4.311   2.810   0.589 -0.4492 -0.0516 -0.4963
   86MOL    C6532535   4.390   2.692   0.795 -0.5020 -0.0716  0.3561
   86MOL    H6632536   3.869   2.864   0.601 -1.1092  0.8309 -2.0642
   86MOL    H6732537   3.772   2.952   0.690  0.6059  1.7567  1.6832
   86MOL    H6832538   4.029   3.055   0.763 -0.9350  1.1234  0.9108
   86MOL    H6932539   4.239   2.925   0.818 -2.6791  1.6617 -2.2682
   86MOL    H7032540   4.148   2.783   0.890  1.1371  0.0566  0.0704
   86MOL    H7132541   4.210   2.647   0.695  0.7632 -0.7847 -0.1528
   86MOL    H7232542   4.396   2.877   0.605 -0.3969 -0.6292  1.7142
   86MOL    H7332543   4.240   2.873   0.535  1.5122  1.8201 -0.9673
   86MOL    H7432544   4.348   2.736   0.517 -1.2545 -1.0860  0.1564
   86MOL    H7532545   4.426   2.769   0.863 -0.6356 -0.8377  1.2878
   86MOL    H7632546   4.365   2.611   0.863  1.4173 -0.8648  0.1561
   86MOL    H7732547   4.476   2.658   0.737 -0.4433  0.3411  0.1983
   86MOL    C7832548   3.915   2.925   0.903  0.3870  0.7939 -0.0463
   86MOL    C7932549   3.828   3.040   0.958  0.6754 -0.7523  0.0056
   86MOL    O8032550   3.766   2.996   1.080  0.0441 -0.3451 -0.1524
   86MOL    C8132551   3.632   2.955   1.064 -0.0290 -0.4527 -0.5324
   86MOL    C8232552   3.560   2.916   1.194  0.2096  0.6382 -0.3234
   86MOL    C8332553   3.427   2.857   1.173 -0.4515  0.0181 -0.3922
   86MOL    C8432554   3.548   3.047   1.279 -0.3440  0.4590  0.1842
   86MOL    H8532555   3.998   2.913   0.973  0.2849 -0.9912 -0.1979
   86MOL    H8632556   3.870   2.825   0.906  3.0829 -0.4459  0.6862
   86MOL    H8732557   3.753   3.061   0.882  0.7322 -2.1067 -0.4403
   86MOL    H8832558   3.571   3.032   1.017  0.8151  0.7951  0.3835
   86MOL    H8932559   3.620   2.870   0.996  0.5019  0.3696 -1.6611
   86MOL    H9032560   3.622   2.852   1.255 -0.3319 -2.5072 -2.9286
   86MOL    H9132561   3.435   2.764   1.118 -1.8277 -0.0251 -0.5419
   86MOL    H9232562   3.357   2.927   1.127 -0.0394  1.0941  0.5780
   86MOL    H9332563   3.383   2.845   1.272  2.1370 -1.5955  0.6258
   86MOL    H9432564   3.651   3.069   1.306 -0.6156  1.0394  0.7445
   86MOL    H9532565   3.490   3.035   1.370  1.9307  1.0001  1.7384
   86MOL    H9632566   3.490   3.111   1.212 -0.3393  0.0607 -0.2062
   86MOL    C9732567   3.896   3.174   0.988  0.1857  0.2007  0.0561
   86MOL    C9832568   3.801   3.286   1.037 -0.7610 -0.0985 -0.0986
   86MOL    O9932569   3.701   3.338   0.949  0.5038  0.2050 -0.2859
   86MOL   C10032570   3.581   3.387   1.002  0.4595 -0.3895 -1.3116
   86MOL   C10132571   3.489   3.452   0.896 -0.4573 -0.5584 -0.0784
   86MOL   C10232572   3.420   3.356   0.799 -0.1107  0.1378 -0.6546
   86MOL   C10332573   3.388   3.548   0.968 -0.4226  0.0591  0.3830
   86MOL   H10432574   3.966   3.202   0.909 -0.1477 -2.4019 -1.2184
   86MOL   H10532575   3.977   3.155   1.059 -0.9161 -0.6178  1.1145
   86MOL   H10632576   3.738   3.238   1.112  0.0079 -0.0615  0.5831
   86MOL   H10732577   3.606   3.468   1.070 -2.0296 -1.0649  0.4948
   86MOL   H10832578   3.526   3.306   1.050  2.1143  0.3036  1.8700
   86MOL   H10932579   3.556   3.519   0.843  0.0867  0.1134  1.4343
   86MOL   H11032580   3.350   3.303   0.864 -1.4738  4.5091  1.6153
   86MOL   H11132581   3.354   3.407   0.730 -2.2591 -2.4231 -0.5862
   86MOL   H11232582   3.465   3.275   0.741  3.1188  0.4087  1.3258
   86MOL   H11332583   3.347   3.493   1.054  1.5082 -0.0454  1.2538
   86MOL   H11432584   3.439   3.638   1.001  1.2927 -1.8784  3.3668
   86MOL   H11532585   3.304   3.574   0.903 -2.0017  0.4847  2.5092
   86MOL   C11632586   3.883   3.406   1.093 -0.1101  0.4382 -0.3520
   86MOL   C11732587   3.957   3.372   1.227 -0.8350  0.1406 -0.1739
   86MOL   O11832588   4.040   3.489   1.240  0.3859  0.6606 -0.3434
   86MOL   C11932589   4.174   3.451   1.217  0.2512  0.8152 -0.6125
   86MOL   C12032590   4.265   3.565   1.253  0.0117 -0.1669 -0.1086
   86MOL   C12132591   4.401   3.526   1.303  0.1213 -0.0102 -0.9797
   86MOL   C12232592   4.282   3.663   1.138 -0.5847 -0.5565 -0.0855
   86MOL   H12332593   3.960   3.441   1.024  0.7590  0.4573  0.6086
   86MOL   H12432594   3.808   3.483   1.110 -1.0364 -0.2293 -1.3972
   86MOL   H12532595   4.016   3.281   1.230 -2.1752 -0.7246  0.6038
   86MOL   H12632596   4.196   3.421   1.114 -0.4054  3.6102 -1.6153
   86MOL   H12732597   4.193   3.375   1.293 -1.2540  0.4122 -0.6335
   86MOL   H12832598   4.222   3.611   1.343 -1.4189 -0.0551 -0.8348
   86MOL   H12932599   4.392   3.465   1.393  1.7825  1.2278  0.0581
   86MOL   H13032600   4.458   3.614   1.333 -1.2427  0.9252 -1.0295
   86MOL   H13132601   4.470   3.478   1.235 -0.8788 -0.5317 -1.6400
   86MOL   H13232602   4.337   3.753   1.167  0.6646 -0.9211 -1.2646
   86MOL   H13332603   4.328   3.620   1.050  1.9334 -0.5853  1.1893
   86MOL   H13432604   4.180   3.691   1.116 -0.8294 -0.4612  1.1030
   86MOL   C13532605   3.862   3.342   1.341  0.7774  0.2673 -0.6529
   86MOL   C13632606   3.924   3.306   1.481  0.0851  0.2500 -0.6303
   86MOL   O13732607   4.009   3.197   1.472 -0.7584 -0.3117  0.2244
   86MOL   C13832608   3.934   3.077   1.482  0.0102  0.3748  0.0747
   86MOL   C13932609   4.037   2.963   1.491  0.1691  0.0104  0.1062
   86MOL   C14032610   4.141   2.960   1.364  0.1253 -0.1494 -0.0324
   86MOL   C14132611   4.112   2.977   1.630  0.2452 -0.5245  0.2531
   86MOL   H14232612   3.806   3.435   1.352 -0.6571 -0.3899 -2.1912
   86MOL   H14332613   3.785   3.268   1.320 -0.0274  1.3124 -1.4427
   86MOL   H14432614   3.838   3.274   1.540  0.2161 -0.7394 -0.9563
   86MOL   H14532615   3.877   3.070   1.390  2.3841  1.9251 -1.5714
   86MOL   H14632616   3.860   3.074   1.562 -0.6258  0.9026 -0.4888
   86MOL   H14732617   3.987   2.866   1.494 -0.1722  0.2036  0.7848
   86MOL   H14832618   4.174   3.063   1.347  0.1508 -0.4345 -1.8110
   86MOL   H14932619   4.078   2.924   1.283 -1.0284  1.2022  0.2501
   86MOL   H15032620   4.228   2.897   1.381 -0.2562 -0.3291  1.2705
   86MOL   H15132621   4.041   2.993   1.711 -0.5622  0.6852 -0.6731
   86MOL   H15232622   4.155   2.877   1.639 -1.0879 -1.1760 -0.4845
   86MOL   H15332623   4.192   3.051   1.639  1.7030 -2.0104 -0.3010
   86MOL   C15432624   3.993   3.417   1.553  0.2230 -0.0912 -0.0218
   86MOL   C15532625   4.007   3.388   1.706  0.1105 -0.3918  0.0061
   86MOL   O15632626   4.105   3.470   1.764 -0.1916 -0.5541 -1.0997
   86MOL   C15732627   4.241   3.427   1.768 -0.1455  0.3970  0.6257
   86MOL   C15832628   4.338   3.544   1.735 -0.4873  0.2849  0.2459
   86MOL   C15932629   4.349   3.646   1.844 -0.0383 -0.0804 -0.2497
   86MOL   C16032630   4.476   3.496   1.703 -0.5748 -0.7015 -0.6027
   86MOL   H16132631   3.949   3.512   1.524 -0.6757 -0.2791  0.6834
   86MOL   H16232632   4.095   3.416   1.514  0.2754 -2.2743  0.0984
   86MOL   H16332633   4.036   3.284   1.721 -0.5230 -0.2141  2.7955
   86MOL   H16432634   4.254   3.341   1.702  1.7465 -0.4185  2.0317
   86MOL   H16532635   4.269   3.386   1.865  1.3776  1.3804  0.6281
   86MOL   H16632636   4.303   3.587   1.642 -1.9474  0.2076  0.7337
   86MOL   H16732637   4.406   3.734   1.813  1.8950 -1.4993 -0.8689
   86MOL   H16832638   4.386   3.595   1.933 -0.4242  1.4982  0.8205
   86MOL   H16932639   4.253   3.691   1.870 -0.4022 -1.0098  0.0286
   86MOL   H17032640   4.539   3.584   1.688  0.3808 -1.3355 -0.3883
   86MOL   H17132641   4.519   3.441   1.787  0.1449 -0.3105 -0.7110
   86MOL   H17232642   4.491   3.427   1.620 -2.0770 -0.5861 -0.9736
   86MOL   C17332643   3.874   3.419   1.769 -0.0763  0.3140 -0.3812
   86MOL   C17432644   3.883   3.421   1.929 -0.0785  0.1886 -0.8752
   86MOL   O17532645   3.763   3.488   1.974  0.3143  0.4589  0.5622
   86MOL   C17632646   3.775   3.630   1.974  0.0008 -0.1417 -0.0872
   86MOL   C17732647   3.636   3.684   1.923  0.5247  0.0527 -0.2055
   86MOL   C17832648   3.607   3.836   1.956  0.3183 -0.1193 -0.0691
   86MOL   C17932649   3.606   3.643   1.776  0.0163 -0.1553  0.1845
   86MOL   H18032650   3.821   3.504   1.727  1.5774  2.1027  1.0157
   86MOL   H18132651   3.796   3.351   1.737 -0.7170  1.2594 -0.8689
   86MOL   H18232652   3.970   3.481   1.955  0.4852 -1.7698  2.0388
   86MOL   H18332653   3.859   3.664   1.913 -1.0136 -0.8398 -1.8938
   86MOL   H18432654   3.804   3.671   2.071  0.9229  0.2305 -0.5177
   86MOL   H18532655   3.558   3.631   1.979  0.1182  0.6017 -0.2517
   86MOL   H18632656   3.502   3.848   1.979 -0.2319 -0.5991 -2.1970
   86MOL   H18732657   3.676   3.853   2.039  0.8633  0.5666 -0.6524
   86MOL   H18832658   3.649   3.911   1.889  1.1242  1.7850  2.4905
   86MOL   H18932659   3.677   3.685   1.705  0.8866  0.6281  1.5165
   86MOL   H19032660   3.511   3.685   1.742 -1.2374 -1.2062  2.3391
   86MOL   H19132661   3.595   3.534   1.775 -0.8542 -0.1339  3.4518
   86MOL   C19232662   3.898   3.275   1.979  0.1553 -0.6383 -0.2610
   86MOL   C19332663   3.930   3.279   2.127  0.0107 -0.0327  0.0479
   86MOL   O19432664   4.051   3.361   2.150  0.0508  1.0174  0.0149
   86MOL   C19532665   4.024   3.463   2.245 -0.2335 -0.1252  0.0184
   86MOL   C19632666   4.154   3.532   2.286 -1.3628  1.0371 -0.0672
   86MOL   C19732667   4.121   3.631   2.405  0.2951  0.1230 -0.1841
   86MOL   C19832668   4.234   3.591   2.170 -0.8393 -0.9063  0.1494
   86MOL   H19932669   3.990   3.243   1.931 -0.1198 -0.3409 -0.9902
   86MOL   H20032670   3.820   3.206   1.946 -0.0657 -0.6718  0.3305
   86MOL   H20132671   3.841   3.312   2.181  0.7268  2.3249 -0.1639
   86MOL   H20232672   3.970   3.430   2.333  1.3670 -1.5269  0.4943
   86MOL   H20332673   3.962   3.535   2.191 -0.2650 -0.2594 -0.1239
   86MOL   H20432674   4.210   3.448   2.327 -0.7815  1.8870  0.9137
   86MOL   H20532675   4.067   3.721   2.375 -0.0611  0.5752  1.7366
   86MOL   H20632676   4.062   3.578   2.479 -0.3501  1.3687  0.2182
   86MOL   H20732677   4.215   3.649   2.456 -0.9461 -1.6811  2.8978
   86MOL   H20832678   4.276   3.517   2.102  0.1851  0.8459 -1.1816
   86MOL   H20932679   4.166   3.642   2.102  1.3146  0.6728 -0.9023
   86MOL   H21032680   4.313   3.661   2.198 -1.6436  0.3920 -0.7566
   86MOL   C21132681   3.958   3.133   2.173 -0.3052  0.2586 -0.0987
   86MOL   C21232682   3.990   3.117   2.325  0.3826  1.0388  0.4510
   86MOL   O21332683   3.868   3.126   2.386  0.6245  0.1355 -0.0657
   86MOL   C21432684   3.857   3.187   2.517  0.4242 -0.2152 -0.0117
   86MOL   C21532685   3.712   3.204   2.560 -0.2309  0.1996  0.2746
   86MOL   C21632686   3.643   3.072   2.563  0.4602 -0.0553 -0.1118
   86MOL   C21732687   3.701   3.270   2.699  0.1539  0.1726 -0.2150
   86MOL   H21832688   4.048   3.097   2.124 -0.5982  0.0187 -0.4629
   86MOL   H21932689   3.884   3.061   2.137  0.6825 -1.3421  1.0006
   86MOL   H22032690   4.050   3.198   2.366  0.0447  0.4961  2.0479
   86MOL   H22132691   3.905   3.284   2.507  1.5165 -0.5831  1.5595
   86MOL   H22232692   3.907   3.125   2.592  0.9720  0.1407 -0.0846
   86MOL   H22332693   3.662   3.255   2.478  0.5281  1.5662  0.6409
   86MOL   H22432694   3.550   3.079   2.619  0.4690  0.7674 -0.1929
   86MOL   H22532695   3.618   3.052   2.460  0.1114 -0.5108  0.0629
   86MOL   H22632696   3.702   2.989   2.603  0.5450 -0.3276 -0.8085
   86MOL   H22732697   3.599   3.288   2.732  0.1413  0.1582 -0.2466
   86MOL   H22832698   3.749   3.368   2.708  0.1993  0.1369 -0.0745
   86MOL   H22932699   3.748   3.208   2.775 -0.5232 -0.4234 -0.2769
   86MOL   C23032700   4.064   2.987   2.373 -0.0759 -0.1409  0.3513
   86MOL   C23132701   4.208   2.967   2.325  0.3770 -0.0848  0.0331
   86MOL   O23232702   4.213   2.924   2.183 -0.8913 -0.2186 -0.1788
   86MOL   C23332703   4.303   2.809   2.161  0.4130 -0.0555 -0.8355
   86MOL   C23432704   4.275   2.776   2.007 -0.0691  0.2884  0.3345
   86MOL   C23532705   4.381   2.680   1.955 -0.2827 -0.3393  0.3648
   86MOL   C23632706   4.136   2.718   1.974 -0.1296 -0.4649  0.3354
   86MOL   H23732707   4.004   2.903   2.341 -2.8870  2.0182 -0.2404
   86MOL   H23832708   4.067   2.991   2.482 -1.2633 -1.0585  0.4227
   86MOL   H23932709   4.251   2.890   2.389  0.7999  0.9304  0.9934
   86MOL   H24032710   4.409   2.825   2.181 -0.0914  1.5884  0.6021
   86MOL   H24132711   4.267   2.731   2.228  2.0966 -0.4242 -0.3296
   86MOL   H24232712   4.295   2.871   1.957  0.8296  0.1620  0.4532
   86MOL   H24332713   4.371   2.582   2.001 -0.4853 -0.5158 -0.0438
   86MOL   H24432714   4.481   2.714   1.979 -0.3027 -0.6141  0.8308
   86MOL   H24532715   4.362   2.660   1.849 -1.1531 -3.0018  0.9976
   86MOL   H24632716   4.058   2.768   2.032  1.2666  1.3013  0.7465
   86MOL   H24732717   4.116   2.720   1.867 -0.1383 -1.1634  0.3216
   86MOL   H24832718   4.145   2.616   2.012 -0.5907  0.2706  2.5156
   86MOL   C24932719   4.295   3.095   2.344 -0.2087 -0.1870 -0.0817
   86MOL   C25032720   4.333   3.113   2.496  0.4904  0.0040 -0.1310
   86MOL   O25132721   4.427   3.018   2.531 -0.4050 -0.6672 -0.4778
   86MOL   C25232722   4.399   2.951   2.655 -0.1769  0.0479  0.6363
   86MOL   C25332723   4.507   2.852   2.680 -0.2357  0.8703  0.5218
   86MOL   C25432724   4.639   2.920   2.685  0.0784 -0.0895 -0.1399
   86MOL   C25532725   4.499   2.742   2.587 -0.5744  0.0011  0.1350
   86MOL   H25632726   4.265   3.189   2.298 -0.1801 -0.2258 -0.1787
   86MOL   H25732727   4.383   3.081   2.281 -0.9222  0.5031 -1.2569
   86MOL   H25832728   4.252   3.104   2.569  0.2819 -0.1588 -0.3839
   86MOL   H25932729   4.403   3.022   2.737  0.8095  0.3533  0.3213
   86MOL   H26032730   4.300   2.905   2.655 -0.5651  0.8309  2.3145
   86MOL   H26132731   4.473   2.812   2.776 -1.8285  0.3692 -0.2360
   86MOL   H26232732   4.666   2.961   2.588 -2.0077 -2.2410 -1.6679
   86MOL   H26332733   4.719   2.856   2.721  0.4943 -1.2465 -2.9967
   86MOL   H26432734   4.628   3.004   2.754  1.9874  0.6916 -0.7437
   86MOL   H26532735   4.556   2.657   2.623 -0.7604 -0.4110 -0.5347
   86MOL   H26632736   4.399   2.718   2.552 -0.0911 -2.8179  0.5353
   86MOL   H26732737   4.558   2.773   2.500  0.6405  1.8979  1.5814
   86MOL   C26832738   4.400   3.248   2.510 -0.0637  0.0353 -0.2739
   86MOL   C26932739   4.392   3.307   2.658  0.0905  0.1411  1.0126
   86MOL   O27032740   4.248   3.337   2.674 -0.0418  0.2520  0.2397
   86MOL   C27132741   4.195   3.285   2.796  0.0493  0.2239  0.3569
   86MOL   C27232742   4.050   3.339   2.823  0.5459 -0.2868 -0.0296
   86MOL   C27332743   4.021   3.290   2.957 -0.5066 -0.3116 -0.8859
   86MOL   C27432744   4.033   3.486   2.802 -0.6616 -0.2763  0.4275
   86MOL   H27532745   4.380   3.319   2.430 -2.2521 -1.8634 -1.4591
   86MOL   H27632746   4.507   3.230   2.499  0.2340  0.7425  1.2155
   86MOL   H27732747   4.417   3.233   2.734 -2.1113 -2.7292 -0.9501
   86MOL   H27832748   4.207   3.177   2.801  0.0120  0.0304 -2.5242
   86MOL   H27932749   4.257   3.322   2.877  0.1534  0.7549  0.0367
   86MOL   H28032750   3.991   3.293   2.743  0.3816 -1.0243  0.5013
   86MOL   H28132751   4.045   3.183   2.960  1.7501  0.1853  0.0772
   86MOL   H28232752   3.914   3.307   2.964 -0.2282  0.8596  1.1012
   86MOL   H28332753   4.071   3.345   3.037  0.2372 -0.5860 -1.1554
   86MOL   H28432754   4.010   3.504   2.697 -0.2507 -1.1848  0.1824
   86MOL   H28532755   4.119   3.546   2.834 -2.2247  3.6545 -2.3001
   86MOL   H28632756   3.948   3.532   2.853  0.0285  0.8991  0.5476
   86MOL   C28732757   4.466   3.443   2.667  0.0042 -0.1923 -0.5430
   86MOL   C28832758   4.486   3.496   2.808  0.4631 -0.5490  0.4173
   86MOL   O28932759   4.529   3.632   2.781  0.0126 -0.5560 -0.5148
   86MOL   C29032760   4.418   3.722   2.785 -0.4765  0.1727  0.1637
   86MOL   C29132761   4.456   3.871   2.761 -0.4946  0.1397  0.9767
   86MOL   C29232762   4.527   3.884   2.624 -0.8544  0.0362  0.3854
   86MOL   C29332763   4.542   3.923   2.879 -0.3672 -0.3125  0.5465
   86MOL   H29432764   4.416   3.514   2.601 -2.3942 -0.4172  0.9895
   86MOL   H29532765   4.561   3.413   2.622 -0.4767 -0.4620 -1.3926
   86MOL   H29632766   4.391   3.496   2.863 -0.5803 -0.9633 -1.3508
   86MOL   H29732767   4.346   3.683   2.714 -0.5264  1.9976 -0.8164
   86MOL   H29832768   4.356   3.712   2.874  0.1707 -1.3420  0.4610
   86MOL   H29932769   4.365   3.930   2.755 -0.1087  0.5990 -0.4810
   86MOL   H30032770   4.471   3.850   2.538  2.2159 -1.3670 -1.1449
   86MOL   H30132771   4.622   3.831   2.631 -0.5380  0.5044 -0.4179
   86MOL   H30232772   4.545   3.989   2.600  0.5369  0.0232  1.2656
   86MOL   H30332773   4.644   3.886   2.875 -1.1292 -2.3788 -1.1506
   86MOL   H30432774   4.558   4.030   2.882 -0.1678 -0.3176 -0.4517
   86MOL   H30532775   4.485   3.895   2.968  0.9294  0.4198  1.6100
   86MOL   C30632776   4.603   3.413   2.873 -0.1001 -0.0903 -0.7283
   86MOL   C30732777   4.640   3.466   3.010  1.0990 -0.6815 -0.5890
   86MOL   O30832778   4.519   3.468   3.088  0.0233  0.5382  0.1246
   86MOL   C30932779   4.485   3.595   3.140  0.1923  0.1901  0.0798
   86MOL   C31032780   4.345   3.592   3.206 -0.2124  0.0559  0.4067
   86MOL   C31132781   4.337   3.492   3.325 -0.0307  0.0564 -0.3203
   86MOL   C31232782   4.242   3.557   3.100 -0.0978  0.4553  0.1546
   86MOL   H31332783   4.695   3.407   2.814 -0.6487 -2.3239 -1.4271
   86MOL   H31432784   4.559   3.314   2.887  3.3328 -1.8790 -1.9557
   86MOL   H31532785   4.663   3.572   2.996  0.6305 -0.4831  0.1181
   86MOL   H31632786   4.477   3.663   3.055 -0.1541  0.1992  0.1191
   86MOL   H31732787   4.568   3.621   3.207 -1.2831  2.8740  0.9320
   86MOL   H31832788   4.313   3.692   3.236  0.1423 -0.3351  2.1023
   86MOL   H31932789   4.375   3.549   3.410 -0.7191  0.7384 -0.4585
   86MOL   H32032790   4.407   3.409   3.317  1.4075  1.3807 -1.7714
   86MOL   H32132791   4.232   3.460   3.330  0.4769 -1.6545 -0.1741
   86MOL   H32232792   4.143   3.561   3.145  0.0980 -1.5804  0.8458
   86MOL   H32332793   4.258   3.456   3.061 -0.5634 -0.1561  1.4975
   86MOL   H32432794   4.243   3.622   3.013 -1.3708 -1.7080 -1.5317
   86MOL   C32532795   4.736   3.374   3.087 -0.3523  0.0337  0.1701
   86MOL   C32632796   4.803   3.440   3.214 -0.4129 -0.3701 -0.2776
   86MOL   O32732797   4.861   3.334   3.292  0.3427 -0.2644  0.1117
   86MOL   C32832798   4.779   3.268   3.383  0.1531 -0.5955 -0.5232
   86MOL   C32932799   4.848   3.157   3.464  0.5355  0.2553 -0.1925
   86MOL   C33032800   4.966   3.208   3.532  0.0590  0.1808 -0.1096
   86MOL   C33132801   4.753   3.085   3.556 -0.3753 -0.2904 -0.2001
   86MOL   H33232802   4.819   3.334   3.028 -0.7172  2.3030 -1.9894
   86MOL   H33332803   4.684   3.280   3.105  2.9320 -2.0621 -0.8664
   86MOL   H33432804   4.729   3.499   3.267  0.0054 -1.6391  1.7704
   86MOL   H33532805   4.723   3.334   3.450 -0.9621  0.5993 -2.6021
   86MOL   H33632806   4.701   3.216   3.327 -0.2685 -0.1117 -0.3931
   86MOL   H33732807   4.886   3.086   3.390  0.6349 -1.3702  1.3878
   86MOL   H33832808   5.045   3.251   3.470  1.1695 -1.7483 -0.0512
   86MOL   H33932809   4.938   3.299   3.586 -1.6962  0.1107 -0.9081
   86MOL   H34032810   5.000   3.134   3.605  0.2545  0.3047 -0.0737
   86MOL   H34132811   4.722   3.161   3.628 -0.7025  0.3585 -1.0154
   86MOL   H34232812   4.667   3.055   3.496  0.2322 -0.1033 -1.1745
   86MOL   H34332813   4.810   3.016   3.617 -0.4891  1.9462  2.5259
   86MOL   C34432814   4.926   3.536   3.183 -0.2680  0.1280 -0.0304
   86MOL   C34532815   4.966   3.629   3.294 -0.0371 -0.9770 -0.2551
   86MOL   O34632816   4.864   3.726   3.318  0.1160  0.0801 -0.0513
   86MOL   C34732817   4.883   3.850   3.250  0.0873 -0.6072 -0.3035
   86MOL   C34832818   4.807   3.958   3.332 -0.5536 -0.6461  0.1567
   86MOL   C34932819   4.791   4.084   3.244 -1.6155  0.3378 -0.2224
   86MOL   C35032820   4.873   3.991   3.468 -0.2553 -0.2591  0.4533
   86MOL   H35132821   4.905   3.580   3.086 -2.2693  1.4869  0.9816
   86MOL   H35232822   5.019   3.478   3.174 -0.6109 -0.3694 -0.4136
   86MOL   H35332823   5.058   3.678   3.262  0.7646 -3.0920 -1.2879
   86MOL   H35432824   4.844   3.846   3.149  0.1560  0.5947 -0.3803
   86MOL   H35532825   4.988   3.880   3.247  0.2049 -1.2164 -3.5891
   86MOL   H35632826   4.708   3.918   3.354  1.0667 -4.5067  0.7991
   86MOL   H35732827   4.895   4.105   3.217 -0.8445 -1.5944  1.1164
   86MOL   H35832828   4.756   4.168   3.304 -1.3669  1.1500 -1.1906
   86MOL   H35932829   4.737   4.056   3.154 -0.9625  2.1099 -1.1882
   86MOL   H36032830   4.818   4.066   3.525 -2.1092 -0.7482 -0.6110
   86MOL   H36132831   4.873   3.900   3.528 -2.7148 -1.1260 -0.7522
   86MOL   H36232832   4.969   4.039   3.454 -0.4355  0.3526  1.3274
   86MOL   C36332833   5.018   3.560   3.425 -0.7025 -0.5977 -0.0127
   86MOL   C36432834   5.115   3.650   3.504  0.3586  0.3231 -0.1344
   86MOL   O36532835   5.233   3.654   3.420  0.3669  0.2041  0.3776
   86MOL   C36632836   5.335   3.734   3.473  0.0697  0.3547 -0.2714
   86MOL   C36732837   5.439   3.774   3.369 -0.1420 -0.3622  0.2546
   86MOL   C36832838   5.551   3.674   3.344  0.1482  0.1754 -0.4057
   86MOL   C36932839   5.493   3.916   3.404 -0.2131  0.6383 -0.2660
   86MOL   H37032840   4.939   3.532   3.495 -0.1043 -2.7517 -0.1760
   86MOL   H37132841   5.057   3.463   3.395  1.5097  0.4554 -0.6558
   86MOL   H37232842   5.146   3.633   3.607  2.1603 -0.4797 -0.7897
   86MOL   H37332843   5.299   3.829   3.512 -0.2913  0.1878 -0.1928
   86MOL   H37432844   5.392   3.682   3.550  0.0434 -2.8893 -2.3328
   86MOL   H37532845   5.389   3.782   3.273 -0.2890 -1.7150  0.2173
   86MOL   H37632846   5.618   3.705   3.264 -1.2821  0.4230 -1.5226
   86MOL   H37732847   5.515   3.572   3.334  1.3860 -0.4814  1.6495
   86MOL   H37832848   5.610   3.673   3.435 -1.4410  3.0365  0.7300
   86MOL   H37932849   5.414   3.991   3.402  0.3250  1.2461  0.6717
   86MOL   H38032850   5.567   3.944   3.329 -0.8026  1.5709 -0.5006
   86MOL   H38132851   5.546   3.930   3.498 -0.6192 -1.2822  0.2698
   86MOL   H38232852   5.086   3.755   3.497 -0.1116  0.2002 -0.0403
   87MOL     C132853   3.786   0.519   7.807 -0.5754  0.0443 -0.5284
   87MOL     C232854   3.669   0.539   0.073 -0.3243  0.0412  0.0327
   87MOL     O332855   3.626   0.670   0.031 -0.0192  0.0395 -0.3918
   87MOL     C432856   3.630   0.768   0.129  0.3872  0.3874 -0.5360
   87MOL     C532857   3.531   0.751   0.248  0.0563 -0.1085  0.4875
   87MOL     C632858   3.388   0.782   0.212  0.4983 -0.0058  0.0035
   87MOL     C732859   3.581   0.833   0.370 -0.3350  0.5921 -0.0483
   87MOL     H832860   3.848   0.609   7.807  0.2904 -0.5283 -2.0102
   87MOL     H932861   3.844   0.442   0.033 -0.4344  0.5047  0.0131
   87MOL    H1032862   3.709   0.534   0.174 -1.4696  1.2176  0.5681
   87MOL    H1132863   3.609   0.867   0.089  1.1469  0.4029 -0.8951
   87MOL    H1232864   3.735   0.765   0.156  0.1714 -2.6955  0.1794
   87MOL    H1332865   3.525   0.648   0.285 -1.0478  0.4064  1.7659
   87MOL    H1432866   3.357   0.698   0.149  0.3569  0.6143 -0.7597
   87MOL    H1532867   3.319   0.783   0.296  0.7284 -1.8606  0.2410
   87MOL    H1632868   3.377   0.871   0.149  1.7958  1.3350  1.6422
   87MOL    H1732869   3.605   0.935   0.340  2.9413  0.1697  0.9051
   87MOL    H1832870   3.510   0.830   0.453  0.0484 -1.1833  0.2376
   87MOL    H1932871   3.679   0.800   0.403 -0.3803  1.3819  0.8939
   87MOL    H2032872   3.765   0.482   7.706 -0.8587 -0.9652 -0.1061
   87MOL    C2132873   3.556   0.434   0.046 -0.5138  0.1324  0.5171
   87MOL    C2232874   3.611   0.287   0.046  0.1871  0.3483 -0.5128
   87MOL    O2332875   3.646   0.254   0.180  0.4760  0.5589 -0.3572
   87MOL    C2432876   3.772   0.190   0.178 -0.3569  0.6408 -0.0537
   87MOL    C2532877   3.810   0.131   0.311 -0.6599 -0.1918 -0.7616
   87MOL    C2632878   3.831   0.237   0.424 -0.0718  0.0142 -0.1196
   87MOL    C2732879   3.718   0.017   0.360 -0.0373 -0.1268  0.5068
   87MOL    H2832880   3.471   0.442   0.115  1.0513 -0.6577  2.5933
   87MOL    H2932881   3.504   0.457   7.777 -0.0765 -1.7678 -0.2197
   87MOL    H3032882   3.697   0.281   7.804  2.4249 -0.8296  2.3550
   87MOL    H3132883   3.852   0.255   0.143 -0.0496  1.9810  2.9797
   87MOL    H3232884   3.771   0.104   0.111 -1.1200  1.3199 -0.9297
   87MOL    H3332885   3.908   0.085   0.293 -0.0168  1.4922 -1.7236
   87MOL    H3432886   3.890   0.319   0.385  2.0574 -1.3702  0.1119
   87MOL    H3532887   3.878   0.180   0.505 -0.4363 -1.2287 -0.7709
   87MOL    H3632888   3.733   0.265   0.463 -0.0072 -3.0747  2.5449
   87MOL    H3732889   3.706   7.762   0.287 -2.1869 -1.3057  2.0942
   87MOL    H3832890   3.758   7.804   0.454  0.6703  0.4809  0.4489
   87MOL    H3932891   3.615   0.041   0.388 -0.9379 -0.6526 -2.2314
   87MOL    C4032892   3.496   0.186   0.022 -0.1414  0.1979 -0.4462
   87MOL    C4132893   3.435   0.162   7.695  0.3843 -0.2660  0.1523
   87MOL    O4232894   3.326   0.077   7.719  0.2309  0.4504 -0.3122
   87MOL    C4332895   3.210   0.103   7.644  0.3801  0.0006  0.2768
   87MOL    C4432896   3.110   0.199   7.719 -0.0178 -1.0554 -0.3204
   87MOL    C4532897   2.977   0.227   7.643 -0.3346  0.2829  0.4055
   87MOL    C4632898   3.076   0.160   0.036  0.2355 -0.6317 -0.3833
   87MOL    H4732899   3.417   0.198   0.095 -0.2376  0.7983 -0.6478
   87MOL    H4832900   3.531   0.086   0.047 -0.5853 -0.3087 -1.7521
   87MOL    H4932901   3.397   0.259   7.661  1.4957 -0.3592 -1.3773
   87MOL    H5032902   3.159   0.010   7.616  0.8596 -0.1689 -0.0389
   87MOL    H5132903   3.245   0.139   7.548 -3.5336  1.6953 -0.6084
   87MOL    H5232904   3.156   0.297   7.732 -1.0611 -0.5926 -0.1494
   87MOL    H5332905   3.000   0.273   7.547 -0.6531 -2.4928 -1.0220
   87MOL    H5432906   2.926   0.134   7.622  0.4411  0.0863 -0.6474
   87MOL    H5532907   2.905   0.289   7.698 -1.9415 -1.2574  0.0947
   87MOL    H5632908   3.015   0.242   0.074 -0.0503 -1.7862  1.7519
   87MOL    H5732909   3.155   0.140   0.109  0.1269 -1.6958 -0.5509
   87MOL    H5832910   3.002   0.080   0.035  0.9976 -1.3404 -0.5313
   87MOL    C5932911   3.518   0.078   7.599 -0.6114 -0.4275 -0.3385
   87MOL    C6032912   3.606   0.150   7.507  0.0127 -0.3622 -0.1575
   87MOL    O6132913   3.527   0.241   7.428 -0.3654  0.6251  0.2469
   87MOL    C6232914   3.594   0.364   7.396 -0.0730  0.3154  0.3213
   87MOL    C6332915   3.496   0.446   7.308 -0.4622 -0.1434 -0.0575
   87MOL    C6432916   3.529   0.592   7.282 -0.3633 -0.3581 -0.3165
   87MOL    C6532917   3.454   0.370   7.177  0.2799 -0.3498 -0.3441
   87MOL    H6632918   3.445   0.018   7.546 -3.5977  1.9720  0.9343
   87MOL    H6732919   3.578   0.007   7.657 -1.6132 -2.3159 -1.5628
   87MOL    H6832920   3.677   0.205   7.570  1.0435 -1.2449 -0.5452
   87MOL    H6932921   3.622   0.414   7.489  0.6386  1.2578 -0.3886
   87MOL    H7032922   3.688   0.353   7.341  0.0991  0.8529  0.5072
   87MOL    H7132923   3.406   0.460   7.368 -0.1282 -2.2538  0.9914
   87MOL    H7232924   3.557   0.647   7.372  1.3940 -1.0797 -0.4062
   87MOL    H7332925   3.447   0.638   7.227 -0.8880  1.4392  1.8898
   87MOL    H7432926   3.614   0.590   7.214 -1.5113 -0.7161 -1.7754
   87MOL    H7532927   3.540   0.357   7.111  0.2303 -2.3594 -0.0396
   87MOL    H7632928   3.402   0.276   7.197 -2.7587  0.8602 -2.1351
   87MOL    H7732929   3.379   0.426   7.122  0.1980  0.0642  0.1858
   87MOL    C7832930   3.693   0.051   7.426 -0.3154 -0.1929 -0.0120
   87MOL    C7932931   3.804   7.806   7.507 -0.4901  0.5989  0.2076
   87MOL    O8032932   3.864   7.711   7.418  0.1559  0.3509  0.3445
   87MOL    C8132933   3.820   7.575   7.442  0.3223 -0.1307 -0.4148
   87MOL    C8232934   3.901   7.473   7.356  0.2395 -0.6604  0.2949
   87MOL    C8332935   4.050   7.465   7.395 -0.0625 -0.3980 -0.3607
   87MOL    C8432936   3.891   7.493   7.203  0.6369 -0.6468 -0.4742
   87MOL    H8532937   3.749   0.101   7.347  0.9832 -1.2911  0.1880
   87MOL    H8632938   3.638   7.802   7.366 -0.7423 -1.4384  1.8551
   87MOL    H8732939   3.754   7.767   7.595 -0.8193 -0.4043 -0.4096
   87MOL    H8832940   3.820   7.542   7.546 -2.4963  0.5144 -0.1500
   87MOL    H8932941   3.715   7.564   7.415  0.2410 -0.5149  0.0486
   87MOL    H9032942   3.861   7.376   7.385 -0.2852  0.2290  2.6787
   87MOL    H9132943   4.109   7.409   7.322 -1.3301 -2.3900  0.1147
   87MOL    H9232944   4.065   7.416   7.491  0.9864 -0.4147 -0.5205
   87MOL    H9332945   4.091   7.566   7.386 -2.0121  0.2782 -1.9507
   87MOL    H9432946   3.880   7.396   7.154 -1.7457 -1.1720  1.0223
   87MOL    H9532947   3.967   7.561   7.165 -1.2560  0.8391 -1.7812
   87MOL    H9632948   3.794   7.542   7.187  0.8216  0.5918  1.9969
   87MOL    C9732949   3.916   0.075   7.550  0.6296  0.1372  0.3709
   87MOL    C9832950   4.026   0.011   7.634 -0.4357 -0.0771 -0.1885
   87MOL    O9932951   3.981   7.818   7.770  0.0738  0.5138  0.4412
   87MOL   C10032952   4.035   7.703   0.001  0.3515  0.4779  0.0402
   87MOL   C10132953   3.943   7.662   0.110  0.5382  0.4842 -0.8271
   87MOL   C10232954   3.796   7.620   0.067 -0.5915 -0.3532 -0.1753
   87MOL   C10332955   3.999   7.540   0.182 -0.5110 -0.0407 -0.2195
   87MOL   H10432956   3.880   0.165   7.600  3.8583 -0.4494  4.1011
   87MOL   H10532957   3.969   0.107   7.461 -1.0410 -0.2960 -0.7863
   87MOL   H10632958   4.054   7.736   7.598  1.1862 -1.0323  3.4342
   87MOL   H10732959   4.131   7.734   0.043  0.0266  0.4526  0.8150
   87MOL   H10832960   4.051   7.616   7.761 -0.6809 -1.3213  2.1635
   87MOL   H10932961   3.940   7.748   0.176 -1.7140 -0.6783  0.6639
   87MOL   H11032962   3.807   7.534   0.001 -0.8696 -1.4379  1.1677
   87MOL   H11132963   3.739   7.594   0.155  2.6684 -0.2238  2.0785
   87MOL   H11232964   3.733   7.686   0.007 -2.4880 -2.6716 -0.8155
   87MOL   H11332965   4.011   7.454   0.117 -1.2834 -0.5434  0.3019
   87MOL   H11432966   4.101   7.557   0.215 -0.6334  1.0511 -0.3556
   87MOL   H11532967   3.935   7.504   0.263 -0.0403 -1.6465 -0.5571
   87MOL   C11632968   4.156   0.089   7.655 -0.1775 -0.0895  0.0046
   87MOL   C11732969   4.250   0.073   7.537 -0.4311  0.8123 -0.2505
   87MOL   O11832970   4.196   0.141   7.426  0.1765  0.5125 -0.1229
   87MOL   C11932971   4.207   0.067   7.307 -0.5123  0.2126  0.4196
   87MOL   C12032972   4.189   0.168   7.201 -0.2758 -0.3194  0.1607
   87MOL   C12132973   4.280   0.291   7.203  0.1818 -0.3138 -0.7625
   87MOL   C12232974   4.210   0.092   7.065  0.5815 -0.0206  0.4126
   87MOL   H12332975   4.139   0.196   7.668 -3.3811 -0.6925  1.4164
   87MOL   H12432976   4.203   0.055   7.747 -1.0198 -0.2679  0.3822
   87MOL   H12532977   4.265   7.792   7.514 -0.5120  1.2687 -2.4368
   87MOL   H12632978   4.139   7.806   7.315  0.3233 -0.4009  1.0524
   87MOL   H12732979   4.303   0.019   7.291 -1.4168 -2.4454  2.3986
   87MOL   H12832980   4.082   0.189   7.212 -0.5995 -0.0015 -3.0192
   87MOL   H12932981   4.258   0.360   7.121 -0.4714  0.1802 -0.1880
   87MOL   H13032982   4.385   0.263   7.209  0.7983  2.3392  2.5506
   87MOL   H13132983   4.259   0.353   7.291 -2.3038 -1.2904 -0.6065
   87MOL   H13232984   4.158   7.821   7.068  0.3639  0.0350 -1.2556
   87MOL   H13332985   4.175   0.154   6.983  1.1189  1.2880  1.1692
   87MOL   H13432986   4.317   0.088   7.044  0.2959  0.7846 -1.2864
   87MOL   C13532987   4.386   0.139   7.566  0.9604 -0.1822  0.4459
   87MOL   C13632988   4.477   0.058   7.666  0.1367  0.1548  0.1056
   87MOL   O13732989   4.513   7.759   7.593  0.2093  0.3247 -0.2124
   87MOL   C13832990   4.538   7.650   7.684 -0.4505 -0.4021  0.6788
   87MOL   C13932991   4.494   7.510   7.629 -0.3794  0.2812  0.7789
   87MOL   C14032992   4.343   7.497   7.597  1.1355 -0.0395 -0.4712
   87MOL   C14132993   4.584   7.475   7.509 -0.7736  0.4620  0.8566
   87MOL   H14232994   4.449   0.142   7.477 -0.8432 -3.1009 -0.9984
   87MOL   H14332995   4.371   0.243   7.596  0.2316 -0.7019  1.9313
   87MOL   H14432996   4.413   0.042   7.752 -1.2045 -0.5262 -0.9915
   87MOL   H14532997   4.467   7.663   7.766 -2.0032  0.2939 -0.7466
   87MOL   H14632998   4.641   7.647   7.720 -0.5562 -1.9609  0.8866
   87MOL   H14732999   4.503   7.439   7.712 -3.0610  0.9346  1.6595
   87MOL   H14833000   4.332   7.556   7.505  1.3751 -0.2342 -0.6267
   87MOL   H14933001   4.287   7.534   7.683 -0.2093 -0.4558 -1.1520
   87MOL   H15033002   4.340   7.389   7.584 -0.7364 -0.0818  0.2553
   87MOL   H15133003   4.562   7.383   7.455  2.0315 -1.1240  2.2587
   87MOL   H15233004   4.588   7.549   7.430  0.1891  0.7351  1.1462
   87MOL   H15333005   4.685   7.450   7.541 -0.8468  0.4702  1.0985
   87MOL   C15433006   4.600   0.134   7.726  0.1987  1.1237 -0.4578
   87MOL   C15533007   4.564   0.271   7.792 -0.1324 -0.0943  0.6279
   87MOL   O15633008   4.479   0.248   0.069 -0.6300  0.1320 -0.3361
   87MOL   C15733009   4.356   0.325   0.059  0.7414 -0.6562 -0.3606
   87MOL   C15833010   4.258   0.302   0.182  0.2249 -0.1737 -0.4244
   87MOL   C15933011   4.324   0.326   0.321  1.5790 -0.3041  0.1319
   87MOL   C16033012   4.131   0.383   0.172 -0.0647 -0.1539  0.1904
   87MOL   H16133013   4.675   0.159   7.651  1.6155  0.1835  0.6105
   87MOL   H16233014   4.664   0.078   7.794 -0.5961  0.5020 -0.2210
   87MOL   H16333015   4.521   0.346   7.725  0.1735  0.1118  0.6608
   87MOL   H16433016   4.304   0.313   7.789 -0.1810  3.0418 -0.4147
   87MOL   H16533017   4.385   0.430   0.070 -0.9443 -0.3529  1.7266
   87MOL   H16633018   4.220   0.201   0.170 -0.7936  0.2469 -0.8139
   87MOL   H16733019   4.345   0.433   0.334  2.6797 -0.9084  3.7114
   87MOL   H16833020   4.419   0.274   0.311  0.6861 -2.1626  1.1430
   87MOL   H16933021   4.268   0.294   0.408 -0.9539  0.4300 -1.1835
   87MOL   H17033022   4.075   0.379   0.266  1.1330  0.3710  0.9314
   87MOL   H17133023   4.148   0.488   0.149  2.4841 -0.5623  0.0982
   87MOL   H17233024   4.064   0.339   0.098  1.5070 -2.1219 -0.1148
   87MOL   C17333025   4.672   0.350   0.044 -0.0516 -0.0317 -0.2752
   87MOL   C17433026   4.797   0.384   7.776  0.1624  0.0757 -0.0212
   87MOL   O17533027   4.737   0.479   7.685  0.5101  0.3452  0.0549
   87MOL   C17633028   4.787   0.485   7.555 -0.8057  0.0267 -0.4425
   87MOL   C17733029   4.700   0.586   7.473 -0.2096  0.5455  0.3963
   87MOL   C17833030   4.752   0.609   7.327  0.0215  0.0215 -0.7158
   87MOL   C17933031   4.563   0.528   7.470  0.3367  0.0875 -0.0100
   87MOL   H18033032   4.636   0.443   0.087  0.6868 -0.3965  1.1571
   87MOL   H18133033   4.716   0.295   0.127  1.4907 -0.4967 -1.3688
   87MOL   H18233034   4.832   0.308   7.706 -1.0458  1.0829 -1.7604
   87MOL   H18333035   4.792   0.387   7.507  1.6541  0.5175 -1.2748
   87MOL   H18433036   4.887   0.526   7.550  0.4644 -2.4505  2.6373
   87MOL   H18533037   4.696   0.682   7.524 -0.2914 -0.5357  2.4982
   87MOL   H18633038   4.704   0.695   7.282 -0.5055 -0.7975 -1.7394
   87MOL   H18733039   4.857   0.634   7.340 -0.6873  3.1979 -0.7947
   87MOL   H18833040   4.738   0.519   7.267  0.0451  0.9588 -2.1674
   87MOL   H18933041   4.518   0.511   7.568 -0.7981  2.4640 -0.0793
   87MOL   H19033042   4.549   0.431   7.422 -0.1206  0.2602 -0.2297
   87MOL   H19133043   4.497   0.598   7.418  0.9008 -0.3464 -1.3353
   87MOL   C19233044   4.923   0.457   0.026  0.6479  0.4385 -0.3296
   87MOL   C19333045   5.057   0.411   7.804  1.0973  0.0840  0.1531
   87MOL   O19433046   5.082   0.279   0.016  0.4858  0.2009 -0.4634
   87MOL   C19533047   5.114   0.189   7.745 -0.5589  0.2266  0.0162
   87MOL   C19633048   5.115   0.046   7.806 -0.6132  1.0821  0.2308
   87MOL   C19733049   4.981   7.795   0.010  0.1272 -0.8006 -0.3727
   87MOL   C19833050   5.201   0.039   0.118 -0.0260 -0.5866  0.5833
   87MOL   H19933051   4.925   0.434   0.132 -0.7527 -0.6531 -0.5182
   87MOL   H20033052   4.901   0.564   0.022 -0.6820  0.1547 -0.8447
   87MOL   H20133053   5.045   0.418   7.696 -1.3542  2.8184  0.5137
   87MOL   H20233054   5.211   0.213   7.700  1.1970 -2.6866  2.0927
   87MOL   H20333055   5.046   0.200   7.660  0.5570 -0.3713 -0.9710
   87MOL   H20433056   5.174   7.813   7.735 -2.4305  0.5581 -0.8791
   87MOL   H20533057   4.992   7.694   0.050  0.8258  0.7236  3.5517
   87MOL   H20633058   4.917   0.024   0.080 -0.3442 -0.5153 -1.0285
   87MOL   H20733059   4.914   7.787   7.750 -0.6292 -0.0422  0.1480
   87MOL   H20833060   5.304   0.061   0.091  0.5606 -0.3567  2.8688
   87MOL   H20933061   5.168   0.109   0.194 -0.5714  1.6708 -1.6753
   87MOL   H21033062   5.194   7.766   0.166  0.4617  0.4511  2.8436
   87MOL   C21133063   5.174   0.499   0.033  0.1638 -0.2838  0.3263
   87MOL   C21233064   5.309   0.496   7.780  0.4288 -0.0396  0.0873
   87MOL   O21333065   5.279   0.549   7.653 -0.5841 -0.2780  0.5487
   87MOL   C21433066   5.369   0.511   7.552  0.3409 -0.0075  0.7613
   87MOL   C21533067   5.309   0.535   7.411 -0.1337  0.4113 -0.4436
   87MOL   C21633068   5.202   0.434   7.374 -0.5556 -0.3080 -0.5814
   87MOL   C21733069   5.257   0.684   7.390 -0.1171  0.4449  0.0016
   87MOL   H21833070   5.197   0.475   0.137  2.6329 -2.1299 -0.5727
   87MOL   H21933071   5.138   0.601   0.035  1.3429  0.1356  0.8028
   87MOL   H22033072   5.339   0.392   7.771 -2.0662 -0.5393 -3.1494
   87MOL   H22133073   5.413   0.411   7.563 -0.4848 -0.2603  1.8933
   87MOL   H22233074   5.452   0.581   7.561  0.6732 -0.4345  1.0844
   87MOL   H22333075   5.390   0.513   7.341  2.0046 -2.0725  2.6654
   87MOL   H22433076   5.106   0.486   7.378  0.1476  0.9879 -0.2474
   87MOL   H22533077   5.205   0.394   7.272 -1.7376 -0.5452 -0.5318
   87MOL   H22633078   5.195   0.353   7.446  0.1163 -0.8395 -1.1054
   87MOL   H22733079   5.219   0.693   7.289 -1.2907  0.1777  0.4048
   87MOL   H22833080   5.322   0.770   7.409 -1.3962  1.3417  0.4116
   87MOL   H22933081   5.177   0.714   7.459  0.8108  4.1958 -0.4253
   87MOL   C23033082   5.412   0.572   0.043  0.5360 -0.4916  0.9030
   87MOL   C23133083   5.464   0.485   0.160 -0.6510 -1.5390 -0.1461
   87MOL   O23233084   5.553   0.398   0.104  0.0741  0.0043  0.2418
   87MOL   C23333085   5.553   0.260   0.142  0.3078  0.3058 -0.0959
   87MOL   C23433086   5.634   0.183   0.040 -0.0235  0.0634 -0.0736
   87MOL   C23533087   5.642   0.033   0.074 -0.3172  0.2561  0.1811
   87MOL   C23633088   5.576   0.202   7.722  0.1951  1.1421 -0.2494
   87MOL   H23733089   5.366   0.658   0.093  1.9434  1.6877 -1.4126
   87MOL   H23833090   5.493   0.602   7.802  0.2983 -0.1048  0.7811
   87MOL   H23933091   5.376   0.435   0.201 -2.7691  1.4093 -0.8866
   87MOL   H24033092   5.587   0.244   0.244 -0.0345 -0.5365 -0.1131
   87MOL   H24133093   5.454   0.214   0.144 -0.0118  1.0200  1.6227
   87MOL   H24233094   5.733   0.228   0.050  0.0365 -0.4796  1.8793
   87MOL   H24333095   5.687   7.797   7.819  0.5724  1.2695 -0.0876
   87MOL   H24433096   5.541   7.820   0.093 -0.2865 -0.1086 -0.3539
   87MOL   H24533097   5.695   0.015   0.167  0.2843  1.4861  0.0813
   87MOL   H24633098   5.639   0.168   7.639 -0.8305  0.6404 -0.8253
   87MOL   H24733099   5.491   0.135   7.713  0.4819  0.5318  1.4550
   87MOL   H24833100   5.552   0.308   7.709 -1.5365  0.6411 -1.1689
   87MOL   C24933101   5.547   0.582   0.256  0.0820  0.3417 -0.0327
   87MOL   C25033102   5.557   0.539   0.401 -0.4008  0.2584  0.0409
   87MOL   O25133103   5.646   0.610   0.479  0.2946 -0.0941  0.2828
   87MOL   C25233104   5.781   0.562   0.464  0.4812  0.2495  0.1070
   87MOL   C25333105   5.866   0.666   0.534  0.2046  0.1234  0.0559
   87MOL   C25433106   6.010   0.623   0.519 -0.3760 -0.3502  0.3453
   87MOL   C25533107   5.825   0.670   0.682 -0.2913 -0.3951 -0.1190
   87MOL   H25633108   5.503   0.682   0.265 -0.3627  0.3707 -2.2475
   87MOL   H25733109   5.651   0.588   0.225  0.2164  0.5707  0.4543
   87MOL   H25833110   5.590   0.435   0.400  1.7302  0.9028  0.4560
   87MOL   H25933111   5.788   0.459   0.500 -0.2284  0.6079  1.3037
   87MOL   H26033112   5.823   0.549   0.364  0.0032  0.4394 -0.1179
   87MOL   H26133113   5.853   0.762   0.484 -1.2200 -0.1813 -0.1816
   87MOL   H26233114   6.041   0.538   0.580  1.5460  0.7853  0.9741
   87MOL   H26333115   6.079   0.703   0.544 -0.9008  0.3166 -0.3085
   87MOL   H26433116   6.027   0.595   0.415 -0.2776  0.1228  0.2380
   87MOL   H26533117   5.817   0.578   0.740  2.2524 -1.1997 -0.9674
   87MOL   H26633118   5.894   0.739   0.731 -0.4292 -0.5200  0.2569
   87MOL   H26733119   5.732   0.727   0.682  1.7655  3.0736  0.9634
   87MOL   C26833120   5.422   0.537   0.483  1.0746  0.0065  0.1763
   87MOL   C26933121   5.435   0.431   0.598 -0.2552 -0.4886 -0.7212
   87MOL   O27033122   5.419   0.294   0.559 -0.3237 -0.1336 -0.4833
   87MOL   C27133123   5.491   0.191   0.626 -0.3001  0.2401 -0.6836
   87MOL   C27233124   5.431   0.057   0.578  0.0949 -1.0247  0.1066
   87MOL   C27333125   5.280   0.037   0.607 -0.1609 -0.1752 -0.1938
   87MOL   C27433126   5.450   0.050   0.418  0.6011 -0.3629 -0.0115
   87MOL   H27533127   5.345   0.501   0.415  0.7011  0.3395  0.4241
   87MOL   H27633128   5.394   0.635   0.520  1.8748  0.8760 -1.4666
   87MOL   H27733129   5.538   0.438   0.633 -1.2307  0.3300  2.2102
   87MOL   H27833130   5.592   0.216   0.592 -0.0274 -0.4671 -0.4004
   87MOL   H27933131   5.479   0.194   0.734 -1.3277  0.2334 -0.7949
   87MOL   H28033132   5.493   7.805   0.625  0.0733 -1.2178 -0.1789
   87MOL   H28133133   5.253   7.756   0.605 -0.0051 -0.2429  1.0734
   87MOL   H28233134   5.216   0.083   0.531 -0.7840 -0.4793  0.1439
   87MOL   H28333135   5.243   0.087   0.696  0.6590 -0.1490  0.1320
   87MOL   H28433136   5.551   0.076   0.387  0.6678 -1.9595 -1.2219
   87MOL   H28533137   5.388   0.119   0.361 -0.2608 -3.3833 -2.9015
   87MOL   H28633138   5.423   7.776   0.380 -1.3479 -0.6286  1.9713
   87MOL   C28733139   5.342   0.452   0.727 -0.3943  0.3478 -0.2725
   87MOL   C28833140   5.205   0.501   0.691  0.5998 -0.4040  0.1125
   87MOL   O28933141   5.152   0.561   0.810 -0.2707  0.0165  0.4195
   87MOL   C29033142   5.107   0.696   0.796  1.0313  0.1882  0.4336
   87MOL   C29133143   5.086   0.762   0.933  0.8233  0.0224  0.9410
   87MOL   C29233144   5.210   0.795   1.021  0.7725 -0.0216 -0.6499
   87MOL   C29333145   4.995   0.677   1.018  0.0263  0.2993  0.0401
   87MOL   H29433146   5.391   0.530   0.785 -1.8862  0.3058  1.0600
   87MOL   H29533147   5.344   0.365   0.792  0.9694 -0.0626 -0.8467
   87MOL   H29633148   5.211   0.575   0.612 -1.6366 -1.7726 -1.4079
   87MOL   H29733149   5.188   0.752   0.748  2.8176 -1.3177  1.6300
   87MOL   H29833150   5.021   0.704   0.730  1.5367  1.6036 -0.0692
   87MOL   H29933151   5.018   0.845   0.919  0.9469 -0.0666 -0.1863
   87MOL   H30033152   5.272   0.705   1.027  1.4322  0.5834  2.1037
   87MOL   H30133153   5.179   0.827   1.120 -0.1055  0.4167 -1.0615
   87MOL   H30233154   5.262   0.880   0.976 -1.2500  0.6826 -1.6855
   87MOL   H30333155   5.054   0.591   1.049 -1.4324  0.3805  3.2754
   87MOL   H30433156   4.957   0.722   1.110 -0.8836  1.5763 -0.9344
   87MOL   H30533157   4.911   0.651   0.954  0.2702  0.5965 -0.4033
   87MOL   C30633158   5.111   0.389   0.642  0.3041  0.0225  0.0843
   87MOL   C30733159   4.975   0.435   0.580 -0.1713  0.1659 -0.1976
   87MOL   O30833160   5.013   0.510   0.468 -0.3486  0.2385 -0.2123
   87MOL   C30933161   4.914   0.602   0.424 -0.2871  0.1913 -0.9093
   87MOL   C31033162   4.973   0.684   0.303  0.5997  0.6051  0.2744
   87MOL   C31133163   5.102   0.761   0.335 -0.2420  0.1903 -0.1624
   87MOL   C31233164   4.864   0.780   0.241  0.0586 -0.3665  0.1710
   87MOL   H31333165   5.103   0.321   0.727  0.0618  1.3422  1.1382
   87MOL   H31433166   5.171   0.343   0.564  4.0923  2.3810  1.4297
   87MOL   H31533167   4.930   0.507   0.649  1.8856 -0.9781  2.4148
   87MOL   H31633168   4.866   0.668   0.496  2.3557  0.5986  0.5611
   87MOL   H31733169   4.829   0.541   0.393  0.6101 -0.5812 -1.9005
   87MOL   H31833170   4.998   0.621   0.217  2.7491  1.5302  0.1827
   87MOL   H31933171   5.146   0.820   0.255 -0.2291  0.8624  0.3389
   87MOL   H32033172   5.171   0.686   0.371  1.0445  0.2156 -2.4631
   87MOL   H32133173   5.077   0.822   0.422 -1.3362 -0.2440 -0.1698
   87MOL   H32233174   4.919   0.843   0.170  0.1692 -0.4860  0.1511
   87MOL   H32333175   4.821   0.856   0.306  1.8902 -0.9838  2.1640
   87MOL   H32433176   4.780   0.725   0.198  1.4586 -2.4808  0.0685
   87MOL   C32533177   4.896   0.314   0.521 -0.5832 -0.1129  0.3863
   87MOL   C32633178   4.812   0.239   0.625  0.3941  0.2399 -0.4810
   87MOL   O32733179   4.680   0.293   0.641  0.1297  0.3612  0.1650
   87MOL   C32833180   4.644   0.339   0.767  0.0650 -0.7730  0.3041
   87MOL   C32933181   4.500   0.389   0.744  0.5227  0.4515  0.1432
   87MOL   C33033182   4.501   0.507   0.648 -0.3161 -0.6566  0.1702
   87MOL   C33133183   4.403   0.280   0.687 -0.3194 -0.4340 -0.5017
   87MOL   H33233184   4.975   0.250   0.483  1.1804  1.5555  1.1580
   87MOL   H33333185   4.842   0.339   0.429  0.2559 -0.4776 -0.2120
   87MOL   H33433186   4.865   0.250   0.720 -2.7368  0.4800  1.2930
   87MOL   H33533187   4.630   0.261   0.842 -1.9848 -1.3570 -0.6373
   87MOL   H33633188   4.700   0.423   0.809  0.0567 -0.3613 -0.4974
   87MOL   H33733189   4.453   0.422   0.837 -3.4692  0.3619 -1.7179
   87MOL   H33833190   4.397   0.536   0.628  0.3268  1.8238  0.2334
   87MOL   H33933191   4.548   0.597   0.687 -0.9155 -0.3647  0.2390
   87MOL   H34033192   4.545   0.483   0.551  3.4368 -0.6943  1.8027
   87MOL   H34133193   4.443   0.233   0.597 -0.8566 -0.7625 -0.5716
   87MOL   H34233194   4.380   0.209   0.766 -0.7792  1.2138  0.8815
   87MOL   H34333195   4.310   0.333   0.667 -0.5867 -1.5952 -2.4888
   87MOL   C34433196   4.796   0.087   0.598 -0.4815  0.6344 -0.3566
   87MOL   C34533197   4.929   0.005   0.622  0.3052  0.1333 -0.1448
   87MOL   O34633198   4.976   0.036   0.757  0.2838 -0.4055  0.5772
   87MOL   C34733199   4.907   7.811   0.867  0.2641  0.4552 -0.4285
   87MOL   C34833200   4.988   0.006   1.001  0.1611 -0.2307  0.1035
   87MOL   C34933201   5.130   7.764   0.988  0.2740  0.2154 -0.0167
   87MOL   C35033202   4.902   7.792   1.116  0.7024 -0.2485 -0.3908
   87MOL   H35133203   4.773   0.077   0.492  2.4180 -0.4268 -0.9197
   87MOL   H35233204   4.718   0.046   0.662 -1.2612  3.7401  0.7551
   87MOL   H35333205   5.014   0.032   0.559  0.5432  0.2742  0.2373
   87MOL   H35433206   4.874   7.707   0.857  1.3120 -0.0591  1.1505
   87MOL   H35533207   4.811   0.037   0.879 -0.2163 -0.0594 -2.0747
   87MOL   H35633208   5.001   0.112   1.022 -0.6616 -0.3047  1.0137
   87MOL   H35733209   5.117   7.656   0.984 -2.1258  0.5134 -1.1685
   87MOL   H35833210   5.191   7.793   1.073 -1.6370  0.3534  1.3206
   87MOL   H35933211   5.191   7.781   0.899  1.8565 -2.8585  0.3891
   87MOL   H36033212   4.870   7.688   1.118 -4.0180  1.0230 -2.4490
   87MOL   H36133213   4.946   7.814   1.213  0.2516  0.8752 -0.4342
   87MOL   H36233214   4.810   0.027   1.114  1.7583  1.3693 -2.0902
   87MOL   C36333215   4.896   7.682   0.597 -0.3613 -0.3514  0.5093
   87MOL   C36433216   4.928   7.639   0.457 -0.2531  0.4021 -0.1654
   87MOL   O36533217   4.857   7.518   0.427 -0.4289  0.3764  0.1502
   87MOL   C36633218   4.904   7.459   0.305  0.4249 -0.2146 -0.4385
   87MOL   C36733219   4.823   7.334   0.275 -0.2404 -0.7839 -0.0220
   87MOL   C36833220   4.824   7.237   0.401  0.1539 -0.4496  1.1202
   87MOL   C36933221   4.887   7.258   0.156 -0.0454 -0.8158 -0.1590
   87MOL   H37033222   4.953   7.620   0.666  1.1954 -0.9689 -1.2832
   87MOL   H37133223   4.791   7.655   0.612 -0.9439  0.2637 -2.1809
   87MOL   H37233224   5.035   7.624   0.443 -0.5134  0.0742 -1.9758
   87MOL   H37333225   4.889   7.531   0.224 -0.2176 -0.5029 -0.5833
   87MOL   H37433226   5.010   7.437   0.299  0.6843 -0.0581  2.7873
   87MOL   H37533227   4.717   7.340   0.252 -0.4132 -1.0129  0.7118
   87MOL   H37633228   4.786   7.138   0.375  3.0282 -1.8560  1.9736
   87MOL   H37733229   4.750   7.268   0.474  2.3837 -0.0653  3.2896
   87MOL   H37833230   4.927   7.225   0.437  0.7832 -2.1706 -1.1382
   87MOL   H37933231   4.972   7.194   0.180 -1.0174 -1.7935  0.7069
   87MOL   H38033232   4.923   7.324   0.077 -0.7896 -1.5163 -1.0977
   87MOL   H38133233   4.807   7.191   0.123 -1.9833  0.5655  1.6344
   87MOL   H38233234   4.906   7.718   0.385  0.2573  0.8414  0.1642
   88MOL     C133235   4.388   6.278   1.658  0.2440 -0.8257  0.1815
   88MOL     C233236   4.299   6.381   1.594 -0.4393  0.1198 -0.4603
   88MOL     O333237   4.174   6.379   1.673  0.0697 -0.7630  0.3711
   88MOL     C433238   4.073   6.296   1.610 -0.6391  0.4588 -0.5295
   88MOL     C533239   3.940   6.304   1.697  0.0003  0.1727 -0.0766
   88MOL     C633240   3.872   6.443   1.684 -0.1959  0.0016 -0.3600
   88MOL     C733241   3.964   6.275   1.843 -0.3466 -0.0004 -0.5101
   88MOL     H833242   4.490   6.281   1.618  0.0969  1.3473 -0.0662
   88MOL     H933243   4.410   6.309   1.760 -0.9060 -0.1494  0.2295
   88MOL    H1033244   4.282   6.354   1.490 -0.8841 -1.5919  0.0347
   88MOL    H1133245   4.116   6.196   1.599  2.3044  1.6938 -0.7803
   88MOL    H1233246   4.055   6.341   1.513  1.3364  1.1449 -0.5957
   88MOL    H1333247   3.864   6.230   1.670 -0.7302  0.7817  0.3143
   88MOL    H1433248   3.942   6.514   1.730 -0.9316 -0.1442  0.9957
   88MOL    H1533249   3.856   6.463   1.578 -1.0243  0.0224 -0.2282
   88MOL    H1633250   3.774   6.456   1.728  0.7005  2.0146  1.1285
   88MOL    H1733251   3.875   6.299   1.902 -0.0164  0.6815 -0.2793
   88MOL    H1833252   3.980   6.168   1.841 -0.7022 -0.0636 -0.2512
   88MOL    H1933253   4.051   6.329   1.879 -0.5204  0.5320 -0.8720
   88MOL    H2033254   4.359   6.173   1.651  0.8828 -0.8827 -2.0373
   88MOL    C2133255   4.354   6.524   1.608  0.0316 -0.2199 -0.2794
   88MOL    C2233256   4.308   6.616   1.502  0.2883  0.8488 -0.0464
   88MOL    O2333257   4.313   6.746   1.543  0.1480 -0.1437 -0.1482
   88MOL    C2433258   4.207   6.797   1.617 -0.1144 -0.0383  0.2594
   88MOL    C2533259   4.258   6.928   1.693 -0.2334  0.5253  0.2075
   88MOL    C2633260   4.339   6.905   1.823  0.2894 -0.1917  0.6437
   88MOL    C2733261   4.333   7.034   1.604 -0.4483 -0.4025 -0.2907
   88MOL    H2833262   4.335   6.562   1.709  0.4953 -2.7521  0.7847
   88MOL    H2933263   4.463   6.524   1.604  0.1468  1.9728  1.7386
   88MOL    H3033264   4.211   6.581   1.465 -0.3508  0.7910  1.6401
   88MOL    H3133265   4.175   6.722   1.689 -0.4291 -1.2456 -1.1240
   88MOL    H3233266   4.116   6.789   1.559  0.2312  1.7434 -0.5706
   88MOL    H3333267   4.173   6.981   1.736  0.3796  0.5477  1.4257
   88MOL    H3433268   4.398   6.995   1.842 -1.5933  1.5076 -1.2466
   88MOL    H3533269   4.407   6.820   1.822 -0.2004 -0.6065  1.8099
   88MOL    H3633270   4.276   6.890   1.910  0.2256  4.5521  1.5211
   88MOL    H3733271   4.353   7.122   1.664 -0.6800 -0.9193  0.5586
   88MOL    H3833272   4.420   6.991   1.554 -1.0517  0.1153 -1.8224
   88MOL    H3933273   4.265   7.069   1.526  0.2839 -3.2637 -2.3423
   88MOL    C4033274   4.407   6.598   1.385  0.3011  0.0313  0.3703
   88MOL    C4133275   4.372   6.665   1.246  0.0596 -0.6292  1.0424
   88MOL    O4233276   4.269   6.584   1.178 -0.5684 -0.6262  0.0211
   88MOL    C4333277   4.147   6.651   1.173 -0.2499  0.4164  0.1798
   88MOL    C4433278   4.050   6.565   1.098 -0.0748  0.4308 -0.7687
   88MOL    C4533279   4.093   6.543   0.953  0.2789 -0.1278 -0.1663
   88MOL    C4633280   4.034   6.432   1.174  0.3929  0.2324 -0.4889
   88MOL    H4733281   4.417   6.490   1.374  0.5073  0.1364 -0.5622
   88MOL    H4833282   4.503   6.645   1.407 -0.8321  2.2229  0.8673
   88MOL    H4933283   4.329   6.764   1.259 -0.6074 -0.7095 -0.4062
   88MOL    H5033284   4.165   6.740   1.113  1.2789 -0.1245 -0.1811
   88MOL    H5133285   4.111   6.676   1.273  1.0306 -0.6729  0.9307
   88MOL    H5233286   3.958   6.623   1.101 -0.2898  0.0856 -0.6465
   88MOL    H5333287   4.020   6.498   0.887  1.6006  0.2801 -1.9419
   88MOL    H5433288   4.125   6.638   0.910  0.5345 -0.0055  0.2832
   88MOL    H5533289   4.174   6.470   0.946 -0.6786 -1.2316  0.3101
   88MOL    H5633290   4.005   6.463   1.274  1.2623  0.9822 -0.4694
   88MOL    H5733291   4.116   6.361   1.189  0.0538 -0.1322 -0.3416
   88MOL    H5833292   3.957   6.376   1.120 -1.7490 -0.2011  2.8910
   88MOL    C5933293   4.490   6.679   1.142 -0.0347 -0.5884 -0.1444
   88MOL    C6033294   4.567   6.552   1.103 -0.3660  0.1318  0.2052
   88MOL    O6133295   4.697   6.588   1.069  0.2248 -0.3959  0.7482
   88MOL    C6233296   4.788   6.495   1.125  0.7224  0.4965  0.2492
   88MOL    C6333297   4.932   6.538   1.080  0.5469 -0.2226  0.4113
   88MOL    C6433298   5.027   6.463   1.175 -0.5622 -0.9417 -0.1276
   88MOL    C6533299   4.955   6.509   0.927 -0.7456 -0.3485  0.3369
   88MOL    H6633300   4.557   6.747   1.195 -0.8253 -0.0329  0.1418
   88MOL    H6733301   4.458   6.732   1.052 -1.6107 -0.6913  0.3370
   88MOL    H6833302   4.561   6.485   1.188  1.6554 -0.1667  0.1280
   88MOL    H6933303   4.784   6.479   1.232  2.5250 -1.2817  0.0797
   88MOL    H7033304   4.764   6.395   1.090  3.0809 -0.1310  0.3484
   88MOL    H7133305   4.932   6.647   1.089 -0.2121 -0.3356  1.8294
   88MOL    H7233306   4.989   6.460   1.277  0.2977  1.1131  0.2828
   88MOL    H7333307   5.128   6.502   1.168 -0.7792 -0.3167  0.1983
   88MOL    H7433308   5.041   6.357   1.153 -0.1488 -1.1287  1.0085
   88MOL    H7533309   5.059   6.526   0.898 -0.5868 -1.7773  0.0435
   88MOL    H7633310   4.921   6.409   0.902 -2.4845  0.2131  0.3932
   88MOL    H7733311   4.897   6.568   0.856 -1.3594 -2.1222 -0.6824
   88MOL    C7833312   4.497   6.489   0.978  0.3110  0.7097 -0.8806
   88MOL    C7933313   4.540   6.340   0.952 -0.9799  0.5207 -0.0439
   88MOL    O8033314   4.522   6.249   1.068  0.4406  0.2889  0.0118
   88MOL    C8133315   4.387   6.225   1.119  0.0050 -0.1644 -0.1386
   88MOL    C8233316   4.389   6.114   1.228 -0.4746 -0.1719  0.3340
   88MOL    C8333317   4.248   6.081   1.284 -0.0967 -0.2749  0.6110
   88MOL    C8433318   4.480   6.159   1.342 -0.0945 -0.5704  0.4058
   88MOL    H8533319   4.517   6.553   0.892  2.1526  1.4317  0.0518
   88MOL    H8633320   4.390   6.499   0.996  0.0774 -1.1570 -1.1473
   88MOL    H8733321   4.647   6.341   0.934 -1.1295 -0.6952 -1.0734
   88MOL    H8833322   4.349   6.316   1.166  1.5303  0.7119 -0.5794
   88MOL    H8933323   4.316   6.205   1.039  0.3773  1.9729 -1.0269
   88MOL    H9033324   4.444   6.032   1.182  3.0831  1.3660  1.5769
   88MOL    H9133325   4.194   6.162   1.333  1.3978  0.4492  1.0897
   88MOL    H9233326   4.244   5.999   1.356  2.0187 -0.2534  0.7991
   88MOL    H9333327   4.179   6.052   1.205 -2.1578  0.3796  2.1303
   88MOL    H9433328   4.569   6.097   1.334  1.0265  1.2010 -1.2794
   88MOL    H9533329   4.440   6.145   1.442 -0.3301 -1.1658  0.2313
   88MOL    H9633330   4.515   6.262   1.343 -1.7554  0.0130  0.5415
   88MOL    C9733331   4.475   6.268   0.831  0.5957  0.2879  0.6558
   88MOL    C9833332   4.471   6.340   0.689 -0.0838 -0.0775  0.2270
   88MOL    O9933333   4.427   6.247   0.592  0.3393 -0.3427 -0.3296
   88MOL   C10033334   4.286   6.222   0.582 -0.6738  0.0714  0.3472
   88MOL   C10133335   4.256   6.100   0.497 -0.5465  0.5108  0.6635
   88MOL   C10233336   4.104   6.052   0.510 -0.0574 -0.1312 -1.0510
   88MOL   C10333337   4.305   6.114   0.351 -0.4141  0.2968 -0.2120
   88MOL   H10433338   4.369   6.249   0.846  0.5204  1.9321  2.4559
   88MOL   H10533339   4.527   6.175   0.812  1.4501  0.5495  1.6861
   88MOL   H10633340   4.395   6.418   0.693 -0.0011 -0.0658  2.2960
   88MOL   H10733341   4.237   6.310   0.540 -2.6735 -0.7707  0.8153
   88MOL   H10833342   4.239   6.207   0.679 -1.7059 -0.9228 -0.2790
   88MOL   H10933343   4.323   6.023   0.536 -0.9580 -0.7839 -1.1349
   88MOL   H11033344   4.088   6.025   0.615  1.5439 -4.7338 -1.8690
   88MOL   H11133345   4.046   6.137   0.474 -0.7318 -1.0378 -2.0833
   88MOL   H11233346   4.084   5.963   0.452  1.5473 -1.9243  1.0278
   88MOL   H11333347   4.254   6.197   0.302 -0.4458 -0.7286 -1.9644
   88MOL   H11433348   4.411   6.140   0.350 -0.2763 -0.0518  2.5645
   88MOL   H11533349   4.294   6.023   0.291 -3.7385  0.9445 -0.6836
   88MOL   C11633350   4.610   6.397   0.651  0.0449 -0.0423 -0.0561
   88MOL   C11733351   4.618   6.481   0.517  0.0077 -0.2236  0.0803
   88MOL   O11833352   4.550   6.604   0.546  0.3186 -0.2605  0.1209
   88MOL   C11933353   4.444   6.638   0.454 -0.5979 -0.3426 -0.4134
   88MOL   C12033354   4.387   6.773   0.493 -0.1154  0.0955 -0.7437
   88MOL   C12133355   4.324   6.757   0.630  0.1295  0.0891 -0.9220
   88MOL   C12233356   4.476   6.896   0.484  0.7815  0.1527  0.2570
   88MOL   H12333357   4.667   6.444   0.731 -1.0643  0.9593  0.1569
   88MOL   H12433358   4.666   6.305   0.636 -1.2550 -0.9527  0.6697
   88MOL   H12533359   4.569   6.420   0.441 -1.1169  0.5773  0.1430
   88MOL   H12633360   4.370   6.558   0.452 -0.1317 -0.7459 -1.8342
   88MOL   H12733361   4.477   6.649   0.351 -0.2621 -0.9298 -0.3694
   88MOL   H12833362   4.307   6.806   0.426  0.8353  2.7916 -0.6307
   88MOL   H12933363   4.397   6.752   0.711 -0.2330 -0.3543 -0.6213
   88MOL   H13033364   4.261   6.669   0.643  0.9500 -0.1124  2.1254
   88MOL   H13133365   4.253   6.836   0.657 -0.6077 -0.7579 -0.3766
   88MOL   H13233366   4.413   6.985   0.481 -0.5558 -0.7647  0.7404
   88MOL   H13333367   4.551   6.911   0.562  0.7522  2.2676 -0.0822
   88MOL   H13433368   4.521   6.904   0.385 -1.9628  1.9728 -0.9163
   88MOL   C13533369   4.757   6.527   0.472 -0.9703 -0.3007  0.7014
   88MOL   C13633370   4.826   6.416   0.392  0.4264  0.5671  0.1400
   88MOL   O13733371   4.772   6.433   0.266 -0.2113  0.3606 -0.0846
   88MOL   C13833372   4.788   6.315   0.185  0.3823 -0.2928 -0.2237
   88MOL   C13933373   4.739   6.328   0.044 -0.0283 -0.5678  0.1489
   88MOL   C14033374   4.592   6.364   0.039 -0.8232 -0.7686 -0.1987
   88MOL   C14133375   4.833   6.420   7.791  0.2162 -0.0679 -0.3716
   88MOL   H14233376   4.757   6.625   0.423 -2.9455 -0.7212 -0.1963
   88MOL   H14333377   4.826   6.559   0.551  1.7558 -3.1068 -0.4449
   88MOL   H14433378   4.809   6.313   0.423 -0.2724  0.0380 -1.9217
   88MOL   H14533379   4.733   6.239   0.240 -1.8070  0.5628 -1.1746
   88MOL   H14633380   4.890   6.274   0.185  0.7153  0.5361 -0.0437
   88MOL   H14733381   4.746   6.228   0.001 -2.1807  0.5641 -3.0317
   88MOL   H14833382   4.553   6.345   7.763 -1.2263  4.2100 -1.1061
   88MOL   H14933383   4.573   6.467   0.069  0.8337  0.3162 -2.7404
   88MOL   H15033384   4.535   6.298   0.105 -0.8702  1.1504  1.7168
   88MOL   H15133385   4.922   6.360   7.775 -1.4044 -2.4907 -0.4571
   88MOL   H15233386   4.800   6.429   7.688  3.4081 -0.6687 -1.4784
   88MOL   H15333387   4.856   6.518   0.009 -0.9714  0.0734 -0.0280
   88MOL   C15433388   4.979   6.444   0.398 -0.6464 -0.2452 -0.1975
   88MOL   C15533389   5.075   6.325   0.396 -0.3045  0.2097 -0.5910
   88MOL   O15633390   5.204   6.361   0.353  0.0653  0.0663 -0.3124
   88MOL   C15733391   5.204   6.368   0.214  0.1081 -0.1338 -0.0282
   88MOL   C15833392   5.334   6.427   0.164  0.7532 -0.1467  0.0558
   88MOL   C15933393   5.342   6.573   0.216 -1.0157 -0.9138 -0.1855
   88MOL   C16033394   5.461   6.347   0.204  0.3606  0.0747  0.1938
   88MOL   H16133395   5.009   6.505   0.484  0.4370 -1.9594  0.6660
   88MOL   H16233396   4.986   6.521   0.322 -1.4027  0.2002  0.1753
   88MOL   H16333397   5.046   6.245   0.328 -0.8224  1.9232 -2.4226
   88MOL   H16433398   5.119   6.426   0.178 -0.6170 -0.3173  1.3479
   88MOL   H16533399   5.198   6.269   0.170 -1.4927 -0.0851  0.0555
   88MOL   H16633400   5.328   6.438   0.056  2.4159  0.7606  0.0336
   88MOL   H16733401   5.248   6.618   0.183 -1.2938 -1.0027  0.4922
   88MOL   H16833402   5.429   6.633   0.187 -0.9712 -0.0981  1.5904
   88MOL   H16933403   5.330   6.573   0.324  1.7189 -0.0218  0.1601
   88MOL   H17033404   5.465   6.263   0.135  0.7274  0.2657 -0.0191
   88MOL   H17133405   5.552   6.406   0.204  1.7245 -1.9826 -0.1478
   88MOL   H17233406   5.453   6.305   0.305  0.6742  0.2419  0.2870
   88MOL   C17333407   5.089   6.266   0.542 -0.1217  0.4510  0.0695
   88MOL   C17433408   5.039   6.122   0.577 -0.2930 -0.3971  0.4208
   88MOL   O17533409   4.913   6.107   0.520  0.3199  0.3503  0.1587
   88MOL   C17633410   4.833   6.027   0.612  0.2264 -0.3279  0.0341
   88MOL   C17733411   4.701   5.989   0.533  0.4469  0.0222 -0.6530
   88MOL   C17833412   4.730   5.906   0.405 -0.2867 -0.6016 -0.4931
   88MOL   C17933413   4.594   5.917   0.617 -0.2563  0.0175  0.4883
   88MOL   H18033414   5.192   6.274   0.577 -0.4984 -1.9529  1.9121
   88MOL   H18133415   5.034   6.325   0.614  0.8245  0.1111  1.0942
   88MOL   H18233416   5.031   6.109   0.685 -0.2423  1.1482  0.6231
   88MOL   H18333417   4.812   6.081   0.703 -1.5715 -0.4756 -0.2808
   88MOL   H18433418   4.889   5.937   0.639  0.8760 -0.4651 -1.6998
   88MOL   H18533419   4.646   6.077   0.497 -0.4701 -0.5825 -0.7473
   88MOL   H18633420   4.803   5.951   0.339 -2.7534  0.4544 -2.5830
   88MOL   H18733421   4.791   5.819   0.431  0.2332  0.1169  0.7370
   88MOL   H18833422   4.643   5.896   0.340 -1.6619  0.0808  1.2026
   88MOL   H18933423   4.557   5.995   0.684 -3.0765 -0.1845 -0.7870
   88MOL   H19033424   4.644   5.845   0.682  0.7601  0.1162 -0.1760
   88MOL   H19133425   4.509   5.876   0.563  0.2927  0.8487 -1.0248
   88MOL   C19233426   5.134   6.011   0.523 -0.1464  0.1633  0.2490
   88MOL   C19333427   5.249   5.986   0.625 -0.3387  0.0169  0.1421
   88MOL   O19433428   5.360   5.912   0.567  0.0870  0.0549  0.1150
   88MOL   C19533429   5.463   5.989   0.510  0.0825 -0.3629  0.4590
   88MOL   C19633430   5.569   6.036   0.617  0.2170  0.0383 -0.4339
   88MOL   C19733431   5.660   6.152   0.568 -0.2641  0.2290 -0.1903
   88MOL   C19833432   5.653   5.912   0.656 -0.4867  0.0288 -0.3269
   88MOL   H19933433   5.168   6.032   0.422 -0.1141 -0.3093  0.1605
   88MOL   H20033434   5.091   5.915   0.493 -1.7046  1.2979 -1.2707
   88MOL   H20133435   5.289   6.080   0.663  3.9659 -1.4368 -0.5168
   88MOL   H20233436   5.411   6.075   0.468  0.8360 -0.2667 -0.2907
   88MOL   H20333437   5.516   5.947   0.424  1.9979 -0.8637  1.8325
   88MOL   H20433438   5.505   6.074   0.696  0.9416 -0.1310  0.2355
   88MOL   H20533439   5.609   6.208   0.489 -0.6503 -3.7917 -2.9609
   88MOL   H20633440   5.691   6.228   0.639 -1.2791  0.2571  0.2267
   88MOL   H20733441   5.751   6.121   0.516 -0.2864  2.5817 -1.7420
   88MOL   H20833442   5.584   5.827   0.657 -2.4498  1.5853  0.8586
   88MOL   H20933443   5.720   5.885   0.575 -0.6632  0.4941 -0.6304
   88MOL   H21033444   5.713   5.929   0.745  1.3060 -0.3096 -1.4425
   88MOL   C21133445   5.208   5.883   0.736 -0.0538 -0.3317  0.0840
   88MOL   C21233446   5.304   5.891   0.861  0.1787 -0.5285 -0.3353
   88MOL   O21333447   5.282   6.010   0.927  0.3024 -0.4253 -0.4695
   88MOL   C21433448   5.356   6.023   1.047 -0.4190 -0.4663 -0.1926
   88MOL   C21533449   5.331   6.152   1.116  0.7912 -0.4684  0.2850
   88MOL   C21633450   5.389   6.149   1.257 -0.2461 -0.2327  0.0287
   88MOL   C21733451   5.376   6.265   1.030 -0.8664 -0.6857 -0.7406
   88MOL   H21833452   5.228   5.781   0.702  1.6578 -0.4967  1.5355
   88MOL   H21933453   5.107   5.892   0.777 -0.2573  1.7590 -0.8019
   88MOL   H22033454   5.404   5.892   0.818 -0.1408 -1.1421 -1.1050
   88MOL   H22133455   5.460   6.019   1.014 -0.6679  1.5952 -1.3244
   88MOL   H22233456   5.325   5.942   1.113 -2.9517  1.5429  1.1958
   88MOL   H22333457   5.222   6.152   1.124  0.7084  0.4135 -0.6339
   88MOL   H22433458   5.348   6.068   1.316  0.2281 -1.0206 -0.7090
   88MOL   H22533459   5.496   6.129   1.255 -0.3843 -0.8634 -1.6858
   88MOL   H22633460   5.386   6.246   1.307 -1.6480 -0.4833  0.4452
   88MOL   H22733461   5.483   6.265   1.010 -1.1745 -2.9466 -2.5965
   88MOL   H22833462   5.351   6.361   1.077  1.5999 -0.2401 -0.2811
   88MOL   H22933463   5.322   6.264   0.936 -1.3140 -0.9375 -0.4812
   88MOL   C23033464   5.278   5.749   0.948  0.0431  0.3286 -0.2460
   88MOL   C23133465   5.406   5.663   0.976 -1.0591 -0.0246  0.9288
   88MOL   O23233466   5.483   5.725   1.082  0.0437 -0.2491  0.1097
   88MOL   C23333467   5.630   5.701   1.091  0.1958  0.0982  0.1163
   88MOL   C23433468   5.714   5.823   1.126  0.6449  0.2307 -0.5072
   88MOL   C23533469   5.661   5.882   1.258  0.0412  0.1757  0.5297
   88MOL   C23633470   5.864   5.788   1.140 -0.4453 -0.1370 -0.0393
   88MOL   H23733471   5.201   5.693   0.895  0.9194 -1.6321  0.5074
   88MOL   H23833472   5.225   5.773   1.040  1.5335  0.3137  0.6264
   88MOL   H23933473   5.459   5.660   0.881 -1.5180 -0.2065  0.6779
   88MOL   H24033474   5.628   5.625   1.169 -1.8479  0.4808  0.4582
   88MOL   H24133475   5.678   5.647   1.010  0.7871 -0.0824  0.5813
   88MOL   H24233476   5.712   5.904   1.053  0.4216  1.6196  1.0136
   88MOL   H24333477   5.735   5.940   1.313 -0.9907  0.0805  2.0473
   88MOL   H24433478   5.634   5.799   1.324 -0.2662 -0.2419 -0.1119
   88MOL   H24533479   5.567   5.933   1.239 -0.2995 -0.9447 -0.9258
   88MOL   H24633480   5.921   5.872   1.182 -2.5859 -0.4525  3.7458
   88MOL   H24733481   5.873   5.706   1.211 -0.8531  1.1846  1.5862
   88MOL   H24833482   5.910   5.763   1.044  0.9526  2.2780 -0.0388
   88MOL   C24933483   5.387   5.516   1.020  0.3735 -0.3934  0.1156
   88MOL   C25033484   5.305   5.419   0.920 -0.4382 -0.3688 -0.6437
   88MOL   O25133485   5.388   5.369   0.817 -0.2952 -0.2746 -0.3158
   88MOL   C25233486   5.387   5.445   0.691  0.4462  0.1330  0.1686
   88MOL   C25333487   5.457   5.380   0.570  0.4591 -0.2782 -0.2096
   88MOL   C25433488   5.609   5.372   0.597 -0.6823  0.0415 -0.1660
   88MOL   C25533489   5.448   5.472   0.449 -1.0673 -0.0976 -0.3358
   88MOL   H25633490   5.342   5.524   1.118 -2.1009 -0.6944 -0.9585
   88MOL   H25733491   5.482   5.465   1.036 -0.7057 -1.7695  2.2404
   88MOL   H25833492   5.225   5.476   0.873  0.0301 -0.5053 -1.6198
   88MOL   H25933493   5.283   5.464   0.663  0.7175 -0.7766 -1.5655
   88MOL   H26033494   5.437   5.538   0.718 -0.8507  0.6305  0.9005
   88MOL   H26133495   5.409   5.286   0.546 -2.5531  0.7953  1.3828
   88MOL   H26233496   5.664   5.465   0.610 -1.3819  0.3024  0.9922
   88MOL   H26333497   5.656   5.325   0.510 -1.8314 -1.5646  0.0525
   88MOL   H26433498   5.627   5.319   0.691  1.5421  0.0595 -0.5644
   88MOL   H26533499   5.492   5.427   0.360  1.3784  1.5390 -0.0112
   88MOL   H26633500   5.342   5.490   0.431 -1.6998 -3.2552  0.0433
   88MOL   H26733501   5.483   5.574   0.469 -0.6267 -0.3548  0.2001
   88MOL   C26833502   5.237   5.298   0.986  0.5234  0.1661 -0.1671
   88MOL   C26933503   5.093   5.263   0.925 -0.4666  0.8364  0.0846
   88MOL   O27033504   4.984   5.341   0.970  0.4303  0.1420  0.7572
   88MOL   C27133505   4.882   5.362   0.875 -0.0664 -0.2463 -0.6190
   88MOL   C27233506   4.896   5.492   0.796 -0.4769 -0.4610 -0.3349
   88MOL   C27333507   4.796   5.499   0.677  0.0876  0.3495  0.1227
   88MOL   C27433508   4.882   5.615   0.890 -0.5471 -0.3060  0.0421
   88MOL   H27533509   5.230   5.313   1.094  1.8002  1.1450 -0.2104
   88MOL   H27633510   5.294   5.206   0.976  1.1512  0.3805  1.2475
   88MOL   H27733511   5.097   5.271   0.817 -3.0405 -3.2011 -0.4407
   88MOL   H27833512   4.855   5.277   0.812 -0.6018 -0.1941 -0.4651
   88MOL   H27933513   4.796   5.373   0.940  0.6492 -1.6868  0.5939
   88MOL   H28033514   4.998   5.477   0.761 -0.1407 -0.0284  0.4439
   88MOL   H28133515   4.695   5.496   0.718 -0.0561 -1.7178 -0.2957
   88MOL   H28233516   4.803   5.413   0.610  0.9267 -0.2753  0.9889
   88MOL   H28333517   4.819   5.581   0.610  1.3216 -0.0154  0.0903
   88MOL   H28433518   4.866   5.707   0.834 -1.1267 -1.2461 -1.3651
   88MOL   H28533519   4.969   5.613   0.955  1.0086  0.0532 -1.9744
   88MOL   H28633520   4.788   5.608   0.945  0.1672 -0.8988  1.1994
   88MOL   C28733521   5.051   5.116   0.966 -0.3765 -1.0159 -0.7113
   88MOL   C28833522   5.106   5.003   0.874  0.3129  0.3583  0.0291
   88MOL   O28933523   5.038   5.007   0.751 -0.2798  0.4979 -0.0739
   88MOL   C29033524   5.112   5.044   0.633 -0.0972 -0.5641  0.4286
   88MOL   C29133525   5.017   5.086   0.520  0.5684  0.5017 -0.2624
   88MOL   C29233526   4.925   4.973   0.481 -0.7026  0.6609  0.1475
   88MOL   C29333527   5.107   5.132   0.401 -0.4049  0.1449 -0.1417
   88MOL   H29433528   4.942   5.110   0.965 -0.5258  1.0601 -1.3656
   88MOL   H29533529   5.093   5.111   1.066 -1.5681  0.2756 -0.1323
   88MOL   H29633530   5.210   5.026   0.855  0.2967  0.9456  0.6349
   88MOL   H29733531   5.187   5.121   0.652  0.3951 -0.2756 -2.4416
   88MOL   H29833532   5.166   4.955   0.601  2.3978  0.7732  0.7614
   88MOL   H29933533   4.967   5.173   0.563 -0.1901 -0.3921  0.6785
   88MOL   H30033534   4.971   4.891   0.426 -1.3952  0.4459 -0.1163
   88MOL   H30133535   4.849   5.007   0.410  0.3739 -0.6326 -1.6524
   88MOL   H30233536   4.870   4.939   0.570 -2.7881  0.8905 -1.0186
   88MOL   H30333537   5.154   5.053   0.343  1.0376 -0.1873  1.4343
   88MOL   H30433538   5.050   5.203   0.341 -0.4632  0.0016 -0.2553
   88MOL   H30533539   5.197   5.182   0.436 -1.0524 -0.4295  2.4900
   88MOL   C30633540   5.109   4.872   0.940  1.1297  1.0769  0.5155
   88MOL   C30733541   5.179   4.767   0.844  0.1629 -0.3249  0.0317
   88MOL   O30833542   5.311   4.813   0.810  0.4724 -0.4281 -0.0242
   88MOL   C30933543   5.403   4.842   0.920 -0.6650 -0.4116  0.6314
   88MOL   C31033544   5.537   4.899   0.864 -0.0659  0.5745  0.3392
   88MOL   C31133545   5.644   4.878   0.967  0.2595 -0.2206  0.0841
   88MOL   C31233546   5.526   5.047   0.816  0.0400 -0.1162  0.1638
   88MOL   H31333547   5.011   4.842   0.979  1.3228 -0.3870 -0.0788
   88MOL   H31433548   5.161   4.880   1.035 -1.3430  2.0389  1.8484
   88MOL   H31533549   5.117   4.745   0.757  1.0933 -1.1797 -0.4243
   88MOL   H31633550   5.423   4.750   0.976 -3.3129 -0.1084  2.1737
   88MOL   H31733551   5.372   4.912   0.998 -0.1962 -2.1474  2.4275
   88MOL   H31833552   5.549   4.838   0.774 -4.0681 -0.3634  0.3341
   88MOL   H31933553   5.738   4.918   0.929  1.1327 -1.3058  1.0545
   88MOL   H32033554   5.668   4.774   0.990  0.8963 -0.4638 -1.6082
   88MOL   H32133555   5.617   4.921   1.064  1.5714 -2.0100  1.2831
   88MOL   H32233556   5.446   5.061   0.743  0.1963 -2.3150 -0.4692
   88MOL   H32333557   5.611   5.073   0.754 -1.4534  3.5072 -0.4817
   88MOL   H32433558   5.517   5.108   0.906 -0.0867  1.3000 -0.8039
   88MOL   C32533559   5.197   4.629   0.914 -0.8143  0.2444  0.8239
   88MOL   C32633560   5.291   4.523   0.846  0.1823  0.0171  0.0086
   88MOL   O32733561   5.325   4.420   0.937 -0.4657 -0.3692  0.7068
   88MOL   C32833562   5.442   4.435   1.018 -0.1285  0.0150  0.3005
   88MOL   C32933563   5.458   4.312   1.109 -0.2647 -0.1953  0.5146
   88MOL   C33033564   5.595   4.304   1.171  0.4299 -0.1745  0.4382
   88MOL   C33133565   5.344   4.300   1.209  0.3205 -0.2706 -0.6533
   88MOL   H33233566   5.100   4.580   0.918  0.0579 -1.6320 -0.5500
   88MOL   H33333567   5.212   4.642   1.021 -1.9053  1.6601  0.8310
   88MOL   H33433568   5.378   4.564   0.793  0.1660 -2.3919 -2.0064
   88MOL   H33533569   5.531   4.467   0.963  1.1182 -0.1122  2.1855
   88MOL   H33633570   5.414   4.513   1.089 -0.4023 -1.3769  1.7537
   88MOL   H33733571   5.450   4.226   1.043 -1.0993  1.6688 -1.8627
   88MOL   H33833572   5.658   4.339   1.089 -0.0479 -2.3902 -0.9201
   88MOL   H33933573   5.597   4.365   1.261  2.7424 -3.5127  2.7857
   88MOL   H34033574   5.626   4.202   1.197  2.3437  1.2766  4.1599
   88MOL   H34133575   5.344   4.199   1.248  0.5421  0.9407  2.6641
   88MOL   H34233576   5.348   4.363   1.298  0.2276 -0.0315 -0.8154
   88MOL   H34333577   5.244   4.312   1.167  0.4092  0.9121 -0.5547
   88MOL   C34433578   5.210   4.463   0.730 -0.6646 -0.6636  0.2871
   88MOL   C34533579   5.280   4.344   0.659 -0.1749 -0.4420  0.3432
   88MOL   O34633580   5.192   4.287   0.564 -0.0869 -0.2459  0.0693
   88MOL   C34733581   5.114   4.178   0.619 -0.3056  0.0052  0.0790
   88MOL   C34833582   5.025   4.109   0.516  0.1869  0.2813 -0.2133
   88MOL   C34933583   4.921   4.019   0.590 -0.6897 -0.3683 -0.5248
   88MOL   C35033584   5.114   4.021   0.428 -0.7392 -0.1471  0.7151
   88MOL   H35133585   5.182   4.542   0.660 -0.9544 -0.7451  0.3115
   88MOL   H35233586   5.123   4.423   0.780 -0.7311  0.1751  0.8524
   88MOL   H35333587   5.303   4.274   0.738  0.3522  1.3322  1.8060
   88MOL   H35433588   5.057   4.213   0.705  3.1591  0.3681  2.3382
   88MOL   H35533589   5.189   4.114   0.666 -0.2273 -0.5366 -0.7778
   88MOL   H35633590   4.980   4.187   0.454  0.6499  0.0063 -0.9027
   88MOL   H35733591   4.960   3.926   0.632  1.7902  0.1406 -1.6023
   88MOL   H35833592   4.843   4.001   0.517 -1.6100  3.2279 -0.5217
   88MOL   H35933593   4.868   4.066   0.672 -1.2877 -0.6527 -0.7422
   88MOL   H36033594   5.061   3.975   0.345 -1.3559  0.5974  0.6897
   88MOL   H36133595   5.201   4.071   0.383  1.3863 -4.4806 -0.3298
   88MOL   H36233596   5.156   3.942   0.490  1.4320  0.3525 -0.0649
   88MOL   C36333597   5.420   4.379   0.587  0.2495  0.0745 -0.1486
   88MOL   C36433598   5.493   4.254   0.542 -0.0152 -0.6168  0.4086
   88MOL   O36533599   5.592   4.299   0.446  0.2475 -0.2404 -0.3659
   88MOL   C36633600   5.661   4.188   0.384 -0.0154  0.6029 -0.6256
   88MOL   C36733601   5.718   4.224   0.240  0.0803  0.4121  0.1938
   88MOL   C36833602   5.794   4.357   0.252 -0.6813 -0.5904 -0.3835
   88MOL   C36933603   5.597   4.250   0.145 -0.6597  0.0542 -1.2714
   88MOL   H37033604   5.387   4.436   0.500 -0.1695 -0.8287 -0.5883
   88MOL   H37133605   5.487   4.441   0.647 -0.4922 -0.8893  1.7336
   88MOL   H37233606   5.433   4.181   0.488  0.2002  0.6607 -1.6150
   88MOL   H37333607   5.743   4.156   0.448  1.2665  1.4283 -1.8168
   88MOL   H37433608   5.604   4.099   0.356  3.7046 -1.7361 -1.2353
   88MOL   H37533609   5.782   4.147   0.196 -0.2289  0.8077 -0.9693
   88MOL   H37633610   5.729   4.444   0.249  1.4331  1.0554  0.2753
   88MOL   H37733611   5.850   4.366   0.159 -0.7360 -0.1377 -0.3721
   88MOL   H37833612   5.864   4.357   0.335  0.4462  1.3110 -1.2963
   88MOL   H37933613   5.547   4.156   0.120 -0.7672 -0.4719  0.8836
   88MOL   H38033614   5.622   4.311   0.058 -0.8638  2.0367  0.0534
   88MOL   H38133615   5.528   4.317   0.196 -1.1582 -1.4780  0.1083
   88MOL   H38233616   5.552   4.203   0.619  0.5112  1.0433  1.1364
   89MOL     C133617   2.803   0.421   7.377 -0.3379 -0.2760 -0.1163
   89MOL     C233618   2.674   0.385   7.290 -0.6042  0.1837 -0.0993
   89MOL     O333619   2.674   0.479   7.181 -0.2646  0.1546 -0.1206
   89MOL     C433620   2.552   0.544   7.175  0.4250  0.0088 -0.4985
   89MOL     C533621   2.544   0.621   7.039  0.4031 -0.2372  0.0329
   89MOL     C633622   2.412   0.702   7.030 -0.3662  0.0126  0.4287
   89MOL     C733623   2.561   0.535   6.911 -0.2022  0.0038  0.2554
   89MOL     H833624   2.803   0.528   7.393 -2.0436 -0.3527  0.4928
   89MOL     H933625   2.798   0.382   7.478 -1.2839 -1.5298 -0.6227
   89MOL    H1033626   2.592   0.412   7.356 -1.0351  1.5603 -1.1840
   89MOL    H1133627   2.551   0.627   7.246  0.0579  2.6145 -3.4187
   89MOL    H1233628   2.468   0.478   7.192  0.4377 -0.5414 -2.3720
   89MOL    H1333629   2.619   0.700   7.040 -1.0893  1.2313 -0.6419
   89MOL    H1433630   2.399   0.775   6.950 -0.1281  0.2868  0.6375
   89MOL    H1533631   2.330   0.630   7.032  0.6459 -1.1481  0.5926
   89MOL    H1633632   2.380   0.754   7.121  1.3701  1.0055  0.4877
   89MOL    H1733633   2.538   0.598   6.825 -2.0654  0.9150  1.3981
   89MOL    H1833634   2.660   0.490   6.907 -0.7393 -1.3139  1.5585
   89MOL    H1933635   2.486   0.456   6.918 -0.4349  0.0377 -1.6074
   89MOL    H2033636   2.899   0.378   7.347 -0.6607 -0.7715 -0.4511
   89MOL    C2133637   2.665   0.235   7.246  0.7122  0.4758 -0.2612
   89MOL    C2233638   2.684   0.138   7.366 -0.0431 -0.2581  0.2450
   89MOL    O2333639   2.571   0.144   7.466  0.1191  0.2634  0.2196
   89MOL    C2433640   2.616   0.130   7.599  0.0662 -0.5499 -0.0770
   89MOL    C2533641   2.488   0.142   7.686 -0.0187 -0.2479 -0.5654
   89MOL    C2633642   2.427   0.286   7.671 -0.4116  0.4103  0.4462
   89MOL    C2733643   2.385   0.039   7.676  0.7586  0.3044 -0.1901
   89MOL    H2833644   2.570   0.210   7.197  0.5125  0.6000  0.0610
   89MOL    H2933645   2.736   0.224   7.164  1.0672 -2.7053  0.3820
   89MOL    H3033646   2.775   0.163   7.420 -0.1621 -0.4369  0.5291
   89MOL    H3133647   2.685   0.211   7.624  0.0765  0.3892 -2.9160
   89MOL    H3233648   2.654   0.029   7.617  0.2507 -0.6183 -0.8347
   89MOL    H3333649   2.519   0.140   7.790  1.2564 -0.8616 -0.9548
   89MOL    H3433650   2.510   0.355   7.688 -0.8659  1.5250 -1.6793
   89MOL    H3533651   2.342   0.281   7.738 -0.6122 -0.7473  0.1040
   89MOL    H3633652   2.396   0.304   7.568  0.4852 -1.5031 -0.1677
   89MOL    H3733653   2.432   7.776   7.721 -2.0069 -1.5635 -0.8046
   89MOL    H3833654   2.303   0.057   7.744  1.4044  0.6047  0.5128
   89MOL    H3933655   2.349   0.025   7.574 -2.1071  0.7193  0.7303
   89MOL    C4033656   2.708   7.824   7.325  0.8133  0.7342  0.0667
   89MOL    C4133657   2.832   7.802   7.233  0.8524  0.4597 -0.7278
   89MOL    O4233658   2.839   7.660   7.219  0.2924  0.3052 -0.6089
   89MOL    C4333659   2.819   7.618   7.085 -0.3894 -0.0840 -0.0576
   89MOL    C4433660   2.763   7.468   7.092  0.7933  0.2617 -0.4178
   89MOL    C4533661   2.611   7.470   7.141 -0.5468 -0.0619 -0.2259
   89MOL    C4633662   2.780   7.386   6.956 -0.7809 -0.1805 -0.2999
   89MOL    H4733663   2.617   7.802   7.269  0.9750  0.5504 -0.1247
   89MOL    H4833664   2.713   7.753   7.408  1.9746  2.0579  1.1479
   89MOL    H4933665   2.812   0.020   7.135 -0.0577  0.2662 -0.6263
   89MOL    H5033666   2.912   7.617   7.030 -0.2626  0.2468  0.1465
   89MOL    H5133667   2.748   7.676   7.026  0.2550  0.2264 -0.5294
   89MOL    H5233668   2.817   7.413   7.169  1.1256  1.1407 -0.0174
   89MOL    H5333669   2.533   7.499   7.070 -1.2931 -1.6024 -0.0467
   89MOL    H5433670   2.574   7.383   7.196 -0.2444 -0.3606 -0.4993
   89MOL    H5533671   2.608   7.552   7.213 -1.3890 -0.7940  0.5823
   89MOL    H5633672   2.731   7.289   6.959  0.1424 -0.6241  1.1946
   89MOL    H5733673   2.888   7.375   6.943 -0.6094  0.2154  0.7254
   89MOL    H5833674   2.732   7.443   6.876 -1.2431 -0.7611 -0.4366
   89MOL    C5933675   2.968   0.028   7.288 -0.6112 -0.6903 -1.2066
   89MOL    C6033676   3.084   0.037   7.186 -0.3596 -0.2301 -0.1711
   89MOL    O6133677   3.206   0.033   7.258 -0.3170  0.2081  0.1363
   89MOL    C6233678   3.244   7.728   7.309 -0.1286  0.4023  0.0334
   89MOL    C6333679   3.382   7.694   7.264  0.4214  0.0156 -0.4755
   89MOL    C6433680   3.428   7.567   7.341  0.4357  0.5670  0.8818
   89MOL    C6533681   3.381   7.672   7.112 -0.0981 -0.2942  0.1045
   89MOL    H6633682   2.999   7.795   7.374  0.4501  0.4324 -0.8281
   89MOL    H6733683   2.949   0.129   7.325 -1.0017 -1.8265  1.8260
   89MOL    H6833684   3.082   7.770   7.127  1.9338 -1.0152  0.8643
   89MOL    H6933685   3.247   7.737   7.417 -0.2062 -0.6497  0.1313
   89MOL    H7033686   3.170   7.653   7.281 -0.2842  0.9611 -1.1018
   89MOL    H7133687   3.446   7.780   7.282  0.2994  0.3894 -1.8249
   89MOL    H7233688   3.520   7.531   7.297  0.9784  1.2082  1.4830
   89MOL    H7333689   3.363   7.483   7.316  0.8542  0.3517  0.5196
   89MOL    H7433690   3.448   7.589   7.446 -0.0750  0.5791  0.9817
   89MOL    H7533691   3.301   7.607   7.078  0.6661 -1.6726  0.9047
   89MOL    H7633692   3.360   7.758   7.048  1.0711 -0.5416 -0.6298
   89MOL    H7733693   3.478   7.635   7.081  0.6313  0.6763  1.1626
   89MOL    C7833694   3.098   0.169   7.106  0.1661  0.0792 -0.1135
   89MOL    C7933695   2.991   0.189   6.997  0.2504  0.7032  0.6132
   89MOL    O8033696   3.010   0.319   6.944  0.1261 -0.7015 -0.0131
   89MOL    C8133697   2.920   0.421   6.994  0.5571  0.8081  0.2139
   89MOL    C8233698   2.960   0.564   6.951  0.0273 -0.2139 -0.2384
   89MOL    C8333699   2.942   0.585   6.796 -0.6038  0.4081  0.0095
   89MOL    C8433700   3.107   0.605   7.000  0.1119  0.9000 -0.3262
   89MOL    H8533701   3.193   0.165   7.052  0.3954  0.5876  0.2495
   89MOL    H8633702   3.107   0.258   7.168 -0.0590 -0.3162  0.4893
   89MOL    H8733703   2.896   0.181   7.049  1.6120 -3.0695  2.7310
   89MOL    H8833704   2.822   0.386   6.962  0.4090  0.5209  0.9856
   89MOL    H8933705   2.914   0.431   7.102  0.1109  0.9015  0.1822
   89MOL    H9033706   2.887   0.630   6.997  0.3418 -0.1148  0.1237
   89MOL    H9133707   2.837   0.595   6.768 -0.5915 -1.3933 -0.7742
   89MOL    H9233708   2.982   0.504   6.734 -0.8810  0.6687 -0.5126
   89MOL    H9333709   2.993   0.671   6.755  1.1801  0.2813  1.8998
   89MOL    H9433710   3.178   0.539   6.950 -1.3832 -3.6634  3.2447
   89MOL    H9533711   3.112   0.575   7.104  2.1042  2.0071 -0.0786
   89MOL    H9633712   3.141   0.706   6.974  1.0150  0.5828 -0.4002
   89MOL    C9733713   2.992   0.084   6.886  0.6830 -0.4087 -0.3621
   89MOL    C9833714   2.877   0.082   6.784  0.1627  0.6728 -0.1667
   89MOL    O9933715   2.763   0.032   6.848 -0.3648 -0.4630 -0.5616
   89MOL   C10033716   2.650   0.117   6.856 -0.5247 -0.2463 -0.8143
   89MOL   C10133717   2.542   0.030   6.934  0.2756 -0.5277  0.0241
   89MOL   C10233718   2.422   0.137   6.946  0.6059 -0.6251  0.4180
   89MOL   C10333719   2.484   7.728   6.861 -0.6530  0.2899 -0.1731
   89MOL   H10433720   2.990   7.806   6.921 -1.7516 -0.1991  0.1776
   89MOL   H10533721   3.085   0.099   6.831  0.8404 -0.1878 -0.0345
   89MOL   H10633722   2.860   0.171   6.725 -1.7558  0.0674 -0.5716
   89MOL   H10733723   2.622   0.151   6.757  0.9531  1.2052 -0.7568
   89MOL   H10833724   2.676   0.208   6.910  2.9095 -1.2199 -0.6523
   89MOL   H10933725   2.575   0.011   7.036  0.9738  0.3098 -0.0464
   89MOL   H11033726   2.333   0.095   6.994 -0.7666  0.4032 -1.1451
   89MOL   H11133727   2.455   0.222   7.005  1.7292 -1.9905  1.8168
   89MOL   H11233728   2.384   0.171   6.849 -1.5966  0.2739  1.5624
   89MOL   H11333729   2.452   7.771   6.766 -0.0892 -1.7969 -1.3239
   89MOL   H11433730   2.553   7.645   6.849 -2.8195 -1.3163 -1.9081
   89MOL   H11533731   2.393   7.691   6.909 -0.3682 -1.3028 -0.8422
   89MOL   C11633732   2.913   7.804   6.677 -0.0020  0.6095  0.0856
   89MOL   C11733733   2.824   7.813   6.548 -0.7955  0.0482 -0.4793
   89MOL   O11833734   2.819   0.120   6.486 -0.0794  0.1530  0.0501
   89MOL   C11933735   2.686   0.147   6.439 -0.8217  0.9994 -0.1105
   89MOL   C12033736   2.694   0.249   6.324  0.1615 -0.2812 -0.2012
   89MOL   C12133737   2.721   0.385   6.393  0.2103  0.5219 -0.7617
   89MOL   C12233738   2.800   0.229   6.219 -0.1317  0.3378 -0.2192
   89MOL   H12333739   3.019   7.822   6.660  0.9534 -2.4893  2.1159
   89MOL   H12433740   2.910   7.702   6.716 -1.2161  1.1052  1.3125
   89MOL   H12533741   2.725   7.771   6.568 -1.0551  0.8200 -0.1051
   89MOL   H12633742   2.621   0.179   6.521 -2.6063 -1.4222 -0.5122
   89MOL   H12733743   2.653   0.053   6.394  0.0341  1.0231 -0.7845
   89MOL   H12833744   2.593   0.260   6.285 -0.3467 -0.5909  1.0006
   89MOL   H12933745   2.817   0.404   6.441 -0.7893  1.8985  0.7197
   89MOL   H13033746   2.634   0.394   6.457 -0.5523 -1.2022 -1.5176
   89MOL   H13133747   2.705   0.454   6.310 -1.0380  1.7182  0.4603
   89MOL   H13233748   2.898   0.224   6.266  0.1075 -1.1859 -0.8632
   89MOL   H13333749   2.782   0.130   6.178  1.7483 -0.2135  0.2510
   89MOL   H13433750   2.809   0.301   6.138 -0.3593  1.5778  0.8328
   89MOL   C13533751   2.877   7.729   6.431 -0.0472 -0.0176 -0.0525
   89MOL   C13633752   2.867   7.577   6.440 -0.8063 -0.3917 -0.5433
   89MOL   O13733753   2.726   7.545   6.443 -0.7991 -0.2478  0.6108
   89MOL   C13833754   2.686   7.453   6.544  0.2307 -0.2616 -0.0499
   89MOL   C13933755   2.557   7.376   6.502 -0.3687 -0.6973  1.3448
   89MOL   C14033756   2.430   7.463   6.477 -0.8648  0.4918  0.0927
   89MOL   C14133757   2.583   7.296   6.366  0.7333  0.0576  0.7025
   89MOL   H14233758   2.824   7.751   6.338 -0.3267  0.0898  0.1298
   89MOL   H14333759   2.980   7.764   6.418  0.1082 -0.2055  0.6710
   89MOL   H14433760   2.916   7.529   6.524 -0.2420  0.2532 -0.5051
   89MOL   H14533761   2.668   7.507   6.637  0.8388  1.0594 -0.6958
   89MOL   H14633762   2.761   7.375   6.559 -0.7595 -1.0980  0.6821
   89MOL   H14733763   2.543   7.311   6.588  1.3302 -1.9195  0.7242
   89MOL   H14833764   2.341   7.400   6.470  1.9103 -3.8599  2.1030
   89MOL   H14933765   2.444   7.533   6.394  2.5854  1.9304  1.8018
   89MOL   H15033766   2.429   7.529   6.564  1.3210  0.2014  0.3404
   89MOL   H15133767   2.647   7.209   6.384  0.3852 -0.2924  0.2520
   89MOL   H15233768   2.485   7.268   6.327  0.4715  2.1952 -0.2341
   89MOL   H15333769   2.633   7.343   6.281 -0.8693  0.6247  0.0685
   89MOL   C15433770   2.926   7.510   6.319 -0.0769  0.6907  0.3363
   89MOL   C15533771   3.078   7.534   6.300  0.3292  0.1690 -0.0991
   89MOL   O15633772   3.136   7.502   6.424 -0.0533 -0.0262 -0.2321
   89MOL   C15733773   3.248   7.592   6.453 -0.5146 -0.4560 -0.2826
   89MOL   C15833774   3.333   7.551   6.577 -0.2780 -0.3622  0.1564
   89MOL   C15933775   3.448   7.650   6.586  0.6824 -0.0592  0.3556
   89MOL   C16033776   3.251   7.549   6.705 -0.4527  0.5263 -0.2547
   89MOL   H16133777   2.873   7.555   6.234  0.5511  1.5849  0.4113
   89MOL   H16233778   2.902   7.404   6.327  1.9066  0.3864  2.5947
   89MOL   H16333779   3.095   7.637   6.271  0.2980  1.1504  3.1073
   89MOL   H16433780   3.207   7.693   6.463 -0.4742 -0.2374 -2.0988
   89MOL   H16533781   3.314   7.593   6.366 -0.2287  0.4649 -0.0601
   89MOL   H16633782   3.380   7.455   6.556  0.8447  0.1350  0.3806
   89MOL   H16733783   3.527   7.634   6.512  1.1193 -0.6682  0.9494
   89MOL   H16833784   3.505   7.640   6.678  1.9300 -0.4486 -0.4451
   89MOL   H16933785   3.419   7.755   6.583 -1.7500 -0.7365 -1.0958
   89MOL   H17033786   3.218   7.645   6.743  1.7740  0.4417  2.0381
   89MOL   H17133787   3.162   7.485   6.699  0.4497 -0.9261  1.2857
   89MOL   H17233788   3.313   7.515   6.788  1.1035  1.3517 -1.0563
   89MOL   C17333789   3.141   7.431   6.201 -0.3026  0.1828  0.7028
   89MOL   C17433790   3.091   7.432   6.060 -0.4933 -0.0129  0.2270
   89MOL   O17533791   3.095   7.559   6.006  0.3725  0.0735 -0.5061
   89MOL   C17633792   3.000   7.581   5.898 -0.0291 -0.2571 -0.3647
   89MOL   C17733793   3.021   7.728   5.862  0.1169 -0.0866 -0.0612
   89MOL   C17833794   3.001   0.003   5.985 -0.2419 -0.1721  0.3180
   89MOL   C17933795   3.169   7.752   5.801 -0.5128  0.0460  0.2367
   89MOL   H18033796   3.247   7.452   6.198 -0.2608 -0.1545 -0.3673
   89MOL   H18133797   3.128   7.329   6.238  0.3627 -0.4039 -0.6701
   89MOL   H18233798   2.985   7.408   6.052 -0.3369  0.0983 -2.4753
   89MOL   H18333799   2.895   7.570   5.924  0.1576 -0.3227  0.3805
   89MOL   H18433800   3.010   7.512   5.814 -0.3029 -1.8449  0.8675
   89MOL   H18533801   2.946   7.754   5.787  1.1265  3.5535  0.1047
   89MOL   H18633802   3.024   0.104   5.952  0.0846 -1.2936 -3.0619
   89MOL   H18733803   2.895   0.002   6.009  0.3848  2.0422  3.4379
   89MOL   H18833804   3.054   7.799   6.076  2.8372  0.4437 -1.2332
   89MOL   H18933805   3.177   0.027   5.758  2.6504  0.2142  1.1191
   89MOL   H19033806   3.197   7.676   5.728 -2.5020 -1.3722  0.9025
   89MOL   H19133807   3.244   7.747   5.880 -1.4898  1.1956  1.2634
   89MOL   C19233808   3.180   7.336   5.971  1.0967 -0.6952  0.4225
   89MOL   C19333809   3.197   7.183   6.016 -0.4884  0.7258  0.4635
   89MOL   O19433810   3.318   7.172   6.081 -0.1752 -0.0997 -0.4632
   89MOL   C19533811   3.331   7.084   6.189 -0.4684 -0.0783 -0.1431
   89MOL   C19633812   3.463   7.113   6.266 -0.5443 -0.3391  0.0889
   89MOL   C19733813   3.468   7.252   6.343  0.6505  0.0575  0.1903
   89MOL   C19833814   3.582   7.107   6.178  0.3030 -0.3444  0.2347
   89MOL   H19933815   3.273   7.393   5.971  1.0023 -0.5330 -0.6302
   89MOL   H20033816   3.146   7.341   5.868  1.3794  1.6609  0.4112
   89MOL   H20133817   3.116   7.161   6.086 -1.1613 -0.2790 -0.6267
   89MOL   H20233818   3.315   6.979   6.161 -0.9263 -0.5568  1.8592
   89MOL   H20333819   3.246   7.104   6.254 -0.5350  0.5955 -0.4320
   89MOL   H20433820   3.478   7.028   6.332  1.2854 -0.0314  0.0820
   89MOL   H20533821   3.475   7.343   6.283  0.7414 -0.4059 -0.5023
   89MOL   H20633822   3.378   7.258   6.405 -0.8821  0.4272 -1.9838
   89MOL   H20733823   3.555   7.267   6.406 -0.4740  0.7751  1.6231
   89MOL   H20833824   3.583   7.023   6.109  0.5519 -0.0959 -0.0624
   89MOL   H20933825   3.577   7.184   6.101  1.6092 -0.4872  0.0027
   89MOL   H21033826   3.675   7.109   6.234  0.2076 -0.9503  0.4202
   89MOL   C21133827   3.193   7.078   5.901 -0.7112  0.4761 -0.1507
   89MOL   C21233828   3.053   7.009   5.878  0.5286  0.2836  0.7537
   89MOL   O21333829   2.958   7.110   5.842 -0.2272  0.6031 -0.1389
   89MOL   C21433830   2.842   7.100   5.916 -0.1069  0.2622  0.1836
   89MOL   C21533831   2.732   7.207   5.886 -0.2319  0.1313 -0.1134
   89MOL   C21633832   2.696   7.193   5.741 -0.4490 -0.0089 -0.0193
   89MOL   C21733833   2.613   7.205   5.986 -0.4632  0.5492  0.2704
   89MOL   H21833834   3.263   6.998   5.925  0.5242  1.2968 -0.9345
   89MOL   H21933835   3.227   7.123   5.807 -1.6817 -2.3443 -1.9299
   89MOL   H22033836   3.012   6.971   5.972 -0.1223 -0.9106 -0.0065
   89MOL   H22133837   2.871   7.115   6.020 -0.9679 -1.3739  0.6821
   89MOL   H22233838   2.809   6.996   5.911  2.8575 -0.7288 -0.1337
   89MOL   H22333839   2.782   7.303   5.898  2.4124 -1.3082  0.9877
   89MOL   H22433840   2.782   7.216   5.678  1.3899  0.5241  2.5731
   89MOL   H22533841   2.659   7.093   5.718  1.8920 -0.8163 -0.4548
   89MOL   H22633842   2.619   7.255   5.696 -1.7283 -0.9781  0.7642
   89MOL   H22733843   2.633   7.214   6.093 -2.2702  0.5797  0.6219
   89MOL   H22833844   2.552   7.117   5.963 -0.5624  0.2318  1.7204
   89MOL   H22933845   2.548   7.288   5.960 -0.6708  0.1362 -0.5442
   89MOL   C23033846   3.059   6.897   5.759 -0.4303  0.8352  0.6352
   89MOL   C23133847   2.943   6.801   5.735  0.2403 -0.1313  0.6964
   89MOL   O23233848   2.919   6.777   5.594 -0.0647 -0.4033 -0.3684
   89MOL   C23333849   2.818   6.856   5.536 -0.0952  0.3775  0.3993
   89MOL   C23433850   2.811   6.858   5.382  0.0639 -0.8745 -0.0601
   89MOL   C23533851   2.940   6.901   5.315 -0.1601 -0.3215  0.2361
   89MOL   C23633852   2.759   6.731   5.322  0.0942  0.1461 -0.0516
   89MOL   H23733853   3.150   6.842   5.781 -0.2579  0.9364  0.1821
   89MOL   H23833854   3.073   6.946   5.662 -2.8822  1.2351  0.4283
   89MOL   H23933855   2.855   6.837   5.789 -0.3635 -1.8241  0.8686
   89MOL   H24033856   2.720   6.832   5.575  0.4316  1.6464  2.5552
   89MOL   H24133857   2.844   6.957   5.565 -1.1339  1.2765 -1.6746
   89MOL   H24233858   2.734   6.928   5.351 -0.2064 -2.8155 -4.1570
   89MOL   H24333859   2.934   6.893   5.206 -0.4509 -0.6412  0.2713
   89MOL   H24433860   3.013   6.837   5.365  0.2713 -0.7215 -0.8923
   89MOL   H24533861   2.960   7.003   5.345 -1.1276  0.5400 -1.9414
   89MOL   H24633862   2.764   6.736   5.213 -2.8377  0.1165 -0.2421
   89MOL   H24733863   2.816   6.642   5.347 -1.3649 -0.9278 -0.4662
   89MOL   H24833864   2.655   6.704   5.339 -0.2115  2.3287  1.7235
   89MOL   C24933865   2.976   6.663   5.787  0.4082 -0.7430  0.4783
   89MOL   C25033866   2.976   6.653   5.941 -0.2318  0.1335 -0.2217
   89MOL   O25133867   2.843   6.673   5.999 -0.2010  0.5616  0.1697
   89MOL   C25233868   2.829   6.762   6.113 -0.2786 -0.1490 -0.0104
   89MOL   C25333869   2.679   6.812   6.130  0.0462 -0.1844  0.3937
   89MOL   C25433870   2.658   6.909   6.250  0.7378  0.2229  0.5593
   89MOL   C25533871   2.575   6.698   6.128 -1.0802 -0.4749 -0.2210
   89MOL   H25633872   3.067   6.619   5.747  1.0853  1.2507 -0.2487
   89MOL   H25733873   2.903   6.598   5.739  0.1965  0.9009 -1.4748
   89MOL   H25833874   3.038   6.731   5.985 -1.9201  1.5473 -0.2785
   89MOL   H25933875   2.867   6.714   6.204  1.0627 -0.0675 -0.5195
   89MOL   H26033876   2.896   6.845   6.091  0.9218 -1.7425 -2.6275
   89MOL   H26133877   2.666   6.861   6.033 -2.8464 -1.3395  0.1527
   89MOL   H26233878   2.743   6.976   6.256  0.9294 -0.0342  0.7247
   89MOL   H26333879   2.654   6.851   6.343 -1.0379 -0.2808  0.1913
   89MOL   H26433880   2.563   6.963   6.255 -0.0620 -0.9029 -1.6671
   89MOL   H26533881   2.474   6.725   6.096 -1.1670 -0.3049  0.1992
   89MOL   H26633882   2.615   6.628   6.056 -0.5945  0.5914 -1.0085
   89MOL   H26733883   2.567   6.645   6.222 -0.0454 -0.8460 -0.3383
   89MOL   C26833884   3.038   6.512   5.987  0.2681  0.0649  0.6568
   89MOL   C26933885   3.103   6.514   6.131  0.1426  0.7473 -0.2141
   89MOL   O27033886   3.233   6.556   6.102  0.2439 -0.9517 -0.1343
   89MOL   C27133887   3.313   6.607   6.204  0.7796 -0.0185  0.2034
   89MOL   C27233888   3.457   6.634   6.146 -0.8647  0.3865  0.3580
   89MOL   C27333889   3.518   6.499   6.108  0.2751 -0.0866  0.0066
   89MOL   C27433890   3.460   6.729   6.029  0.4379 -0.7532  0.0948
   89MOL   H27533891   3.124   6.490   5.924  0.4978  2.1932  0.1617
   89MOL   H27633892   2.959   6.439   5.972 -1.1302  1.5510  0.5520
   89MOL   H27733893   3.066   6.585   6.205  1.1256 -1.4728  2.4786
   89MOL   H27833894   3.269   6.696   6.251  0.4533  0.8344 -1.6518
   89MOL   H27933895   3.312   6.532   6.283  1.4997  0.4117  0.6274
   89MOL   H28033896   3.519   6.682   6.222  2.2224  0.3604 -2.0946
   89MOL   H28133897   3.607   6.517   6.047  0.8631 -1.7813  0.3482
   89MOL   H28233898   3.442   6.434   6.065 -0.8482  0.6597  0.8332
   89MOL   H28333899   3.556   6.445   6.195 -0.9428 -1.5553 -0.3482
   89MOL   H28433900   3.539   6.804   6.031 -1.3500  1.2050 -0.6217
   89MOL   H28533901   3.366   6.783   6.017 -0.2305 -2.2010 -1.4556
   89MOL   H28633902   3.488   6.672   5.941  1.3757  0.4833 -0.4264
   89MOL   C28733903   3.102   6.370   6.181  0.4532  0.1126 -0.4015
   89MOL   C28833904   2.975   6.344   6.258 -0.1175  0.4385 -0.1018
   89MOL   O28933905   2.999   6.413   6.379  0.3574 -0.4015 -0.1492
   89MOL   C29033906   2.882   6.462   6.446  0.3208  1.1949 -0.2854
   89MOL   C29133907   2.933   6.529   6.572  0.4368 -0.0931  0.3576
   89MOL   C29233908   3.004   6.428   6.661  0.3145  0.0471 -0.7014
   89MOL   C29333909   2.832   6.619   6.644  0.0248  0.3167 -0.0146
   89MOL   H29433910   3.196   6.359   6.235  1.6595 -1.6612 -2.7523
   89MOL   H29533911   3.110   6.303   6.095 -0.6631  1.9422 -1.9978
   89MOL   H29633912   2.896   6.398   6.206  0.5656  1.8486  0.2871
   89MOL   H29733913   2.828   6.531   6.380 -0.6577 -0.1688 -0.9454
   89MOL   H29833914   2.815   6.382   6.479 -0.0018  1.3073 -0.6583
   89MOL   H29933915   3.018   6.585   6.535  1.1568 -0.8925  0.7685
   89MOL   H30033916   2.937   6.389   6.738  1.7718 -1.0757  0.0265
   89MOL   H30133917   3.089   6.463   6.719  0.0214  0.8222 -0.7396
   89MOL   H30233918   3.034   6.341   6.604  1.5710  0.0550 -0.0590
   89MOL   H30333919   2.880   6.685   6.715  2.1583 -1.1753 -0.0306
   89MOL   H30433920   2.771   6.672   6.571 -0.4053  1.3441  1.0863
   89MOL   H30533921   2.767   6.554   6.703  0.1980  0.5815  0.4619
   89MOL   C30633922   2.944   6.189   6.276 -0.0067  0.4844  0.1597
   89MOL   C30733923   2.806   6.146   6.309  0.3549  0.0843  0.1262
   89MOL   O30833924   2.722   6.197   6.205 -0.7583  0.1443  0.1729
   89MOL   C30933925   2.599   6.234   6.246 -0.0284 -0.3525  0.2200
   89MOL   C31033926   2.517   6.271   6.119  0.1122 -0.0064 -0.8700
   89MOL   C31133927   2.378   6.325   6.151  0.0750  0.4123  0.5566
   89MOL   C31233928   2.502   6.142   6.027 -0.5615  0.4647 -0.0788
   89MOL   H31333929   3.019   6.150   6.346  1.0446 -1.1232 -1.8129
   89MOL   H31433930   2.960   6.142   6.179  0.8018 -2.0483  1.4485
   89MOL   H31533931   2.776   6.194   6.401  0.1128  0.6188 -0.2304
   89MOL   H31633932   2.602   6.327   6.302  0.3350  0.3244 -0.9025
   89MOL   H31733933   2.550   6.155   6.303 -0.6419  0.2120  0.4678
   89MOL   H31833934   2.559   6.348   6.054 -1.0661 -0.5300 -2.2888
   89MOL   H31933935   2.322   6.323   6.057  1.7181  1.2046 -0.4598
   89MOL   H32033936   2.379   6.429   6.182  0.6144  1.1758 -1.8516
   89MOL   H32133937   2.329   6.266   6.228 -1.8195 -0.2001 -1.0922
   89MOL   H32233938   2.596   6.114   5.981 -1.4281  1.7955 -2.7874
   89MOL   H32333939   2.427   6.158   5.949 -0.7099  0.3635  0.0409
   89MOL   H32433940   2.464   6.056   6.083 -1.2501  0.3551 -0.7070
   89MOL   C32533941   2.787   5.996   6.332 -0.1119 -0.2384 -0.3304
   89MOL   C32633942   2.807   5.968   6.485  0.7239  0.1268  0.6131
   89MOL   O32733943   2.687   6.020   6.547  0.3473 -0.3915  0.0194
   89MOL   C32833944   2.713   6.081   6.675  0.1150 -0.2853 -0.8443
   89MOL   C32933945   2.583   6.069   6.754 -0.0107  0.2733 -0.0646
   89MOL   C33033946   2.562   5.930   6.806 -0.0730  0.2276  0.4730
   89MOL   C33133947   2.581   6.175   6.865  0.1945 -0.7005  0.4063
   89MOL   H33233948   2.841   5.936   6.259 -0.7192  1.5062 -2.2376
   89MOL   H33333949   2.683   5.974   6.307 -0.4512  0.0208  0.8036
   89MOL   H33433950   2.891   6.027   6.521  0.7394  1.3378 -1.3017
   89MOL   H33533951   2.799   6.058   6.738  0.3601  2.3000 -0.1587
   89MOL   H33633952   2.730   6.187   6.654  1.2096 -0.1287  0.7935
   89MOL   H33733953   2.495   6.094   6.694  0.1477  0.2935 -0.2885
   89MOL   H33833954   2.543   5.862   6.723  0.1846  2.4272 -1.4507
   89MOL   H33933955   2.656   5.897   6.851  1.3701  2.2395 -0.9598
   89MOL   H34033956   2.474   5.920   6.869 -0.2213 -0.5750  0.1439
   89MOL   H34133957   2.600   6.273   6.820  1.2161 -0.1880  1.9429
   89MOL   H34233958   2.490   6.176   6.924 -2.0376 -1.4215 -2.8765
   89MOL   H34333959   2.661   6.145   6.933  0.2347 -0.1287  0.6122
   89MOL   C34433960   2.847   5.826   6.541 -0.6917  0.2501  0.8149
   89MOL   C34533961   2.997   5.791   6.506 -0.2136 -0.5037  0.6884
   89MOL   O34633962   3.093   5.882   6.556 -0.0076  0.2847 -0.1008
   89MOL   C34733963   3.203   5.903   6.472  0.2848 -0.1240  0.4059
   89MOL   C34833964   3.282   6.011   6.548  0.0147  0.0177  0.5086
   89MOL   C34933965   3.386   6.086   6.457 -0.4927 -0.0354  0.8497
   89MOL   C35033966   3.349   5.935   6.664 -0.5265  0.3384  0.3100
   89MOL   H35133967   2.784   5.748   6.496 -1.2062 -0.0040  1.9465
   89MOL   H35233968   2.855   5.822   6.650  0.3338  1.5184  0.7919
   89MOL   H35333969   3.016   5.773   6.400 -3.1093 -0.2995  0.0929
   89MOL   H35433970   3.168   5.938   6.375  2.0012 -2.7290 -1.2385
   89MOL   H35533971   3.270   5.817   6.462  2.1560  1.2149  1.0843
   89MOL   H35633972   3.215   6.087   6.587  1.4037  1.2243  0.5913
   89MOL   H35733973   3.457   6.148   6.512  0.3435 -0.7307  0.5767
   89MOL   H35833974   3.347   6.151   6.378  0.4806 -2.5360 -1.7812
   89MOL   H35933975   3.462   6.026   6.407 -1.3979  0.8780 -1.7191
   89MOL   H36033976   3.394   6.005   6.735 -0.1575 -0.2926  0.7071
   89MOL   H36133977   3.282   5.882   6.733 -1.4331  1.4182  0.2675
   89MOL   H36233978   3.430   5.877   6.622  0.4480 -0.2812  2.9504
   89MOL   C36333979   3.038   5.664   6.580  0.0750  0.3249  0.2837
   89MOL   C36433980   2.963   5.550   6.508  0.3313  0.0337 -0.5121
   89MOL   O36533981   2.988   5.438   6.584 -0.1745  0.2759 -0.0518
   89MOL   C36633982   2.971   5.315   6.519 -0.3800  0.8802 -0.0550
   89MOL   C36733983   3.097   5.228   6.496  0.0063 -0.3409  0.3709
   89MOL   C36833984   3.179   5.208   6.631  0.5813 -0.2615  0.1199
   89MOL   C36933985   3.184   5.291   6.389  0.1679  0.0011  0.2187
   89MOL   H37033986   3.146   5.650   6.581  0.0833  0.3799  2.0031
   89MOL   H37133987   3.021   5.676   6.687 -1.1594 -1.4441  0.3268
   89MOL   H37233988   3.004   5.530   6.409  2.3793 -0.6418  0.4590
   89MOL   H37333989   2.899   5.262   6.582 -1.0712 -1.3087 -2.6341
   89MOL   H37433990   2.923   5.327   6.422 -0.2459 -0.0285 -0.2352
   89MOL   H37533991   3.058   5.132   6.460  1.3199 -1.0301  0.7519
   89MOL   H37633992   3.253   5.128   6.628  1.0196  0.1649 -0.6066
   89MOL   H37733993   3.112   5.192   6.715  0.9995  2.7145  1.0923
   89MOL   H37833994   3.254   5.286   6.646  0.7616 -0.3451 -0.3347
   89MOL   H37933995   3.262   5.217   6.369 -0.7828 -1.1046  0.5725
   89MOL   H38033996   3.228   5.389   6.406 -0.7373  0.0511  2.3785
   89MOL   H38133997   3.132   5.304   6.294 -0.2247 -0.0822  0.4248
   89MOL   H38233998   2.854   5.550   6.507  0.3291 -1.0403 -1.3622
   90MOL     C133999   1.392   0.581   6.208  0.5306  0.8230 -0.4507
   90MOL     C234000   1.262   0.506   6.257  0.0125  0.5113 -0.1121
   90MOL     O334001   1.289   0.366   6.260  0.5273  0.2110  0.4139
   90MOL     C434002   1.273   0.310   6.133 -0.0657  0.2020  0.0840
   90MOL     C534003   1.312   0.162   6.136 -0.1049  0.3823  0.4953
   90MOL     C634004   1.315   0.093   5.995 -0.4888  0.1453 -0.8937
   90MOL     C734005   1.217   0.076   6.224  0.4838 -0.6121 -0.0843
   90MOL     H834006   1.461   0.571   6.292  0.6214 -0.6219 -0.6762
   90MOL     H934007   1.439   0.539   6.119  1.1176  0.2014  0.1360
   90MOL    H1034008   1.182   0.515   6.184 -2.1961 -2.5901  1.7928
   90MOL    H1134009   1.340   0.367   6.068  0.1934  1.7599  1.6848
   90MOL    H1234010   1.173   0.315   6.090  1.3827 -2.2916 -3.9129
   90MOL    H1334011   1.412   0.138   6.172  0.0931 -1.8862 -1.4155
   90MOL    H1434012   1.230   0.102   5.928  0.1454 -0.3897 -1.7955
   90MOL    H1534013   1.393   0.134   5.931  1.4916 -1.7381  0.2369
   90MOL    H1634014   1.336   7.810   5.998  1.5946  0.4689 -2.4804
   90MOL    H1734015   1.120   0.072   6.175 -0.3394  2.6393  1.1652
   90MOL    H1834016   1.235   7.793   6.233 -1.8046 -1.0605 -0.6028
   90MOL    H1934017   1.200   0.106   6.327  1.3852 -0.4779  0.0351
   90MOL    H2034018   1.373   0.687   6.198  0.4929  0.7332 -1.3459
   90MOL    C2134019   1.210   0.560   6.391 -0.3069  0.5079 -0.1815
   90MOL    C2234020   1.071   0.518   6.438  0.8127 -0.6453 -0.3636
   90MOL    O2334021   1.041   0.608   6.546 -0.3387 -0.6283 -0.0995
   90MOL    C2434022   1.061   0.544   6.672  0.7388 -0.0025 -0.4154
   90MOL    C2534023   1.080   0.642   6.787  0.2640  0.0653  0.1161
   90MOL    C2634024   1.061   0.586   6.935 -0.1121 -0.3527 -0.1827
   90MOL    C2734025   1.203   0.718   6.768  0.4791 -0.2328 -0.1699
   90MOL    H2834026   1.287   0.523   6.459 -0.1232 -0.7516 -1.0525
   90MOL    H2934027   1.223   0.668   6.385 -2.8863  0.8912  0.6064
   90MOL    H3034028   1.078   0.414   6.469 -1.1282 -0.7162 -0.0719
   90MOL    H3134029   1.148   0.477   6.669  0.5496 -0.3509  1.2943
   90MOL    H3234030   0.976   0.480   6.696 -0.1478  1.6573  0.9121
   90MOL    H3334031   0.999   0.710   6.760  0.8578  0.0425 -1.8471
   90MOL    H3434032   1.078   0.661   7.012  1.2111 -0.1084 -0.6946
   90MOL    H3534033   1.138   0.514   6.965  0.2676  0.2773  0.3559
   90MOL    H3634034   0.967   0.531   6.943  0.8108 -2.1032 -1.1036
   90MOL    H3734035   1.211   0.744   6.663 -1.0092  1.2790  0.0767
   90MOL    H3834036   1.197   0.805   6.835 -0.9008  0.8727 -1.7065
   90MOL    H3934037   1.295   0.660   6.782  0.3800 -0.4306 -0.3424
   90MOL    C4034038   0.957   0.527   6.332 -0.1601 -0.0150 -0.3145
   90MOL    C4134039   0.813   0.502   6.397 -0.2314 -0.1549 -0.0198
   90MOL    O4234040   0.810   0.365   6.443 -0.0704  0.7674  0.2333
   90MOL    C4334041   0.705   0.325   6.530 -0.4160 -0.0193  0.3319
   90MOL    C4434042   0.729   0.176   6.582 -0.0934  0.1660  1.1610
   90MOL    C4534043   0.860   0.164   6.652 -0.3702 -0.5549 -0.3397
   90MOL    C4634044   0.611   0.129   6.671 -0.1626  0.1699  0.3320
   90MOL    H4734045   0.956   0.455   6.249 -0.1299 -0.3317 -0.0430
   90MOL    H4834046   0.982   0.622   6.286 -0.8670  0.6284  0.6316
   90MOL    H4934047   0.824   0.546   6.495 -2.3929  0.4894 -0.0428
   90MOL    H5034048   0.611   0.323   6.473  0.0663  0.4871 -0.4977
   90MOL    H5134049   0.696   0.394   6.614  0.2279  0.2306  0.1998
   90MOL    H5234050   0.717   0.115   6.492  2.9768  1.8419 -0.4833
   90MOL    H5334051   0.868   0.240   6.731  0.7495 -1.9521  0.9278
   90MOL    H5434052   0.868   0.067   6.700  2.3086 -0.3352 -0.2713
   90MOL    H5534053   0.938   0.176   6.577  1.8377 -0.7241  1.8498
   90MOL    H5634054   0.605   0.024   6.697  1.4692  0.4300  1.8628
   90MOL    H5734055   0.520   0.142   6.612 -0.8891 -1.9116  0.9724
   90MOL    H5834056   0.606   0.197   6.756 -0.1978 -0.2304  0.6490
   90MOL    C5934057   0.689   0.535   6.309 -0.1168 -0.0619  0.1516
   90MOL    C6034058   0.707   0.670   6.234  0.0012 -0.8509 -0.1096
   90MOL    O6134059   0.795   0.668   6.128 -0.5099  0.5169  0.4571
   90MOL    C6234060   0.759   0.756   6.020 -0.5665  0.1254 -0.3104
   90MOL    C6334061   0.851   0.725   5.901  0.7837 -0.4312 -0.7662
   90MOL    C6434062   0.999   0.751   5.927 -0.6436 -0.3403  0.6003
   90MOL    C6534063   0.823   0.583   5.846 -0.2404  0.0951  0.2506
   90MOL    H6634064   0.594   0.530   6.362 -0.4788 -0.2639 -0.5191
   90MOL    H6734065   0.675   0.449   6.243 -1.1413 -0.8345  1.3512
   90MOL    H6834066   0.613   0.679   6.181 -1.4734 -1.3920  2.3164
   90MOL    H6934067   0.658   0.726   5.993 -0.8336  0.2048  0.5926
   90MOL    H7034068   0.760   0.858   6.056 -0.7913 -0.4184  1.2826
   90MOL    H7134069   0.812   0.805   5.838 -0.4892 -0.0146  0.4997
   90MOL    H7234070   1.031   0.701   6.019 -0.6848 -0.6222  0.4610
   90MOL    H7334071   1.016   0.856   5.953  0.1627 -0.0090 -1.2003
   90MOL    H7434072   1.060   0.734   5.838  0.9587  2.2611  1.1315
   90MOL    H7534073   0.878   0.512   5.908 -0.0796 -2.1339 -2.3503
   90MOL    H7634074   0.717   0.562   5.833 -0.7118  2.6869 -0.3943
   90MOL    H7734075   0.876   0.569   5.752  0.2866 -0.3014  0.6047
   90MOL    C7834076   0.739   0.792   6.323 -0.7159 -0.0365 -0.2828
   90MOL    C7934077   0.663   0.802   6.457  0.0490  0.5505  0.4946
   90MOL    O8034078   0.719   0.897   6.543  0.0334  0.2968 -0.2793
   90MOL    C8134079   0.840   0.865   6.608 -0.0138 -0.2908  0.5270
   90MOL    C8234080   0.879   0.975   6.712  0.1506 -0.1576 -0.4381
   90MOL    C8334081   0.823   0.950   6.854  0.3369  0.9576 -0.8178
   90MOL    C8434082   0.852   1.120   6.672  0.6416  0.4205  0.6116
   90MOL    H8534083   0.715   0.882   6.266 -0.9438 -0.5418 -0.9919
   90MOL    H8634084   0.845   0.783   6.342 -0.7958 -2.4149 -0.7828
   90MOL    H8734085   0.675   0.712   6.517 -0.4701  0.7146  0.8455
   90MOL    H8834086   0.825   0.768   6.657 -2.3469 -0.7534 -1.0248
   90MOL    H8934087   0.912   0.852   6.528  0.3330  1.6119  0.5202
   90MOL    H9034088   0.987   0.971   6.728  0.1042 -1.5937 -0.3770
   90MOL    H9134089   0.847   1.029   6.925  2.4166  0.0372 -0.4497
   90MOL    H9234090   0.858   0.856   6.898 -0.5946  1.2410  0.5358
   90MOL    H9334091   0.718   0.921   6.863  0.4964  1.1580  2.1046
   90MOL    H9434092   0.891   1.194   6.742 -0.6494  1.2912  0.4296
   90MOL    H9534093   0.744   1.126   6.660  0.2867  1.2116  3.7935
   90MOL    H9634094   0.903   1.148   6.580  0.1784 -0.4892  0.0716
   90MOL    C9734095   0.507   0.828   6.435 -0.8762 -0.5385  1.0632
   90MOL    C9834096   0.433   0.838   6.569  0.3399  0.1266 -0.1593
   90MOL    O9934097   0.446   0.715   6.631  0.2309  0.3843  0.1086
   90MOL   C10034098   0.429   0.707   6.773 -0.5407 -0.6293  0.4906
   90MOL   C10134099   0.490   0.580   6.828  0.3595  0.8147 -0.1016
   90MOL   C10234100   0.425   0.458   6.749 -0.4298  0.1203  0.3111
   90MOL   C10334101   0.646   0.576   6.817 -0.4214 -0.0207  0.1647
   90MOL   H10434102   0.462   0.743   6.384  1.1177 -1.6106  1.0175
   90MOL   H10534103   0.490   0.918   6.376 -0.5897 -0.6137  0.8700
   90MOL   H10634104   0.475   0.930   6.609 -1.6589  1.3998 -0.8690
   90MOL   H10734105   0.322   0.702   6.793 -0.5681 -3.9060 -0.2362
   90MOL   H10834106   0.469   0.798   6.818 -1.6688  0.7134 -1.1608
   90MOL   H10934107   0.461   0.566   6.932 -0.0139  1.5330 -0.1097
   90MOL   H11034108   0.455   0.449   6.644  1.5782 -0.3241  0.9118
   90MOL   H11134109   0.438   0.366   6.804 -0.9135 -0.7100 -0.9355
   90MOL   H11234110   0.320   0.473   6.723 -0.2359  0.8663 -0.0763
   90MOL   H11334111   0.679   0.480   6.857  2.6425  0.3735 -1.2528
   90MOL   H11434112   0.685   0.579   6.716  1.6241 -1.5607  0.8705
   90MOL   H11534113   0.704   0.645   6.879  3.1024 -5.1622  3.0002
   90MOL   C11634114   0.282   0.874   6.538  0.0584  0.5453 -0.7692
   90MOL   C11734115   0.258   1.023   6.487  0.2578  0.3457 -0.6378
   90MOL   O11834116   0.264   1.018   6.338 -0.1801  0.5147 -0.4932
   90MOL   C11934117   0.335   1.130   6.281 -0.5146 -0.0634  0.0774
   90MOL   C12034118   0.344   1.113   6.129  0.0818 -0.0253 -0.4326
   90MOL   C12134119   0.389   1.251   6.071  0.2903 -0.9756  0.0251
   90MOL   C12234120   0.432   0.994   6.094 -0.4362 -0.3865  0.3235
   90MOL   H12334121   0.245   0.787   6.484  0.1184 -0.8758  1.4143
   90MOL   H12434122   0.229   0.864   6.632  1.6510 -2.9973 -0.1715
   90MOL   H12534123   0.336   1.091   6.520  0.5205  0.6225 -1.8018
   90MOL   H12634124   0.438   1.133   6.315 -0.3776 -0.9759 -0.2616
   90MOL   H12734125   0.291   1.227   6.307  1.6970  0.8164  0.6526
   90MOL   H12834126   0.252   1.083   6.079 -1.0846 -0.1723  1.7630
   90MOL   H12934127   0.481   1.286   6.117  0.0578 -2.1728  1.4365
   90MOL   H13034128   0.314   1.327   6.093  2.7502  1.2340  0.9417
   90MOL   H13134129   0.412   1.251   5.964 -1.7770 -1.2299 -0.4429
   90MOL   H13234130   0.535   1.030   6.098 -0.5564  0.0425 -0.4376
   90MOL   H13334131   0.430   0.910   6.164  0.7404 -1.5173 -0.9776
   90MOL   H13434132   0.408   0.960   5.993  0.1147  0.6156 -0.1516
   90MOL   C13534133   0.122   1.072   6.530  0.3473  0.1323  0.0406
   90MOL   C13634134   0.101   1.108   6.684  0.1429 -0.4385  0.2833
   90MOL   O13734135   0.214   1.186   6.717  0.2242 -0.1140 -0.2385
   90MOL   C13834136   0.237   1.211   6.854 -0.3247  0.8001  0.6432
   90MOL   C13934137   0.331   1.099   6.917  0.5730 -0.5988  0.2388
   90MOL   C14034138   0.480   1.094   6.869 -0.5122 -0.4510  0.5908
   90MOL   C14134139   0.326   1.095   7.075  0.1543 -0.4996 -0.3168
   90MOL   H14234140   0.091   1.156   6.468 -0.0197  1.4195  1.8993
   90MOL   H14334141   0.048   0.995   6.507  1.2618  0.2506 -3.5936
   90MOL   H14434142   0.100   1.014   6.739  0.6857  0.2439  1.4840
   90MOL   H14534143   0.152   1.219   6.922 -2.1775 -1.5430 -1.2970
   90MOL   H14634144   0.292   1.305   6.856  1.3441 -0.0213 -2.9634
   90MOL   H14734145   0.282   1.008   6.883  0.3926 -0.9885  1.5298
   90MOL   H14834146   0.538   1.182   6.896 -0.5376  0.0043 -0.7916
   90MOL   H14934147   0.485   1.086   6.760 -2.8783 -1.4979  0.5200
   90MOL   H15034148   0.527   1.005   6.912 -1.6179 -0.6342  1.4449
   90MOL   H15134149   0.394   1.018   7.112  1.5311  0.6143 -0.4834
   90MOL   H15234150   0.359   1.192   7.112 -1.4756 -0.5622  1.4050
   90MOL   H15334151   0.224   1.065   7.101  0.2825 -2.0138 -1.5029
   90MOL   C15434152   7.797   1.196   6.713 -0.4789  0.1649 -0.1395
   90MOL   C15534153   7.672   1.119   6.751 -0.3947  0.3393 -0.0595
   90MOL   O15634154   7.706   1.046   6.861  0.0719 -0.2824 -0.2991
   90MOL   C15734155   7.632   0.921   6.878 -0.7678 -0.9861 -0.1097
   90MOL   C15834156   7.689   0.853   7.006 -0.6475  0.3768  0.1940
   90MOL   C15934157   0.011   0.825   6.975 -0.2535 -0.0715 -1.0017
   90MOL   C16034158   7.648   0.941   7.130  0.0533  0.1979  0.4082
   90MOL   H16134159   7.778   1.255   6.624 -3.1947 -0.0412  0.2593
   90MOL   H16234160   0.002   1.260   6.796  1.6295  0.3706 -1.0162
   90MOL   H16334161   7.653   1.052   6.667 -3.5178  1.1517 -0.0569
   90MOL   H16434162   7.644   0.870   6.782 -0.0883  0.3010 -0.7200
   90MOL   H16534163   7.526   0.943   6.889 -0.6093 -0.9820  1.5084
   90MOL   H16634164   7.639   0.758   7.025 -0.4761  0.5166  1.3830
   90MOL   H16734165   0.079   0.909   6.963 -1.2911  0.8217 -0.7585
   90MOL   H16834166   0.004   0.766   6.883  0.1520 -1.2412 -0.2829
   90MOL   H16934167   0.038   0.757   7.056 -0.9808  1.0834  0.2338
   90MOL   H17034168   7.547   0.982   7.127  0.0538  0.3375  1.6583
   90MOL   H17134169   7.654   0.884   7.223 -2.5506  0.4516  0.7772
   90MOL   H17234170   7.713   1.026   7.152  1.2932 -0.8245  0.7596
   90MOL   C17334171   7.558   1.226   6.777  0.0740  1.7379 -0.7385
   90MOL   C17434172   7.453   1.235   6.665  0.5208 -0.1767 -0.4301
   90MOL   O17534173   7.385   1.110   6.653  0.2493 -0.1108 -0.2109
   90MOL   C17634174   7.310   1.090   6.530  0.4231 -0.2305  0.1443
   90MOL   C17734175   7.258   0.951   6.521  0.5048  0.3432 -0.4617
   90MOL   C17834176   7.377   0.854   6.500 -0.4812 -0.4801 -0.0706
   90MOL   C17934177   7.176   0.913   6.651  0.4071  0.5348 -0.6304
   90MOL   H18034178   7.496   1.206   6.864 -2.1782  0.0516 -2.6611
   90MOL   H18134179   7.603   1.321   6.804  1.4277  0.9984 -0.3374
   90MOL   H18234180   7.509   1.237   6.571 -0.6448  0.8015 -1.1152
   90MOL   H18334181   7.368   1.132   6.448  0.5944 -1.7681 -0.5471
   90MOL   H18434182   7.214   1.141   6.537  0.4568  0.0629 -1.4981
   90MOL   H18534183   7.187   0.938   6.439  2.0335  0.5087 -1.8544
   90MOL   H18634184   7.352   0.757   6.544 -0.8696 -0.3092  0.0803
   90MOL   H18734185   7.396   0.849   6.393 -0.5606 -0.2789 -0.0951
   90MOL   H18834186   7.465   0.883   6.558 -0.1863  2.1574 -1.7601
   90MOL   H18934187   7.253   0.898   6.727  1.2820  1.4563 -1.3105
   90MOL   H19034188   7.131   0.815   6.642 -1.0087  1.3447 -2.7401
   90MOL   H19134189   7.093   0.980   6.674  0.5485  0.6386 -0.4227
   90MOL   C19234190   7.350   1.349   6.680 -0.2104 -0.4832  0.2060
   90MOL   C19334191   7.413   1.495   6.682 -0.1917  0.3390  0.1962
   90MOL   O19434192   7.308   1.588   6.695  0.0222 -0.0014 -0.2590
   90MOL   C19534193   7.240   1.604   6.821 -0.6213 -0.2800 -0.0409
   90MOL   C19634194   7.147   1.732   6.811 -0.6509 -0.7394 -0.0563
   90MOL   C19734195   7.108   1.789   6.952 -0.2310 -0.1663  0.1955
   90MOL   C19834196   7.033   1.694   6.717 -0.2103 -0.0961 -0.0322
   90MOL   H19934197   7.287   1.338   6.769 -0.8755  0.8001 -0.0907
   90MOL   H20034198   7.285   1.337   6.593  2.5260 -3.3243 -1.5523
   90MOL   H20134199   7.488   1.517   6.757  0.6939 -0.8246 -0.3344
   90MOL   H20234200   7.318   1.614   6.897 -1.0536 -0.9979  0.5118
   90MOL   H20334201   7.183   1.523   6.866 -0.6871 -0.1803  0.0568
   90MOL   H20434202   7.188   1.817   6.755 -1.0561  0.9381  2.1071
   90MOL   H20534203   7.061   1.711   7.013 -0.6730 -1.1634 -1.3963
   90MOL   H20634204   7.195   1.836   6.997 -0.8412  1.1907 -0.0195
   90MOL   H20734205   7.029   1.862   6.933 -0.7773  0.0094  2.9277
   90MOL   H20834206   6.961   1.775   6.727  2.0271  1.6108  3.1978
   90MOL   H20934207   7.059   1.692   6.611 -1.8044  0.2367 -0.4453
   90MOL   H21034208   6.986   1.600   6.747 -0.4160 -0.3473 -1.1428
   90MOL   C21134209   7.486   1.510   6.549  0.7894 -0.6790 -0.5735
   90MOL   C21234210   7.540   1.652   6.535 -0.4863 -0.5826 -0.1943
   90MOL   O21334211   7.650   1.659   6.627 -0.1577  0.3983 -0.5640
   90MOL   C21434212   7.681   1.791   6.681 -0.4294 -0.2213 -0.3583
   90MOL   C21534213   7.818   1.805   6.754 -0.2209 -0.0738 -0.0736
   90MOL   C21634214   0.004   1.952   6.811 -0.3699 -0.4104 -0.0015
   90MOL   C21734215   0.013   1.703   6.863 -0.5270  0.3851  0.2595
   90MOL   H21834216   7.431   1.494   6.457 -0.7874  1.2865 -0.0063
   90MOL   H21934217   7.569   1.441   6.533 -0.4969 -1.5024 -4.0427
   90MOL   H22034218   7.468   1.729   6.563 -0.4531 -0.4749 -0.4072
   90MOL   H22134219   7.608   1.811   6.759  1.0133 -2.0904  1.5180
   90MOL   H22234220   7.674   1.865   6.601  1.8155 -1.0910 -1.4140
   90MOL   H22334221   0.077   1.792   6.685 -0.0759 -0.8826  0.2529
   90MOL   H22434222   7.758   1.979   6.889  1.0399 -0.1551  1.2287
   90MOL   H22534223   0.096   1.974   6.867  0.2593  0.3573 -1.3074
   90MOL   H22634224   0.002   2.024   6.730 -0.6322 -0.3512  0.0595
   90MOL   H22734225   0.114   1.701   6.905 -0.1597  1.7425 -0.5326
   90MOL   H22834226   7.801   1.607   6.827 -1.9896  1.1951 -0.4353
   90MOL   H22934227   7.774   1.723   6.949 -1.8460  3.1127 -1.2884
   90MOL   C23034228   7.589   1.673   6.392  0.3993 -0.0554  0.4860
   90MOL   C23134229   7.483   1.689   6.278 -0.1981 -0.0095 -0.7059
   90MOL   O23234230   7.405   1.803   6.294  0.0737  0.0049  0.2491
   90MOL   C23334231   7.276   1.796   6.242 -0.2751  0.8606 -0.5235
   90MOL   C23434232   7.201   1.929   6.262  0.0102  0.1246  0.0270
   90MOL   C23534233   7.072   1.935   6.187 -0.0114 -0.5415 -0.0347
   90MOL   C23634234   7.177   1.949   6.410  0.4390  0.1742  0.2198
   90MOL   H23734235   7.668   1.601   6.372  1.0837  1.5914 -3.2028
   90MOL   H23834236   7.642   1.768   6.393  0.3395 -0.0072 -0.4422
   90MOL   H23934237   7.415   1.604   6.276  2.2795 -2.1636  2.1879
   90MOL   H24034238   7.286   1.779   6.135 -0.8080 -2.0575 -0.1602
   90MOL   H24134239   7.210   1.718   6.279  0.2732  0.9681  0.7195
   90MOL   H24234240   7.268   2.011   6.232  0.6161  0.4136  2.1205
   90MOL   H24334241   7.078   1.907   6.082 -0.5730 -0.0233 -0.2064
   90MOL   H24434242   7.031   2.035   6.189  2.1871  0.3872  0.5834
   90MOL   H24534243   6.995   1.867   6.224  0.8746 -1.4264  0.2291
   90MOL   H24634244   7.130   2.046   6.421  2.6087  1.0273  2.2103
   90MOL   H24734245   7.103   1.878   6.447 -2.0445  2.8545  0.4779
   90MOL   H24834246   7.266   1.939   6.472  1.7737  0.0133 -1.6505
   90MOL   C24934247   7.550   1.697   6.139  0.3228  0.6732 -0.4013
   90MOL   C25034248   7.654   1.592   6.114 -0.1086 -0.4187  0.5511
   90MOL   O25134249   7.604   1.466   6.133 -0.2800 -0.0191  0.0744
   90MOL   C25234250   7.700   1.379   6.197 -0.7470 -0.2128  0.1116
   90MOL   C25334251   7.632   1.239   6.198 -0.4582  0.6150  0.2443
   90MOL   C25434252   7.479   1.246   6.239 -0.2235 -0.2798 -0.3816
   90MOL   C25534253   7.712   1.132   6.277  0.2304 -0.7748 -0.3252
   90MOL   H25634254   7.594   1.797   6.137  0.6449  0.5404  0.3035
   90MOL   H25734255   7.472   1.687   6.063 -0.0964 -0.1658  0.1332
   90MOL   H25834256   7.728   1.607   6.192  0.1135  0.7870  0.1197
   90MOL   H25934257   7.795   1.374   6.144 -1.1927 -1.0381 -0.6246
   90MOL   H26034258   7.727   1.406   6.299 -1.6541 -0.1625  0.3402
   90MOL   H26134259   7.634   1.209   6.093 -3.2161 -1.7478  0.7876
   90MOL   H26234260   7.462   1.288   6.338 -2.5069  0.9132 -1.2518
   90MOL   H26334261   7.430   1.149   6.225  3.0704 -2.3201  1.5938
   90MOL   H26434262   7.434   1.312   6.165  0.6447  0.8754  0.1093
   90MOL   H26534263   7.698   1.156   6.382 -0.3846 -3.8095  0.3504
   90MOL   H26634264   7.675   1.034   6.247 -0.0165 -0.8846  0.3357
   90MOL   H26734265   7.820   1.126   6.266  0.4063  1.1328  0.2359
   90MOL   C26834266   7.715   1.604   5.968  0.1253  0.4060  0.1916
   90MOL   C26934267   7.771   1.734   5.921 -0.0426 -0.2307 -1.1154
   90MOL   O27034268   7.748   1.747   5.779 -0.4102 -0.4617  0.3468
   90MOL   C27134269   7.730   1.881   5.728 -0.4837  0.0602 -0.3167
   90MOL   C27234270   7.578   1.903   5.693  0.1176 -0.1279  0.3760
   90MOL   C27334271   7.486   1.902   5.822  0.0734  0.0132  0.1049
   90MOL   C27434272   7.556   2.026   5.608  0.7371  0.2163  0.3705
   90MOL   H27534273   7.629   1.582   5.905  0.5689  0.2672 -0.3741
   90MOL   H27634274   7.784   1.522   5.944  0.9841  1.2453 -0.2548
   90MOL   H27734275   7.728   1.814   5.982  0.1588 -0.3544 -0.8094
   90MOL   H27834276   7.765   1.955   5.799 -1.8788 -1.0574  1.5760
   90MOL   H27934277   7.790   1.878   5.636 -0.6069 -1.1208 -0.3654
   90MOL   H28034278   7.551   1.815   5.634 -0.4272  1.0243 -1.1430
   90MOL   H28134279   7.535   1.971   5.891  1.0699 -1.3974  0.8326
   90MOL   H28234280   7.489   1.807   5.875 -0.3680  1.2755  2.4801
   90MOL   H28334281   7.383   1.931   5.802  0.3351  1.3146  0.6105
   90MOL   H28434282   7.593   2.002   5.509 -1.2582 -0.5909 -0.2119
   90MOL   H28534283   7.609   2.112   5.649  0.2240 -1.5515  5.1042
   90MOL   H28634284   7.449   2.045   5.599  0.2993 -2.3455 -0.2374
   90MOL   C28734285   0.098   1.736   5.940  0.2563  0.1720  0.5457
   90MOL   C28834286   0.145   1.734   6.090  0.6605  0.6586  0.6773
   90MOL   O28934287   0.094   1.832   6.174  0.9468  0.1693  0.0933
   90MOL   C29034288   0.098   1.969   6.125 -0.2749 -0.5862  0.0205
   90MOL   C29134289   0.052   2.058   6.244 -0.5231  0.0764 -0.3663
   90MOL   C29234290   0.163   2.046   6.353 -0.3530  0.3996 -0.2367
   90MOL   C29334291   7.733   2.029   6.297 -0.4772 -0.5524 -0.4894
   90MOL   H29434292   0.136   1.826   5.892  0.0753 -1.0700 -2.0057
   90MOL   H29534293   0.147   1.648   5.900  0.7200  1.7944 -2.5643
   90MOL   H29634294   0.112   1.642   6.136  0.3738  0.0687 -0.6692
   90MOL   H29734295   0.197   1.991   6.084 -0.2094  0.9105  0.9329
   90MOL   H29834296   0.036   1.971   6.036  0.7103  1.7763 -0.6558
   90MOL   H29934297   0.045   2.157   6.200 -0.3305  0.9499  1.5506
   90MOL   H30034298   0.262   2.055   6.309  0.8429 -1.8098  1.8911
   90MOL   H30134299   0.170   1.941   6.382 -2.2018  0.1911 -0.4784
   90MOL   H30234300   0.148   2.108   6.441  0.1292 -1.9270  1.5430
   90MOL   H30334301   7.706   2.120   6.351  0.5077 -0.7014  0.2661
   90MOL   H30434302   7.658   2.001   6.223 -1.1958 -1.7449  0.6807
   90MOL   H30534303   7.743   1.944   6.364 -0.1660  0.6092  0.9564
   90MOL   C30634304   0.300   1.735   6.090  0.4410  0.3476  0.1496
   90MOL   C30734305   0.356   1.700   6.232 -0.7505 -0.8113 -0.0184
   90MOL   O30834306   0.297   1.582   6.280 -0.2725 -0.1483 -0.2748
   90MOL   C30934307   0.225   1.599   6.402 -0.0585 -1.0236 -0.0031
   90MOL   C31034308   0.222   1.467   6.483  0.0171  0.1540 -0.7644
   90MOL   C31134309   0.149   1.504   6.611  0.4402  0.6364  0.1910
   90MOL   C31234310   0.364   1.416   6.502 -0.0402 -1.0081 -0.0127
   90MOL   H31334311   0.335   1.832   6.053 -0.0746  0.3423 -0.3601
   90MOL   H31434312   0.336   1.658   6.022  2.0506  0.3374  0.9859
   90MOL   H31534313   0.343   1.783   6.301  0.9354 -1.4642  1.1219
   90MOL   H31634314   0.129   1.643   6.375  1.7881  4.1153  1.0593
   90MOL   H31734315   0.268   1.674   6.468 -1.5527  1.0124 -1.2845
   90MOL   H31834316   0.169   1.393   6.423 -0.2092  1.6233 -2.4087
   90MOL   H31934317   0.042   1.520   6.599  0.2273  1.2903  2.7298
   90MOL   H32034318   0.195   1.589   6.661  1.3734  2.0834 -3.0364
   90MOL   H32134319   0.144   1.424   6.685  0.3232  0.1541 -0.3368
   90MOL   H32234320   0.426   1.499   6.536 -2.3779  0.7005  0.1689
   90MOL   H32334321   0.420   1.401   6.409 -0.9415  1.1188 -0.9215
   90MOL   H32434322   0.381   1.328   6.564  1.8785 -0.0075  0.9406
   90MOL   C32534323   0.509   1.675   6.229 -0.1029 -0.2447 -0.4063
   90MOL   C32634324   0.604   1.788   6.179  0.0875 -0.2355 -0.1815
   90MOL   O32734325   0.566   1.839   6.054  0.4923 -0.2627  0.0534
   90MOL   C32834326   0.638   1.782   5.947 -0.2164  0.5775  0.0902
   90MOL   C32934327   0.597   1.851   5.821 -0.0443  0.4184 -0.4611
   90MOL   C33034328   0.710   1.865   5.731 -0.2536 -0.2295  0.5361
   90MOL   C33134329   0.469   1.791   5.756  0.3079 -0.8962  0.2111
   90MOL   H33234330   0.532   1.583   6.175  1.1453 -0.1279 -0.0911
   90MOL   H33334331   0.534   1.648   6.332  0.3761 -1.9705 -0.9545
   90MOL   H33434332   0.708   1.754   6.176  0.0683 -0.2469 -0.7556
   90MOL   H33534333   0.745   1.789   5.971 -0.2722  1.0829  0.1969
   90MOL   H33634334   0.612   1.676   5.943 -0.2073  0.5660  0.3497
   90MOL   H33734335   0.574   1.953   5.851  0.0519  0.0932  0.7344
   90MOL   H33834336   0.758   1.769   5.709 -0.6762 -0.6892  1.5961
   90MOL   H33934337   0.675   1.907   5.636  1.5043  0.6274  0.2413
   90MOL   H34034338   0.800   1.915   5.766 -0.4753  0.4584  0.1318
   90MOL   H34134339   0.388   1.772   5.827  1.3781 -3.6641  0.7740
   90MOL   H34234340   0.448   1.858   5.674 -0.6327 -1.3043  0.1131
   90MOL   H34334341   0.498   1.701   5.702 -1.3485 -0.6766 -1.0696
   90MOL   C34434342   0.625   1.911   6.273 -0.0826 -0.1199  0.2683
   90MOL   C34534343   0.663   1.884   6.418 -0.5264  0.4519  0.1365
   90MOL   O34634344   0.549   1.833   6.480 -0.1273 -0.2942 -0.2132
   90MOL   C34734345   0.566   1.814   6.621 -0.5555 -0.4041 -0.1189
   90MOL   C34834346   0.436   1.825   6.701 -0.1577  0.1414  0.2767
   90MOL   C34934347   0.390   1.965   6.706  0.1904  0.1749 -0.6479
   90MOL   C35034348   0.451   1.755   6.835  0.2423 -0.3355 -0.6208
   90MOL   H35134349   0.533   1.970   6.268  0.4199  0.6787  0.3010
   90MOL   H35234350   0.691   1.982   6.223  1.5978 -1.5243  0.4781
   90MOL   H35334351   0.690   1.981   6.460  2.1525 -0.2736  0.1951
   90MOL   H35434352   0.645   1.870   6.671 -0.1783 -0.7656 -0.3044
   90MOL   H35534353   0.601   1.710   6.619 -2.6134 -1.1436  0.2612
   90MOL   H35634354   0.352   1.776   6.652 -1.5430  0.8158  1.9080
   90MOL   H35734355   0.454   2.009   6.783 -2.4751 -2.9040  3.5558
   90MOL   H35834356   0.290   1.994   6.739  0.1940 -0.2644 -0.2565
   90MOL   H35934357   0.399   2.015   6.610 -2.8956  0.9532 -0.5779
   90MOL   H36034358   0.356   1.747   6.889  0.5524 -1.5297 -0.2373
   90MOL   H36134359   0.492   1.655   6.820  0.3252 -0.2476 -0.9943
   90MOL   H36234360   0.522   1.806   6.899 -2.5829  1.4644  1.1706
   90MOL   C36334361   0.790   1.799   6.435 -0.7083 -0.4855  0.1142
   90MOL   C36434362   0.910   1.877   6.377 -0.2492 -0.1971  0.2474
   90MOL   O36534363   1.024   1.795   6.409  0.3426  0.0940  0.0562
   90MOL   C36634364   1.135   1.852   6.343 -0.4558 -0.6703  0.6715
   90MOL   C36734365   1.260   1.770   6.378 -0.6966 -0.0483  0.4553
   90MOL   C36834366   1.232   1.624   6.336 -0.1849 -0.3042 -0.0587
   90MOL   C36934367   1.319   1.789   6.523 -1.0173  0.5433 -0.1364
   90MOL   H37034368   0.802   1.785   6.542 -1.5382 -0.1506  0.2580
   90MOL   H37134369   0.778   1.697   6.400 -2.6616  0.1781 -1.2865
   90MOL   H37234370   0.929   1.980   6.407 -1.3304  0.2510 -0.5552
   90MOL   H37334371   1.116   1.848   6.236  1.3991  0.3960  0.2747
   90MOL   H37434372   1.150   1.957   6.369  1.4438 -0.5566 -0.7438
   90MOL   H37534373   1.335   1.806   6.308 -1.2481 -1.2675 -0.7979
   90MOL   H37634374   1.318   1.564   6.368 -0.0888  0.6753  1.5924
   90MOL   H37734375   1.221   1.617   6.228 -4.9612  3.3116  0.0484
   90MOL   H37834376   1.142   1.569   6.364 -0.5325 -0.3200 -1.1774
   90MOL   H37934377   1.336   1.896   6.533  1.5736  0.0785  0.8711
   90MOL   H38034378   1.417   1.744   6.511 -0.7701  0.6369  1.4642
   90MOL   H38134379   1.252   1.748   6.599 -1.7960 -0.7119 -1.4808
   90MOL   H38234380   0.902   1.877   6.269 -1.7061  1.0115  0.3352
   91MOL     C134381   6.809   3.738   6.066  0.1730 -0.0382  0.4549
   91MOL     C234382   6.837   3.650   5.943 -0.4894  0.3179  0.3991
   91MOL     O334383   6.723   3.624   5.861  0.0405 -0.1667  0.0413
   91MOL     C434384   6.707   3.500   5.801 -0.2773 -0.0563  0.4584
   91MOL     C534385   6.595   3.485   5.690  0.2097 -0.0740 -0.0844
   91MOL     C634386   6.586   3.604   5.591  0.1288 -0.4656  0.0745
   91MOL     C734387   6.465   3.455   5.768 -0.4766  0.2114  0.3634
   91MOL     H834388   6.761   3.829   6.030 -0.0425 -0.3621 -0.0897
   91MOL     H934389   6.737   3.683   6.126 -0.2154  0.4379  0.4189
   91MOL    H1034390   6.873   3.552   5.975  2.0600  0.6909 -1.1903
   91MOL    H1134391   6.689   3.424   5.877  0.1507 -0.0103  0.6112
   91MOL    H1234392   6.803   3.472   5.757 -1.4438  0.1339 -2.2501
   91MOL    H1334393   6.613   3.400   5.624 -0.6502 -0.3891  0.0725
   91MOL    H1434394   6.681   3.605   5.537  0.8377  0.2138  1.2948
   91MOL    H1534395   6.503   3.606   5.521  2.7307 -0.3342 -3.1415
   91MOL    H1634396   6.580   3.696   5.648  1.8528  1.0578 -2.1226
   91MOL    H1734397   6.383   3.445   5.697 -0.4459  1.9052  0.0511
   91MOL    H1834398   6.482   3.361   5.819 -0.1013  1.3487  2.3586
   91MOL    H1934399   6.439   3.527   5.845  0.8278 -1.0550  2.0116
   91MOL    H2034400   6.895   3.758   6.130  0.7948  1.1101 -0.7050
   91MOL    C2134401   6.951   3.698   5.851 -0.6542  0.3485  0.0766
   91MOL    C2234402   6.944   3.847   5.795  0.4018 -0.2905 -0.3341
   91MOL    O2334403   7.065   3.847   5.716  0.6258 -0.2949  0.4425
   91MOL    C2434404   7.182   3.896   5.779 -0.1937 -0.0628  0.2215
   91MOL    C2534405   7.317   3.877   5.711 -0.3962 -0.2191  0.0845
   91MOL    C2634406   7.333   3.947   5.576 -0.1304  0.4930 -0.5251
   91MOL    C2734407   7.433   3.930   5.797 -0.3918  0.1344  0.0389
   91MOL    H2834408   7.046   3.676   5.899 -0.4251 -0.6893 -0.8367
   91MOL    H2934409   6.952   3.639   5.760 -0.1974  0.9286 -0.2991
   91MOL    H3034410   6.939   3.930   5.866 -0.4905 -1.5015  1.0599
   91MOL    H3134411   7.189   3.848   5.877 -1.1263 -0.7342 -0.0417
   91MOL    H3234412   7.166   4.004   5.790 -1.2727 -0.3606  1.7335
   91MOL    H3334413   7.332   3.769   5.706  2.3852  0.2117 -2.4546
   91MOL    H3434414   7.331   4.056   5.582 -0.3330  0.4753 -0.2705
   91MOL    H3534415   7.259   3.918   5.502  0.4980 -0.9949 -0.5805
   91MOL    H3634416   7.436   3.927   5.546 -0.0806  0.8735 -0.6233
   91MOL    H3734417   7.524   3.871   5.800 -0.1315  0.5698  0.7648
   91MOL    H3834418   7.447   4.036   5.776 -0.4195  0.6233  2.3289
   91MOL    H3934419   7.408   3.944   5.903  0.8609  1.0947  0.2178
   91MOL    C4034420   6.826   3.862   5.699  0.0554  0.0067 -0.6279
   91MOL    C4134421   6.829   3.987   5.617 -0.0746 -0.2241 -0.0589
   91MOL    O4234422   6.694   4.039   5.598 -0.2486 -0.1945  0.2190
   91MOL    C4334423   6.662   4.157   5.673  0.3796 -0.2289  0.3336
   91MOL    C4434424   6.525   4.209   5.633 -0.3565  0.4980  0.6617
   91MOL    C4534425   6.520   4.248   5.482  0.5084 -0.0028 -0.1934
   91MOL    C4634426   6.412   4.116   5.679  0.0747 -0.8519 -0.4729
   91MOL    H4734427   6.738   3.874   5.763  0.1642 -1.0546 -0.2641
   91MOL    H4834428   6.800   3.775   5.639 -0.8233 -1.0555  1.2464
   91MOL    H4934429   6.881   4.060   5.678  1.5410 -2.3558  1.1851
   91MOL    H5034430   6.739   4.227   5.639 -0.8358  0.9540 -0.0511
   91MOL    H5134431   6.670   4.166   5.781  0.9597  1.3000  0.1782
   91MOL    H5234432   6.500   4.298   5.690 -2.0478 -0.6397  1.7318
   91MOL    H5334433   6.430   4.296   5.445 -0.9851 -1.9274  0.8678
   91MOL    H5434434   6.607   4.313   5.470  0.8960 -0.4486  0.1743
   91MOL    H5534435   6.515   4.158   5.422 -1.6112  0.7217 -1.1397
   91MOL    H5634436   6.307   4.144   5.685  0.1991 -0.8021  1.6902
   91MOL    H5734437   6.444   4.079   5.776 -1.0056  3.7301  1.7472
   91MOL    H5834438   6.418   4.019   5.629  1.1810 -1.2148  0.3684
   91MOL    C5934439   6.894   3.970   5.475  0.5229 -0.2480  0.9200
   91MOL    C6034440   6.924   4.101   5.409 -0.5427  0.3256  0.4189
   91MOL    O6134441   6.961   4.061   5.277  0.5469  0.2079  0.3618
   91MOL    C6234442   6.885   4.114   5.174  0.0974 -0.8029  0.4510
   91MOL    C6334443   6.952   4.060   5.046 -0.4037 -0.2632  0.4247
   91MOL    C6434444   6.874   4.109   4.917 -0.3862 -0.1443 -0.8909
   91MOL    C6534445   7.101   4.093   5.032  0.2183  0.0680  0.7693
   91MOL    H6634446   6.823   3.914   5.415  0.8211 -0.1539  0.4731
   91MOL    H6734447   6.979   3.902   5.482  0.8201 -0.1069 -1.0005
   91MOL    H6834448   6.843   4.173   5.396 -0.0025  1.0218  0.8744
   91MOL    H6934449   6.785   4.070   5.173 -0.0900 -0.3707 -0.4880
   91MOL    H7034450   6.893   4.222   5.173  0.4834 -0.8286  0.6244
   91MOL    H7134451   6.943   3.952   5.043 -1.0789 -0.1514 -2.9274
   91MOL    H7234452   6.869   4.217   4.908  2.0129  0.1839  1.1689
   91MOL    H7334453   6.770   4.076   4.920 -0.4731  0.1967  2.6861
   91MOL    H7434454   6.921   4.072   4.826 -0.8496  0.3829 -1.3464
   91MOL    H7534455   7.137   4.055   4.936  1.1112  2.1695  0.2486
   91MOL    H7634456   7.110   4.201   5.020 -0.5008  0.2041  1.4753
   91MOL    H7734457   7.164   4.051   5.110  1.1025 -1.4001 -0.6744
   91MOL    C7834458   7.035   4.183   5.478 -0.8356 -0.0967 -0.2126
   91MOL    C7934459   7.077   4.310   5.403  0.2870  0.6888  0.6939
   91MOL    O8034460   6.977   4.401   5.432  0.4503  0.2823  0.1525
   91MOL    C8134461   6.951   4.494   5.325  0.2673 -0.6648 -0.2831
   91MOL    C8234462   6.862   4.614   5.381 -0.3553 -0.5479  0.6178
   91MOL    C8334463   6.735   4.568   5.458  0.5385 -0.4052 -0.3570
   91MOL    C8434464   6.830   4.730   5.280 -0.5103 -0.4866 -0.4334
   91MOL    H8534465   7.120   4.115   5.488 -0.9563 -0.2277 -0.0902
   91MOL    H8634466   7.016   4.200   5.584 -1.5588 -0.1275 -0.3363
   91MOL    H8734467   7.076   4.285   5.297 -2.3816  0.7380  0.6740
   91MOL    H8834468   7.042   4.537   5.283  0.9797 -2.8494 -1.0729
   91MOL    H8934469   6.897   4.446   5.243 -0.8808 -0.6936  0.4827
   91MOL    H9034470   6.932   4.656   5.453  0.3770 -1.1617  0.2856
   91MOL    H9134471   6.655   4.519   5.404  0.0879  1.5033 -1.4507
   91MOL    H9234472   6.679   4.650   5.503 -0.0720 -0.1490 -1.5865
   91MOL    H9334473   6.764   4.508   5.545  2.2227  0.3745 -0.3662
   91MOL    H9434474   6.826   4.694   5.177  0.5795 -3.8950  0.6443
   91MOL    H9534475   6.904   4.809   5.290 -0.1832 -0.8658  0.1561
   91MOL    H9634476   6.731   4.767   5.306 -1.1493 -3.0031  0.8891
   91MOL    C9734477   7.210   4.373   5.445 -0.4224  0.1372 -0.0198
   91MOL    C9834478   7.341   4.349   5.371  0.6700  0.0357  0.3775
   91MOL    O9934479   7.433   4.432   5.451 -0.2278  0.5421 -0.0095
   91MOL   C10034480   7.515   4.348   5.522 -0.3753  0.5621  0.2973
   91MOL   C10134481   7.612   4.447   5.593 -0.3875  0.1712  0.7415
   91MOL   C10234482   7.713   4.359   5.665 -0.0546  0.7095  0.4502
   91MOL   C10334483   7.676   4.559   5.513  0.4057 -0.5427  0.1831
   91MOL   H10434484   7.227   4.342   5.548  0.3201  1.2101  0.1892
   91MOL   H10534485   7.189   4.480   5.444  1.4860  0.5425  0.5446
   91MOL   H10634486   7.363   4.242   5.376 -0.1379 -0.1597 -0.0687
   91MOL   H10734487   7.560   4.275   5.455 -0.4473  0.5850  0.2261
   91MOL   H10834488   7.455   4.282   5.585  1.4752  1.9519  3.6458
   91MOL   H10934489   7.556   4.499   5.670 -0.7307  0.6246  0.1873
   91MOL   H11034490   7.774   4.425   5.726 -1.3840  0.7038  1.8116
   91MOL   H11134491   7.670   4.286   5.734 -2.3367  2.3628  0.8554
   91MOL   H11234492   7.784   4.312   5.598  0.8570 -0.3311  2.1130
   91MOL   H11334493   7.751   4.612   5.571  1.3561  0.6878 -2.1090
   91MOL   H11434494   7.714   4.516   5.420  1.2325 -1.3653  0.8970
   91MOL   H11534495   7.603   4.631   5.475 -0.9846 -0.6953  2.4889
   91MOL   C11634496   7.328   4.388   5.226  0.4651 -1.3677  0.0687
   91MOL   C11734497   7.460   4.391   5.151 -0.4841  0.1505 -0.5345
   91MOL   O11834498   7.488   4.262   5.138 -0.1420 -0.1184 -0.0964
   91MOL   C11934499   7.630   4.223   5.135 -0.4965  0.7618  0.4246
   91MOL   C12034500   7.639   4.075   5.121 -0.1047  0.2392 -0.6109
   91MOL   C12134501   7.579   4.002   5.241  0.5765 -0.2331  0.0284
   91MOL   C12234502   7.584   4.028   4.989 -0.0880  0.2929  0.4382
   91MOL   H12334503   7.258   4.323   5.173  0.1438 -0.2754 -0.8491
   91MOL   H12434504   7.283   4.487   5.223 -0.6254 -1.7710  1.9312
   91MOL   H12534505   7.530   4.432   5.223 -1.9555  0.6267  0.6363
   91MOL   H12634506   7.668   4.254   5.232  1.9100  0.7403 -0.4764
   91MOL   H12734507   7.687   4.265   5.052 -3.5916  1.6876 -1.3252
   91MOL   H12834508   7.744   4.049   5.129  0.2854  2.1577  0.8382
   91MOL   H12934509   7.590   3.893   5.243  2.4889 -0.0724 -0.0025
   91MOL   H13034510   7.472   4.022   5.243  0.9594  1.8620  0.3474
   91MOL   H13134511   7.621   4.033   5.337 -1.9227  2.5067  0.2877
   91MOL   H13234512   7.582   3.919   4.986  1.1764  0.2749  0.0174
   91MOL   H13334513   7.480   4.057   4.974  0.2649  2.0320  1.3455
   91MOL   H13434514   7.637   4.065   4.901 -0.6938 -0.9449 -0.4708
   91MOL   C13534515   7.463   4.475   5.023  0.1682 -0.1521  0.0367
   91MOL   C13634516   7.473   4.626   5.035 -0.4460 -0.1357  0.1167
   91MOL   O13734517   7.606   4.655   5.092  0.4085  0.0206 -0.7269
   91MOL   C13834518   7.611   4.774   5.162  0.1743  0.0925 -0.3809
   91MOL   C13934519   7.745   4.799   5.225  0.2589 -0.6108 -0.5963
   91MOL   C14034520   0.032   4.825   5.123 -0.2640 -0.5636  0.1524
   91MOL   C14134521   7.745   4.913   5.328  0.7024 -0.5358 -0.5788
   91MOL   H14234522   7.545   4.441   4.961 -2.4884  0.7551 -4.1685
   91MOL   H14334523   7.371   4.437   4.979 -0.7058  0.1531  1.5521
   91MOL   H14434524   7.397   4.675   5.095 -0.0700  0.1617  0.3559
   91MOL   H14534525   7.537   4.773   5.242  0.7099 -0.9810  0.1127
   91MOL   H14634526   7.587   4.856   5.094 -0.4836  1.4107  1.4055
   91MOL   H14734527   7.766   4.710   5.284  1.1709  0.0195  0.0375
   91MOL   H14834528   0.063   4.730   5.080  0.1711 -0.7568  0.8862
   91MOL   H14934529   0.123   4.873   5.160  0.0779  0.7574 -2.2876
   91MOL   H15034530   0.002   4.893   5.043  3.0826  1.5913  0.5888
   91MOL   H15134531   0.024   4.942   5.349  0.6824  0.4008 -1.7549
   91MOL   H15234532   7.680   4.993   5.294  2.8945  1.3168 -0.5111
   91MOL   H15334533   7.707   4.883   5.426 -0.2787 -1.6729 -1.2916
   91MOL   C15434534   7.458   4.696   4.900 -0.5777  0.2364  0.3554
   91MOL   C15534535   7.315   4.706   4.845  0.2971 -0.0606 -0.3389
   91MOL   O15634536   7.251   4.824   4.895 -0.1812 -0.9764  1.0201
   91MOL   C15734537   7.138   4.799   4.983 -0.5470  0.0278 -0.8843
   91MOL   C15834538   7.114   4.924   5.066  0.2550 -0.0736  0.1097
   91MOL   C15934539   7.209   4.945   5.187  0.0279 -0.4315 -0.2587
   91MOL   C16034540   7.097   5.051   4.980 -0.0275  0.2366  0.1570
   91MOL   H16134541   7.520   4.643   4.827 -0.6767  1.8003 -0.8844
   91MOL   H16234542   7.501   4.797   4.898  1.0017 -0.4237 -1.3123
   91MOL   H16334543   7.254   4.624   4.883  0.2131 -1.5593 -3.4971
   91MOL   H16434544   7.170   4.723   5.054 -3.1764 -2.1138 -1.8804
   91MOL   H16534545   7.039   4.785   4.940 -1.0937  1.1564 -0.0213
   91MOL   H16634546   7.015   4.905   5.108 -0.3448  0.0158 -1.2398
   91MOL   H16734547   7.308   4.978   5.154  0.4694 -1.5739 -0.1035
   91MOL   H16834548   7.229   4.849   5.235  0.1457  0.8391  2.3141
   91MOL   H16934549   7.179   5.023   5.257  0.7908 -0.3016 -0.0761
   91MOL   H17034550   7.147   5.043   4.883  0.7110  1.8887  0.3937
   91MOL   H17134551   6.992   5.065   4.956 -0.6401 -1.0630  1.9820
   91MOL   H17234552   7.137   5.143   5.022  2.2968 -1.1244  1.0598
   91MOL   C17334553   7.303   4.725   4.689  0.1111  0.3479 -0.4493
   91MOL   C17434554   7.309   4.598   4.598 -0.2598  0.8068  0.9511
   91MOL   O17534555   7.186   4.579   4.528 -0.3798  0.7677  0.5726
   91MOL   C17634556   7.088   4.509   4.607  0.1150  0.2464 -0.3436
   91MOL   C17734557   6.965   4.501   4.519 -0.7143  0.1255 -0.2560
   91MOL   C17834558   6.982   4.428   4.393 -0.0863  0.8311  0.2135
   91MOL   C17934559   6.841   4.448   4.598 -0.4063  0.0079  0.4048
   91MOL   H18034560   7.201   4.760   4.671 -0.5945 -1.9273 -1.1114
   91MOL   H18134561   7.374   4.795   4.645 -0.3187  0.0544 -1.6382
   91MOL   H18234562   7.325   4.518   4.670 -0.2523  0.2015  0.2860
   91MOL   H18334563   7.078   4.565   4.700  0.7818  0.9322 -0.6785
   91MOL   H18434564   7.120   4.407   4.624  0.6476  0.7903  2.0671
   91MOL   H18534565   6.947   4.604   4.488  3.2646  0.5220 -1.4139
   91MOL   H18634566   7.001   4.321   4.396  0.5882  0.9041 -0.9702
   91MOL   H18734567   6.907   4.450   4.317  2.6893 -0.6374 -3.1257
   91MOL   H18834568   7.078   4.466   4.356 -0.3342  1.6686  0.4056
   91MOL   H18934569   6.822   4.489   4.697 -0.8036 -0.6534  0.6055
   91MOL   H19034570   6.862   4.342   4.608  0.0773  0.1139  0.5359
   91MOL   H19134571   6.752   4.473   4.539 -0.8730 -1.0474  0.6569
   91MOL   C19234572   7.436   4.602   4.505 -0.1003 -0.1032  0.1376
   91MOL   C19334573   7.453   4.472   4.421 -0.1564 -0.4235 -0.2464
   91MOL   O19434574   7.488   4.365   4.505 -0.1720 -0.2434  0.5440
   91MOL   C19534575   7.440   4.235   4.478 -0.0078 -0.3848 -0.0327
   91MOL   C19634576   7.451   4.162   4.608 -0.6384 -0.6869 -0.5339
   91MOL   C19734577   7.431   4.009   4.596  0.0988  0.2569 -0.0956
   91MOL   C19834578   7.362   4.217   4.718  0.6334  0.6330 -1.0002
   91MOL   H19934579   7.526   4.601   4.566 -0.2844  0.9161  0.4321
   91MOL   H20034580   7.428   4.692   4.444 -1.0060  0.1105  0.5686
   91MOL   H20134581   7.358   4.462   4.369 -0.0715 -0.9035 -0.3099
   91MOL   H20234582   7.489   4.183   4.397  1.0060  0.7023 -0.1217
   91MOL   H20334583   7.334   4.231   4.451  0.6461 -0.6213 -2.6039
   91MOL   H20434584   7.550   4.169   4.654 -1.5075  1.4428  1.0619
   91MOL   H20534585   7.335   3.988   4.550  1.8246  0.1897 -3.8080
   91MOL   H20634586   7.508   3.975   4.527  1.2775  1.0573  0.7925
   91MOL   H20734587   7.430   3.962   4.695 -1.3171 -2.2239 -1.2481
   91MOL   H20834588   7.259   4.193   4.693  0.5443  0.0967 -0.1306
   91MOL   H20934589   7.388   4.166   4.811 -0.2475 -2.2202 -2.2584
   91MOL   H21034590   7.385   4.322   4.737 -1.8428  1.1134 -0.5243
   91MOL   C21134591   7.575   4.482   4.323 -0.1047 -0.1405 -0.1307
   91MOL   C21234592   7.565   4.593   4.215  0.1707  0.7676 -0.2906
   91MOL   O21334593   7.697   4.655   4.186  0.2719  0.4623 -0.1485
   91MOL   C21434594   7.703   4.778   4.255 -0.6640 -0.4843  0.2141
   91MOL   C21534595   0.016   4.840   4.239  0.2684 -1.3535 -0.3551
   91MOL   C21634596   0.053   4.870   4.093 -0.2423 -0.3638 -1.1832
   91MOL   C21734597   0.035   4.970   4.323  0.4866  0.2360 -0.3873
   91MOL   H21834598   7.605   4.385   4.284  2.1061 -0.1947  1.5967
   91MOL   H21934599   7.659   4.521   4.381  1.1133  0.9599 -2.5192
   91MOL   H22034600   7.493   4.669   4.247 -0.3585 -0.2685  1.0501
   91MOL   H22134601   7.672   4.777   4.360 -1.4267  3.0265  0.0803
   91MOL   H22234602   7.627   4.839   4.206  0.2474  0.8210  0.3969
   91MOL   H22334603   0.089   4.768   4.277 -0.3703 -0.7997  2.0331
   91MOL   H22434604   0.061   4.787   4.022  3.7789  0.1060 -1.4111
   91MOL   H22534605   7.796   4.932   4.058 -0.3323 -1.0165 -2.1719
   91MOL   H22634606   0.146   4.927   4.089 -0.5070  0.0595 -1.2923
   91MOL   H22734607   0.062   4.956   4.427  1.3676 -1.3289 -0.8150
   91MOL   H22834608   7.766   5.027   4.328  0.1052 -0.2209 -1.9076
   91MOL   H22934609   0.110   5.035   4.279  1.9633  0.2697  2.1061
   91MOL   C23034610   7.516   4.542   4.075 -0.4352 -0.3179  0.0868
   91MOL   C23134611   7.363   4.523   4.080  0.2934 -0.1239 -0.1055
   91MOL   O23234612   7.314   4.654   4.066 -0.9169  0.3388  0.5222
   91MOL   C23334613   7.206   4.678   4.158  0.9002  0.0781 -0.3534
   91MOL   C23434614   7.173   4.827   4.148 -0.6682 -0.9350 -0.0708
   91MOL   C23534615   7.037   4.864   4.217  0.5667 -0.5914  0.2174
   91MOL   C23634616   7.283   4.920   4.206 -0.5671  0.2920  0.4528
   91MOL   H23734617   7.565   4.448   4.050 -0.0584  0.0981 -0.7581
   91MOL   H23834618   7.540   4.610   3.993  0.3598  1.6757  1.9470
   91MOL   H23934619   7.352   4.463   4.170  0.8363 -0.7388 -0.4428
   91MOL   H24034620   7.120   4.615   4.137  0.2937  1.0180 -0.7195
   91MOL   H24134621   7.241   4.651   4.258  2.7528 -0.2885 -1.0759
   91MOL   H24234622   7.166   4.856   4.043  0.6332  2.6557  0.7831
   91MOL   H24334623   7.041   4.818   4.315 -1.9186 -1.0202  0.1544
   91MOL   H24434624   6.952   4.840   4.152  0.1192  1.4096  0.0207
   91MOL   H24534625   7.040   4.973   4.230  1.5812 -0.5637 -0.2178
   91MOL   H24634626   7.387   4.891   4.198 -0.7178 -0.0561 -0.2838
   91MOL   H24734627   7.278   5.027   4.187  0.2684  0.1201 -0.7758
   91MOL   H24834628   7.267   4.923   4.314 -1.6855  2.2290  0.2530
   91MOL   C24934629   7.308   4.434   3.969  0.2595  0.5649  0.6949
   91MOL   C25034630   7.302   4.281   3.996  0.0514  0.0463 -0.7906
   91MOL   O25134631   7.253   4.210   3.885  0.0214 -0.2387  0.0209
   91MOL   C25234632   7.115   4.238   3.868  0.0157 -0.2210  0.0315
   91MOL   C25334633   7.079   4.153   3.744  0.3769  0.3477 -0.5213
   91MOL   C25434634   7.108   4.001   3.749  0.1061 -0.6823 -0.3942
   91MOL   C25534635   7.146   4.207   3.612 -0.0309 -0.0829 -0.6450
   91MOL   H25634636   7.354   4.454   3.873  1.0594  0.1777  0.9954
   91MOL   H25734637   7.204   4.467   3.973  0.3229  0.6261  2.4284
   91MOL   H25834638   7.234   4.266   4.080 -2.5153  2.8148 -2.2336
   91MOL   H25934639   7.058   4.211   3.957  1.1783  1.7809  1.4234
   91MOL   H26034640   7.082   4.339   3.846 -1.3439 -0.7925 -0.6393
   91MOL   H26134641   6.970   4.159   3.740  0.2477 -1.4286  0.0241
   91MOL   H26234642   7.094   3.952   3.652  0.3261 -0.2982 -0.6165
   91MOL   H26334643   7.031   3.962   3.817 -1.4522  1.3331 -0.9737
   91MOL   H26434644   7.211   3.980   3.778  0.4912 -0.7812 -1.7825
   91MOL   H26534645   7.126   4.152   3.521 -0.5693 -0.7810 -0.1100
   91MOL   H26634646   7.121   4.312   3.593 -0.3247 -0.2692 -1.3034
   91MOL   H26734647   7.253   4.217   3.626 -0.3018 -0.1203  1.6899
   91MOL   C26834648   7.427   4.204   4.028 -0.0639 -0.5601  0.5903
   91MOL   C26934649   7.418   4.055   4.061 -0.1622  0.8006  0.3358
   91MOL   O27034650   7.328   4.037   4.166 -0.0828  0.1591 -0.0584
   91MOL   C27134651   7.213   3.963   4.126 -0.0041  0.4109  0.2083
   91MOL   C27234652   7.101   3.945   4.235  1.2345  0.3679 -0.0046
   91MOL   C27334653   7.148   3.840   4.337  0.2056  0.4379  0.4918
   91MOL   C27434654   7.062   4.087   4.284  0.1877 -1.0153  0.2677
   91MOL   H27534655   7.492   4.249   4.103  0.6807 -2.2803  1.0087
   91MOL   H27634656   7.494   4.212   3.942 -0.3454 -2.0095  0.2368
   91MOL   H27734657   7.408   4.000   3.967  0.2369  2.1152 -0.5043
   91MOL   H27834658   7.171   4.026   4.048 -0.0038  1.0785  0.7440
   91MOL   H27934659   7.245   3.868   4.082  0.2289  0.7862 -0.4438
   91MOL   H28034660   7.018   3.904   4.178  1.2498 -1.2767  1.1318
   91MOL   H28134661   7.238   3.868   4.391  1.0955 -0.9141 -0.2439
   91MOL   H28234662   7.169   3.744   4.288 -0.6148  0.3654  0.2857
   91MOL   H28334663   7.062   3.830   4.402 -0.7269  4.3710 -0.0572
   91MOL   H28434664   7.143   4.136   4.338  0.4069  0.3449 -1.2405
   91MOL   H28534665   6.987   4.083   4.362 -0.4031  0.5992 -0.1889
   91MOL   H28634666   7.043   4.158   4.203 -1.7873 -1.3914  0.3971
   91MOL   C28734667   7.556   4.008   4.120  0.1504  0.0765  0.3498
   91MOL   C28834668   7.577   3.854   4.114 -0.5395 -0.7825  0.1751
   91MOL   O28934669   7.690   3.827   4.193  0.5982 -0.6757  0.3955
   91MOL   C29034670   7.651   3.766   4.316  0.4083 -0.8027 -0.6116
   91MOL   C29134671   7.767   3.767   4.420  0.1439  0.6017 -0.4463
   91MOL   C29234672   0.071   3.698   4.372  0.4439  0.2942  0.1136
   91MOL   C29334673   7.728   3.711   4.557 -0.0295 -0.0511  0.0516
   91MOL   H29434674   7.562   4.032   4.226 -1.4512  0.8678  0.2688
   91MOL   H29534675   7.639   4.061   4.073 -0.6177  1.9608  1.0472
   91MOL   H29634676   7.491   3.803   4.158 -1.6755  1.1659  0.2437
   91MOL   H29734677   7.562   3.811   4.361  2.4624  2.9389 -0.0582
   91MOL   H29834678   7.630   3.663   4.289 -0.2453 -0.1488 -2.7285
   91MOL   H29934679   7.803   3.870   4.427  1.8191  0.2103 -2.6605
   91MOL   H30034680   0.052   3.593   4.349 -1.2074  0.4723  0.5733
   91MOL   H30134681   0.148   3.695   4.449 -0.1488 -1.4880  0.6632
   91MOL   H30234682   0.112   3.750   4.285  2.6704 -2.3185 -0.4546
   91MOL   H30334683   7.627   3.749   4.577  0.7391  2.0394  0.0361
   91MOL   H30434684   7.722   3.602   4.546 -1.7091 -0.0459  0.7710
   91MOL   H30534685   7.800   3.748   4.629  0.1320  1.2286 -0.7498
   91MOL   C30634686   7.610   3.783   3.984 -0.3847  0.4796 -0.2639
   91MOL   C30734687   7.592   3.631   3.975  0.3287 -0.2074 -0.4239
   91MOL   O30834688   7.456   3.605   3.957 -0.3669  0.0094  0.0306
   91MOL   C30934689   7.420   3.469   3.997  0.1134 -0.0830  0.0373
   91MOL   C31034690   7.284   3.477   4.076 -0.4187 -0.1662  0.2800
   91MOL   C31134691   7.165   3.536   4.004 -0.3459 -0.4149 -0.5493
   91MOL   C31234692   7.313   3.540   4.216 -0.3259 -0.4391 -0.5184
   91MOL   H31334693   7.713   3.815   3.973 -0.9348  2.4574  0.1983
   91MOL   H31434694   7.540   3.826   3.912  1.3599  3.8801 -0.0157
   91MOL   H31534695   7.631   3.592   4.069  0.4820  1.1667  0.0918
   91MOL   H31634696   7.494   3.419   4.058 -0.2358  0.5646  1.0015
   91MOL   H31734697   7.410   3.408   3.907  2.8398 -0.0291 -0.3544
   91MOL   H31834698   7.250   3.376   4.098 -2.5264 -0.0234 -2.1689
   91MOL   H31934699   7.167   3.645   4.002 -1.8907 -0.3903 -2.1678
   91MOL   H32034700   7.078   3.500   4.060  0.2553 -1.4249 -0.2634
   91MOL   H32134701   7.161   3.503   3.900 -2.2670 -3.1797  0.3628
   91MOL   H32234702   7.396   3.495   4.270  1.2872  0.7403 -1.9594
   91MOL   H32334703   7.220   3.527   4.273  0.2196 -0.1136  0.4662
   91MOL   H32434704   7.332   3.646   4.201  1.9825 -0.6606  0.6511
   91MOL   C32534705   7.680   3.558   3.872  0.1027  0.2208 -0.6344
   91MOL   C32634706   7.821   3.522   3.924 -0.6068  0.0243 -0.1759
   91MOL   O32734707   7.800   3.424   4.021  0.2979 -0.1315 -0.5846
   91MOL   C32834708   0.080   3.387   4.108  0.3883 -0.5309  0.1920
   91MOL   C32934709   0.037   3.279   4.203  0.5325 -0.3815  0.3791
   91MOL   C33034710   7.724   3.316   4.262 -0.2031 -0.2605 -0.6856
   91MOL   C33134711   0.055   3.141   4.142  0.1109  0.0746  0.0234
   91MOL   H33234712   7.683   3.620   3.783 -0.5461  0.4615 -0.4955
   91MOL   H33334713   7.630   3.464   3.846  0.3427 -0.1972  0.3966
   91MOL   H33434714   0.037   3.605   3.982 -0.8800 -0.9749  1.4755
   91MOL   H33534715   0.170   3.361   4.053 -0.2432 -2.5031  0.0143
   91MOL   H33634716   0.099   3.485   4.152 -1.0271  1.3017 -3.1040
   91MOL   H33734717   0.111   3.279   4.283  0.7575  0.3221  0.1808
   91MOL   H33834718   7.712   3.417   4.300 -1.4376 -0.6000 -0.1604
   91MOL   H33934719   7.642   3.306   4.192 -1.1578  0.1469  0.3711
   91MOL   H34034720   7.697   3.245   4.340  1.9615 -0.5199 -0.1256
   91MOL   H34134721   0.158   3.104   4.139  0.6590  1.5447  0.1507
   91MOL   H34234722   7.809   3.065   4.174 -4.1032  3.8621  0.3343
   91MOL   H34334723   0.043   3.157   4.034  2.0823 -0.9423 -0.3663
   91MOL   C34434724   0.095   3.479   3.813  0.1679 -0.0194  0.1099
   91MOL   C34534725   0.144   3.585   3.713 -0.4092  1.1593 -0.7707
   91MOL   O34634726   0.226   3.673   3.794 -0.9258 -0.5341 -0.9829
   91MOL   C34734727   0.261   3.796   3.735 -0.4540  0.0582 -0.0923
   91MOL   C34834728   0.284   3.899   3.841 -0.6377  0.3758 -0.2266
   91MOL   C34934729   0.161   3.935   3.921  0.3727  0.2815  0.2909
   91MOL   C35034730   0.346   4.031   3.790  0.0703 -0.7992  0.0377
   91MOL   H35134731   0.041   3.399   3.761  1.5295 -0.2318 -0.9957
   91MOL   H35234732   0.185   3.433   3.853 -0.7428 -2.4777 -0.5679
   91MOL   H35334733   0.062   3.646   3.677 -0.8383  1.8117  1.2053
   91MOL   H35434734   0.181   3.822   3.666 -1.0414 -1.1377  0.1143
   91MOL   H35534735   0.343   3.789   3.664 -1.3099 -0.2732 -1.0586
   91MOL   H35634736   0.362   3.868   3.911  0.8101  0.8267 -1.5929
   91MOL   H35734737   0.115   3.849   3.970 -2.0609  2.0375  1.1400
   91MOL   H35834738   0.089   3.986   3.856  0.9101  1.3172  0.5067
   91MOL   H35934739   0.192   4.011   3.992  1.2087 -0.7531  1.0444
   91MOL   H36034740   0.278   4.104   3.748  2.0584  0.4727 -1.0557
   91MOL   H36134741   0.412   4.080   3.862 -2.2147  0.8516  1.0440
   91MOL   H36234742   0.418   4.014   3.710 -0.7130  1.2642 -1.1351
   91MOL   C36334743   0.214   3.522   3.605 -0.7505 -0.1339  0.5633
   91MOL   C36434744   0.128   3.446   3.502  0.3476 -0.0576 -1.3822
   91MOL   O36534745   0.198   3.333   3.446 -0.0996  0.1009  0.1347
   91MOL   C36634746   0.111   3.253   3.367 -0.3859  0.2117 -0.0794
   91MOL   C36734747   0.188   3.153   3.272 -0.2293 -0.5209 -0.9966
   91MOL   C36834748   0.278   3.234   3.176  0.4340  0.2073  0.1526
   91MOL   C36934749   0.092   3.079   3.192  0.0121 -0.2122 -0.0039
   91MOL   H37034750   0.259   3.609   3.557 -1.1170  0.4401  1.2355
   91MOL   H37134751   0.298   3.465   3.645 -1.0152 -0.5144  0.5805
   91MOL   H37234752   0.100   3.525   3.432 -2.8628 -0.5826 -0.7881
   91MOL   H37334753   0.060   3.199   3.446 -1.5704  1.7914  0.2641
   91MOL   H37434754   0.031   3.302   3.313 -0.7116  1.4899  1.5084
   91MOL   H37534755   0.257   3.093   3.332  0.5470  3.1378  2.0220
   91MOL   H37634756   0.348   3.303   3.221 -0.5575  1.4736 -0.2327
   91MOL   H37734757   0.221   3.304   3.115  1.4760  0.5372 -0.4598
   91MOL   H37834758   0.335   3.165   3.113  0.2525 -1.2700  1.5532
   91MOL   H37934759   0.008   3.041   3.250  1.2232 -2.4702  0.3136
   91MOL   H38034760   0.156   3.003   3.147  1.5135 -0.1982  2.0341
   91MOL   H38134761   0.049   3.132   3.106 -0.5817 -0.7167 -0.0247
   91MOL   H38234762   0.036   3.406   3.545 -0.7830  2.2693 -1.5329
   92MOL     C134763   3.964   5.337   5.631  0.0906 -0.4518 -0.0664
   92MOL     C234764   3.960   5.212   5.728 -0.9313 -0.2029  0.4530
   92MOL     O334765   3.831   5.209   5.795 -0.7527 -0.3091 -0.3286
   92MOL     C434766   3.841   5.263   5.929  0.2316  0.1998 -0.7905
   92MOL     C534767   3.710   5.254   6.015 -0.2322  0.3452 -0.2088
   92MOL     C634768   3.590   5.309   5.938 -1.1757 -0.2619  0.0089
   92MOL     C734769   3.741   5.318   6.152  0.2130  0.5144 -0.4551
   92MOL     H834770   3.904   5.329   5.540  0.6947  0.8552 -0.6090
   92MOL     H934771   3.935   5.428   5.683 -0.4158 -0.1815 -0.8135
   92MOL    H1034772   4.034   5.222   5.807  0.2048 -2.3188 -0.2994
   92MOL    H1134773   3.891   5.358   5.910  0.6649  0.2374  0.5057
   92MOL    H1234774   3.919   5.203   5.975  0.5842 -0.7429 -2.5324
   92MOL    H1334775   3.687   5.150   6.035 -1.8035  0.3696 -1.8101
   92MOL    H1434776   3.601   5.253   5.845 -1.0640 -2.4904  1.3291
   92MOL    H1534777   3.497   5.271   5.980  0.0083  0.1285  3.0911
   92MOL    H1634778   3.591   5.416   5.914 -0.7567  0.0312  1.2923
   92MOL    H1734779   3.825   5.259   6.189  0.7447  0.2432 -2.0391
   92MOL    H1834780   3.780   5.419   6.137  3.5912 -1.0010 -2.4531
   92MOL    H1934781   3.650   5.312   6.211  0.6690 -1.0333  0.0990
   92MOL    H2034782   4.064   5.358   5.591  0.4005  1.1691  1.4747
   92MOL    C2134783   3.982   5.085   5.639 -0.3447 -0.1787  0.5953
   92MOL    C2234784   3.994   4.963   5.723 -0.5422  0.5333  0.2151
   92MOL    O2334785   4.009   4.851   5.639 -0.2861 -0.0491  0.0806
   92MOL    C2434786   3.883   4.799   5.592  0.3531 -0.1279 -0.7777
   92MOL    C2534787   3.892   4.648   5.553 -0.1861 -0.3241  0.3520
   92MOL    C2634788   3.899   4.552   5.675  1.3491  0.3685 -0.2635
   92MOL    C2734789   3.778   4.608   5.455 -0.1799  0.0130 -0.6610
   92MOL    H2834790   3.890   5.079   5.581 -2.3073 -0.3379  3.5811
   92MOL    H2934791   4.066   5.104   5.572 -0.5914  0.8593  0.5627
   92MOL    H3034792   3.915   4.944   5.795 -1.5687 -0.4405 -1.1271
   92MOL    H3134793   3.843   4.857   5.509  1.0385  1.3468 -0.0944
   92MOL    H3234794   3.808   4.800   5.671 -0.0771  1.9307 -1.2069
   92MOL    H3334795   3.986   4.633   5.501  0.3618 -0.7644  1.4355
   92MOL    H3434796   3.890   4.446   5.655 -1.3480  0.0498  2.3035
   92MOL    H3534797   3.816   4.588   5.736 -0.1335 -1.7191 -1.0218
   92MOL    H3634798   3.993   4.560   5.731  2.1119 -0.3268 -1.4326
   92MOL    H3734799   3.804   4.645   5.356  2.3342 -0.6461 -0.2630
   92MOL    H3834800   3.766   4.500   5.455  1.9493 -0.2406  0.7816
   92MOL    H3934801   3.682   4.649   5.486  1.1555  2.0343  0.9240
   92MOL    C4034802   4.120   4.959   5.804 -0.5576 -0.7360  0.4293
   92MOL    C4134803   4.131   4.848   5.910  0.0159  0.4535  0.3264
   92MOL    O4234804   4.059   4.868   6.032  0.2433  0.4693 -0.3347
   92MOL    C4334805   3.924   4.827   6.031 -0.4659 -0.1781 -0.2414
   92MOL    C4434806   3.916   4.808   6.183 -1.1160  0.0231 -0.5632
   92MOL    C4534807   3.914   4.940   6.257 -0.3572 -0.1253  0.5836
   92MOL    C4634808   3.786   4.737   6.223 -0.4581  0.3495 -0.1468
   92MOL    H4734809   4.132   5.048   5.866 -0.4494 -0.7514  0.4300
   92MOL    H4834810   4.206   4.967   5.738 -0.7081 -0.2173  0.2947
   92MOL    H4934811   4.084   4.763   5.861  1.7505 -1.8243  2.4846
   92MOL    H5034812   3.913   4.726   5.991  0.8324 -0.7483  0.8375
   92MOL    H5134813   3.848   4.894   5.991 -1.7669 -0.8925  0.9640
   92MOL    H5234814   3.998   4.743   6.214 -1.2131 -0.9869 -2.3576
   92MOL    H5334815   3.889   4.942   6.363  0.1258  0.1180  0.6967
   92MOL    H5434816   4.011   4.989   6.261 -0.4393  0.0826 -0.0449
   92MOL    H5534817   3.847   5.012   6.212  1.3169  0.0263 -1.7615
   92MOL    H5634818   3.763   4.654   6.157  0.2748  0.0001  0.0449
   92MOL    H5734819   3.707   4.812   6.211 -0.3670  0.7076  1.3275
   92MOL    H5834820   3.780   4.702   6.326  0.5688  0.0855 -0.1724
   92MOL    C5934821   4.280   4.824   5.938 -0.6791  0.3151  0.3249
   92MOL    C6034822   4.318   4.726   6.051  0.4547 -0.4211 -0.3971
   92MOL    O6134823   4.454   4.679   6.048 -0.4173 -1.1373  0.0408
   92MOL    C6234824   4.559   4.768   6.100 -0.7367 -0.4791 -0.5030
   92MOL    C6334825   4.697   4.704   6.090 -0.1129  0.1989 -0.5318
   92MOL    C6434826   4.715   4.560   6.138  0.0649 -0.2662 -0.3014
   92MOL    C6534827   4.753   4.723   5.952 -0.0356  0.1212  0.1989
   92MOL    H6634828   4.333   4.915   5.966  1.2810 -0.1558 -1.7306
   92MOL    H6734829   4.326   4.787   5.846 -2.2466 -0.4780 -0.1625
   92MOL    H6834830   4.292   4.774   6.146  0.3796  0.4885 -0.8765
   92MOL    H6934831   4.565   4.858   6.039 -3.4778  0.0984  0.0132
   92MOL    H7034832   4.526   4.800   6.199  2.0760 -0.1107  0.3415
   92MOL    H7134833   4.755   4.765   6.159 -0.8014  0.1127  0.1193
   92MOL    H7234834   4.658   4.489   6.078  0.4739 -0.0867 -0.9132
   92MOL    H7334835   4.678   4.545   6.239  1.0198 -1.0260 -0.0555
   92MOL    H7434836   4.818   4.525   6.145  0.0096 -0.0301  1.8621
   92MOL    H7534837   4.857   4.692   5.943 -0.3193 -1.1896  1.2122
   92MOL    H7634838   4.696   4.677   5.871 -1.4698  1.9808  0.1331
   92MOL    H7734839   4.758   4.831   5.943  0.2058 -0.0320 -1.8691
   92MOL    C7834840   4.229   4.596   6.032 -0.5376  0.2167  0.3549
   92MOL    C7934841   4.222   4.499   6.156 -0.2186 -0.3182 -0.3804
   92MOL    O8034842   4.124   4.399   6.128 -0.1325 -0.9186 -0.4262
   92MOL    C8134843   4.002   4.414   6.189  0.6927  0.2570 -0.0786
   92MOL    C8234844   3.899   4.330   6.104  0.1395 -0.1723  0.2841
   92MOL    C8334845   3.875   4.383   5.964  0.2299  0.0945 -0.1616
   92MOL    C8434846   3.769   4.329   6.180  0.5401 -0.2648  0.0906
   92MOL    H8534847   4.271   4.543   5.947 -0.6400 -1.4794  1.3335
   92MOL    H8634848   4.131   4.632   6.002  0.3825  1.7135 -0.9248
   92MOL    H8734849   4.195   4.553   6.247  1.4389 -1.1518  0.6451
   92MOL    H8834850   4.014   4.379   6.291  2.3170  1.3326  0.1040
   92MOL    H8934851   3.977   4.519   6.201  0.7327  0.1321  1.0968
   92MOL    H9034852   3.937   4.229   6.086  1.5226  0.5243 -0.7407
   92MOL    H9134853   3.853   4.489   5.951 -0.3908 -0.2290 -1.8332
   92MOL    H9234854   3.800   4.322   5.913 -0.1552  0.8998 -0.5716
   92MOL    H9334855   3.971   4.371   5.913  1.3014  2.5861  1.1609
   92MOL    H9434856   3.726   4.425   6.207  1.4461  0.1731 -0.0270
   92MOL    H9534857   3.779   4.269   6.271 -1.0950  1.1971  1.2550
   92MOL    H9634858   3.692   4.290   6.114 -1.5549  1.0741  1.6884
   92MOL    C9734859   4.363   4.438   6.181  0.5401  0.6837  0.0670
   92MOL    C9834860   4.384   4.341   6.305 -0.4246  0.4063 -0.2327
   92MOL    O9934861   4.389   4.416   6.427 -0.2681  0.1725  0.1039
   92MOL   C10034862   4.270   4.442   6.498 -0.0957  0.5042 -0.2615
   92MOL   C10134863   4.300   4.562   6.599 -0.4669 -0.8157 -0.2401
   92MOL   C10234864   4.385   4.533   6.720  0.1828 -0.3991 -0.6992
   92MOL   C10334865   4.361   4.673   6.516 -0.0945  0.0188  0.6664
   92MOL   H10434866   4.435   4.511   6.217 -0.0703  0.8884  0.9058
   92MOL   H10534867   4.403   4.393   6.090  0.5059  1.1223 -0.1662
   92MOL   H10634868   4.303   4.268   6.304 -0.5943  0.5851 -2.0200
   92MOL   H10734869   4.217   4.360   6.545 -0.5868  1.9956  1.8602
   92MOL   H10834870   4.195   4.480   6.428  0.0672  0.6873 -0.3381
   92MOL   H10934871   4.207   4.607   6.635  1.5379  2.0321  1.5891
   92MOL   H11034872   4.374   4.428   6.747  0.8896  0.1991  2.1001
   92MOL   H11134873   4.491   4.540   6.696 -0.2600  0.3130 -2.5149
   92MOL   H11234874   4.358   4.594   6.806 -0.3908  2.3194 -2.7473
   92MOL   H11334875   4.448   4.637   6.461 -0.8346 -0.3510 -0.2788
   92MOL   H11434876   4.286   4.702   6.443 -1.6051 -0.2743  2.0790
   92MOL   H11534877   4.370   4.767   6.570  2.3157  1.0620 -1.4437
   92MOL   C11634878   4.518   4.261   6.289 -0.1125  0.2500  0.4421
   92MOL   C11734879   4.549   4.161   6.395 -0.1775 -0.7203  0.6280
   92MOL   O11834880   4.629   4.057   6.342  0.0813 -0.0571 -0.3001
   92MOL   C11934881   4.560   3.944   6.302  0.4540  0.4537  0.6159
   92MOL   C12034882   4.663   3.840   6.258  0.3699 -0.0944 -0.1516
   92MOL   C12134883   4.592   3.705   6.226 -0.1614  0.2475  0.0760
   92MOL   C12234884   4.743   3.885   6.131 -0.1070  0.4958 -0.0156
   92MOL   H12334885   4.490   4.201   6.203  0.5650  1.7122 -0.8190
   92MOL   H12434886   4.601   4.314   6.243  0.3022 -2.5371 -2.1178
   92MOL   H12534887   4.459   4.114   6.432 -0.4770 -0.4578  0.2366
   92MOL   H12634888   4.488   3.958   6.221 -1.8980  0.7245  2.6625
   92MOL   H12734889   4.503   3.911   6.389  0.4596 -0.9533  0.1043
   92MOL   H12834890   4.728   3.824   6.344  0.1798  0.5707  0.1124
   92MOL   H12934891   4.667   3.627   6.211 -0.1710  0.1397  0.5816
   92MOL   H13034892   4.529   3.711   6.137 -1.9708  0.4794  1.3451
   92MOL   H13134893   4.536   3.664   6.310  0.6372  0.3107  0.6485
   92MOL   H13234894   4.814   3.806   6.105  0.2559  0.1606  1.9480
   92MOL   H13334895   4.685   3.884   6.039 -0.8164  2.1552  0.3974
   92MOL   H13434896   4.795   3.980   6.147  0.8103  0.0983 -0.5994
   92MOL   C13534897   4.640   4.211   6.499 -0.1367  0.4004 -0.0785
   92MOL   C13634898   4.641   4.116   6.623 -0.1966 -0.1374 -0.2409
   92MOL   O13734899   4.762   4.147   6.702 -0.4791 -0.4303 -0.0617
   92MOL   C13834900   4.879   4.077   6.675  1.0621 -1.0495 -0.0004
   92MOL   C13934901   4.972   4.057   6.799  0.3516 -0.7943  0.5210
   92MOL   C14034902   4.933   3.947   6.900  0.0007 -0.3535  0.3637
   92MOL   C14134903   5.116   4.027   6.743 -0.0448  0.3196 -0.3005
   92MOL   H14234904   4.738   4.221   6.452 -0.4088  1.3882 -0.4470
   92MOL   H14334905   4.609   4.309   6.532  0.3774  0.1366  1.2396
   92MOL   H14434906   4.652   4.011   6.596  0.2362  0.3087 -1.8605
   92MOL   H14534907   4.924   4.142   6.600 -2.0514  0.8078 -0.3303
   92MOL   H14634908   4.871   3.976   6.634  0.7594 -1.3059  0.6824
   92MOL   H14734909   4.986   4.153   6.850  0.8468 -0.2435 -0.6376
   92MOL   H14834910   5.002   3.953   6.984 -0.4112 -1.5013  0.7919
   92MOL   H14934911   4.927   3.847   6.858  0.9950 -0.8584  1.4078
   92MOL   H15034912   4.831   3.961   6.938  0.2364 -0.5009  1.0490
   92MOL   H15134913   5.151   4.115   6.688  2.0369 -1.2975 -1.6293
   92MOL   H15234914   5.190   4.006   6.820 -0.2761  1.6701  0.2980
   92MOL   H15334915   5.126   3.945   6.672 -3.3588 -1.1263  0.7924
   92MOL   C15434916   4.510   4.133   6.706 -0.2776  0.2768  1.2505
   92MOL   C15534917   4.500   4.058   6.836 -0.0251  0.3609  0.5311
   92MOL   O15634918   4.552   3.925   6.844  0.4491  0.1207  0.3852
   92MOL   C15734919   4.497   3.826   6.752  0.3685 -0.6007  0.1334
   92MOL   C15834920   4.590   3.716   6.732 -0.3358  0.8759  0.1770
   92MOL   C15934921   4.531   3.616   6.637  0.5869  0.1054 -0.1219
   92MOL   C16034922   4.725   3.757   6.681 -0.5854 -0.2451 -0.1774
   92MOL   H16134923   4.428   4.090   6.647  0.8663  1.3546 -1.1984
   92MOL   H16234924   4.489   4.239   6.721  1.0609  0.7829 -0.3218
   92MOL   H16334925   4.396   4.040   6.864  0.7973 -3.3976  1.3999
   92MOL   H16434926   4.481   3.870   6.654  3.2327  0.3746  0.0763
   92MOL   H16534927   4.409   3.792   6.807  1.0687 -0.4932  1.3319
   92MOL   H16634928   4.599   3.677   6.833  2.4676  1.3521  0.1600
   92MOL   H16734929   4.441   3.567   6.673  0.5423  1.4344  1.6356
   92MOL   H16834930   4.607   3.539   6.622 -0.3711 -0.7349 -0.6949
   92MOL   H16934931   4.486   3.648   6.543  0.0819  0.6948  0.3149
   92MOL   H17034932   4.764   3.843   6.736  0.8433 -1.1238  0.2057
   92MOL   H17134933   4.795   3.682   6.716 -1.4667 -1.1587 -0.3608
   92MOL   H17234934   4.734   3.785   6.577  0.9103  1.7483  0.4495
   92MOL   C17334935   4.561   4.131   6.957  0.1647 -0.1933  0.2553
   92MOL   C17434936   4.497   4.261   7.002 -0.1409 -0.1527  0.3526
   92MOL   O17534937   4.358   4.237   7.040 -0.2799  0.3142  0.1553
   92MOL   C17634938   4.272   4.345   7.026 -0.5863 -0.2841 -0.1552
   92MOL   C17734939   4.152   4.297   7.108 -0.5398  0.5976  0.1096
   92MOL   C17834940   4.056   4.212   7.021  0.0037 -0.0658 -0.5135
   92MOL   C17934941   4.180   4.211   7.237  0.4007  0.4686 -0.0617
   92MOL   H18034942   4.545   4.059   7.037  0.1594 -0.1963  0.2514
   92MOL   H18134943   4.669   4.130   6.951  0.1843 -0.5717  0.6126
   92MOL   H18234944   4.497   4.329   6.917  0.0090 -1.6195 -0.8390
   92MOL   H18334945   4.253   4.363   6.920 -0.1142  1.6588  0.0658
   92MOL   H18434946   4.313   4.428   7.083  0.8177 -0.7106 -0.5148
   92MOL   H18534947   4.102   4.385   7.148  2.7042  1.8421  1.5628
   92MOL   H18634948   4.108   4.128   6.975  1.7796  0.8164 -0.1537
   92MOL   H18734949   3.977   4.162   7.077  0.0678 -1.1377 -1.3488
   92MOL   H18834950   4.007   4.273   6.946  0.3723  2.0670  0.9409
   92MOL   H18934951   4.242   4.262   7.310  0.9691 -0.9470  0.4581
   92MOL   H19034952   4.229   4.114   7.222  1.0882  1.0502 -1.7086
   92MOL   H19134953   4.089   4.188   7.292  1.1861  0.6700  1.3452
   92MOL   C19234954   4.566   4.332   7.116  0.1827  0.6699  0.5573
   92MOL   C19334955   4.678   4.425   7.056  0.3830  0.3296  0.2074
   92MOL   O19434956   4.768   4.452   7.170  0.2627 -0.2471  0.6608
   92MOL   C19534957   4.886   4.372   7.158  0.1717 -0.3673 -0.0941
   92MOL   C19634958   4.958   4.418   7.292  0.4019  1.3721  0.5896
   92MOL   C19734959   4.963   4.568   7.308 -0.3831  0.0823  0.6244
   92MOL   C19834960   5.094   4.347   7.304 -0.2066 -1.1858  0.4778
   92MOL   H19934961   4.619   4.260   7.178  0.5265  2.3014  2.2029
   92MOL   H20034962   4.507   4.391   7.186 -3.1635 -1.6015 -0.2486
   92MOL   H20134963   4.731   4.372   6.977 -2.1484 -0.0978 -1.2627
   92MOL   H20234964   4.946   4.417   7.079  1.6833  0.6072  1.5663
   92MOL   H20334965   4.867   4.265   7.148 -1.0934 -0.2114  0.5018
   92MOL   H20434966   4.891   4.371   7.365  0.8211  0.3239  0.3148
   92MOL   H20534967   5.012   4.611   7.220 -1.1881  1.7520  0.9828
   92MOL   H20634968   4.871   4.621   7.330 -1.0478  0.1955 -2.1829
   92MOL   H20734969   5.025   4.585   7.396  0.3781 -2.8669  0.7207
   92MOL   H20834970   5.089   4.238   7.298  2.3357 -1.1929 -2.8907
   92MOL   H20934971   5.163   4.378   7.226 -0.0785  0.0887  1.0912
   92MOL   H21034972   5.140   4.368   7.401  1.1291 -0.1795 -0.3675
   92MOL   C21134973   4.621   4.562   7.021 -0.7505  0.8214 -0.0204
   92MOL   C21234974   4.720   4.661   6.960 -0.2498  0.8306  0.4694
   92MOL   O21334975   4.752   4.643   6.820  0.7708  0.4568  0.1106
   92MOL   C21434976   4.802   4.522   6.774  0.6350 -0.1700  0.0889
   92MOL   C21534977   4.849   4.554   6.629  0.1933 -0.1126 -0.5640
   92MOL   C21634978   4.730   4.607   6.545 -0.1379 -0.4743 -0.0385
   92MOL   C21734979   4.963   4.652   6.626 -0.0262  0.0877  1.6194
   92MOL   H21834980   4.566   4.605   7.104 -0.3885  0.5218  0.3761
   92MOL   H21934981   4.540   4.541   6.951  1.2263 -1.8681 -1.6189
   92MOL   H22034982   4.818   4.646   7.007 -0.6497  0.0709  1.0843
   92MOL   H22134983   4.731   4.439   6.772 -2.0257  2.0299  0.3311
   92MOL   H22234984   4.888   4.493   6.834  1.1655  0.3168 -0.4291
   92MOL   H22334985   4.880   4.459   6.585 -0.0019 -2.0218  3.2318
   92MOL   H22434986   4.680   4.693   6.589 -0.0797  0.4124 -1.6710
   92MOL   H22534987   4.757   4.649   6.448  1.0502 -0.3122  0.3491
   92MOL   H22634988   4.650   4.538   6.517  0.3649 -0.9937 -0.1964
   92MOL   H22734989   5.055   4.598   6.652 -0.7209 -0.6984  2.4793
   92MOL   H22834990   4.949   4.741   6.686  1.0378 -0.4272  2.6608
   92MOL   H22934991   4.968   4.675   6.519  3.3547 -1.2648  1.4134
   92MOL   C23034992   4.683   4.808   6.994 -0.0234 -0.0857  0.0939
   92MOL   C23134993   4.542   4.864   6.949  0.0881  0.9464 -0.3827
   92MOL   O23234994   4.449   4.813   7.054  0.5587 -0.3025 -0.1952
   92MOL   C23334995   4.311   4.818   7.023  0.1040 -0.0744 -0.4434
   92MOL   C23434996   4.231   4.747   7.132  0.8181  0.6115 -0.7989
   92MOL   C23534997   4.214   4.835   7.257 -0.0046  0.0555 -0.3929
   92MOL   C23634998   4.095   4.679   7.089 -0.1418  0.5148  0.3340
   92MOL   H23734999   4.765   4.869   6.956 -0.1405  1.1842  1.8441
   92MOL   H23835000   4.694   4.813   7.102 -0.2477 -0.2656  0.1245
   92MOL   H23935001   4.512   4.826   6.852 -2.0786 -2.9576  1.6726
   92MOL   H24035002   4.271   4.918   7.010 -0.3782 -0.2982 -0.7149
   92MOL   H24135003   4.306   4.778   6.921 -0.2358 -1.6555  0.1763
   92MOL   H24235004   4.295   4.665   7.166  0.4071  0.5833 -0.0915
   92MOL   H24335005   4.166   4.770   7.331  1.2120 -3.1116 -2.2603
   92MOL   H24435006   4.155   4.923   7.233  2.5494  2.0655  0.5368
   92MOL   H24535007   4.306   4.874   7.300 -0.3532 -0.5699  0.9599
   92MOL   H24635008   4.013   4.751   7.094  0.5338  1.2171  1.9173
   92MOL   H24735009   4.109   4.645   6.987  0.5668 -0.5582  0.7836
   92MOL   H24835010   4.071   4.599   7.159  1.1862  0.3342  0.5828
   92MOL   C24935011   4.536   5.014   6.955 -0.0362 -0.0550  0.2771
   92MOL   C25035012   4.567   5.090   6.826  0.0494 -0.3708 -0.8471
   92MOL   O25135013   4.450   5.132   6.750  0.2136 -0.0245  0.3229
   92MOL   C25235014   4.378   5.030   6.677 -0.9331  0.8271 -0.0421
   92MOL   C25335015   4.240   5.087   6.650 -0.4231  0.2517 -0.0174
   92MOL   C25435016   4.167   5.094   6.777 -0.4594  0.0167  0.1576
   92MOL   C25535017   4.162   5.009   6.540 -0.0254 -0.3919 -0.2018
   92MOL   H25635018   4.598   5.038   7.041 -1.9190  1.1810  1.3342
   92MOL   H25735019   4.437   5.042   6.992 -0.4975  0.5084 -1.3742
   92MOL   H25835020   4.637   5.028   6.770  0.7813  0.8301 -1.2759
   92MOL   H25935021   4.425   5.005   6.582 -0.1135 -2.0264  1.0574
   92MOL   H26035022   4.369   4.940   6.738  0.1409 -1.3054 -2.8940
   92MOL   H26135023   4.246   5.187   6.607 -1.8487 -0.8573 -2.9558
   92MOL   H26235024   4.198   5.181   6.836 -2.0784  1.6414 -1.3255
   92MOL   H26335025   4.184   5.004   6.837  0.4968  1.0631  1.5048
   92MOL   H26435026   4.061   5.079   6.759 -0.6592  0.0385  1.2516
   92MOL   H26535027   4.208   5.021   6.442 -0.4096  1.4697 -0.1660
   92MOL   H26635028   4.166   4.906   6.578 -2.6340 -0.3283  0.3387
   92MOL   H26735029   4.056   5.034   6.530  0.3628 -0.0524 -4.2202
   92MOL   C26835030   4.644   5.226   6.862 -0.0746  0.6018  0.2895
   92MOL   C26935031   4.718   5.288   6.738 -0.2283 -0.6538 -0.0154
   92MOL   O27035032   4.800   5.186   6.692 -0.2485 -0.3649  0.0572
   92MOL   C27135033   4.847   5.192   6.558  0.5456 -0.1260  0.0015
   92MOL   C27235034   4.769   5.112   6.458  0.2420 -0.3773 -0.6741
   92MOL   C27335035   4.743   4.969   6.497  0.2692  0.4933 -0.1387
   92MOL   C27435036   4.647   5.187   6.401 -0.2734 -0.3652  0.2141
   92MOL   H27535037   4.717   5.196   6.938 -1.4155  0.4342  1.5362
   92MOL   H27635038   4.572   5.294   6.909  1.0433  0.9191  1.5654
   92MOL   H27735039   4.634   5.313   6.672  0.9780  2.2620 -0.5237
   92MOL   H27835040   4.860   5.292   6.516 -0.0991 -0.2338 -0.4647
   92MOL   H27935041   4.953   5.166   6.568  1.2842  2.3113 -1.0258
   92MOL   H28035042   4.834   5.097   6.371 -0.4882  1.4963 -1.5735
   92MOL   H28135043   4.831   4.923   6.543  0.9741 -0.0973 -2.0524
   92MOL   H28235044   4.714   4.921   6.404  1.3251 -1.1701  0.3602
   92MOL   H28335045   4.661   4.968   6.569  0.4274 -1.5584  0.0285
   92MOL   H28435046   4.604   5.142   6.312  0.0766  0.3939 -0.3375
   92MOL   H28535047   4.680   5.289   6.382 -0.7408 -0.0320  1.1402
   92MOL   H28635048   4.577   5.184   6.485 -1.4153 -0.9264 -0.7531
   92MOL   C28735049   4.803   5.403   6.786  0.4856  0.0992  0.6685
   92MOL   C28835050   4.715   5.527   6.829 -0.4993  0.4305 -0.3295
   92MOL   O28935051   4.647   5.579   6.708  0.1362  0.3129 -0.5729
   92MOL   C29035052   4.510   5.609   6.730  0.4584  0.2281 -0.0014
   92MOL   C29135053   4.440   5.635   6.602 -0.3996  0.2973  0.7940
   92MOL   C29235054   4.294   5.658   6.623  0.2344  0.3723  0.3033
   92MOL   C29335055   4.462   5.514   6.506  0.3584 -0.2442 -0.6875
   92MOL   H29435056   4.869   5.428   6.703  0.4367 -0.2542  0.5228
   92MOL   H29535057   4.870   5.369   6.866  0.5376 -1.8412 -0.1735
   92MOL   H29635058   4.644   5.499   6.907  1.2694 -2.8784  0.2133
   92MOL   H29735059   4.465   5.522   6.779  0.8664  0.1965  0.3303
   92MOL   H29835060   4.495   5.696   6.794  0.0550  1.0986 -1.2613
   92MOL   H29935061   4.494   5.715   6.551  0.3212 -1.3464 -1.0748
   92MOL   H30035062   4.243   5.569   6.660  0.0318  0.3333 -0.0777
   92MOL   H30135063   4.244   5.674   6.528 -1.0840 -2.4649  0.4528
   92MOL   H30235064   4.274   5.735   6.697  0.2285 -0.4407  1.1609
   92MOL   H30335065   4.425   5.424   6.555  1.2700  0.1708  0.8120
   92MOL   H30435066   4.417   5.518   6.407  0.6653  1.6279 -0.7777
   92MOL   H30535067   4.570   5.506   6.491  0.2962 -1.1088 -0.6832
   92MOL   C30635068   4.802   5.640   6.891  0.7693 -0.3612  0.3714
   92MOL   C30735069   4.723   5.776   6.914  0.3274  0.3066  0.1408
   92MOL   O30835070   4.651   5.753   7.034  0.8348  0.0694 -0.3804
   92MOL   C30935071   4.547   5.839   7.064  0.5918 -0.0948 -0.4223
   92MOL   C31035072   4.443   5.781   7.165  0.0578 -0.3376  0.4621
   92MOL   C31135073   4.515   5.706   7.275  0.0976 -0.6179  0.1198
   92MOL   C31235074   4.346   5.688   7.089 -0.0078 -0.2528  0.2765
   92MOL   H31335075   4.885   5.647   6.821  0.1619  2.0725 -0.1547
   92MOL   H31435076   4.847   5.606   6.984  1.9693  0.4450  0.1037
   92MOL   H31535077   4.670   5.803   6.823 -2.0578  0.3343  1.5006
   92MOL   H31635078   4.490   5.875   6.979 -0.2258  0.2188  0.2505
   92MOL   H31735079   4.589   5.933   7.100  0.2162  0.6950 -2.0308
   92MOL   H31835080   4.388   5.858   7.220 -0.8493 -0.1866 -0.6439
   92MOL   H31935081   4.446   5.683   7.356  0.0201 -1.9482 -0.3073
   92MOL   H32035082   4.595   5.764   7.321  1.1007 -0.9080 -1.2255
   92MOL   H32135083   4.566   5.615   7.244  1.1899  0.2020 -0.5024
   92MOL   H32235084   4.298   5.736   7.004 -0.3151 -0.0906  0.5393
   92MOL   H32335085   4.264   5.670   7.159 -1.0383  0.7007 -0.6659
   92MOL   H32435086   4.388   5.593   7.056  0.8838  0.5045 -0.7804
   92MOL   C32535087   4.824   5.893   6.941  0.7200 -0.3295 -0.3903
   92MOL   C32635088   4.917   5.918   6.820 -0.3005 -0.6417  0.0763
   92MOL   O32735089   4.837   5.973   6.711  0.0581  0.0505  0.1203
   92MOL   C32835090   4.865   5.927   6.584 -0.0340  0.7777 -0.1855
   92MOL   C32935091   4.744   5.937   6.493 -0.6583 -0.1967  0.2637
   92MOL   C33035092   4.717   6.079   6.441 -0.5920 -0.0457  0.3859
   92MOL   C33135093   4.740   5.825   6.389  0.7143  0.1923 -0.0144
   92MOL   H33235094   4.875   5.860   7.031  1.4119 -1.5182 -1.2008
   92MOL   H33335095   4.780   5.986   6.977  0.3639 -1.5537  2.3806
   92MOL   H33435096   4.967   5.827   6.786 -0.9005 -0.0789 -2.3400
   92MOL   H33535097   4.959   5.971   6.550  0.5663  0.1566  0.6479
   92MOL   H33635098   4.886   5.820   6.592 -0.1889  0.8205  0.8311
   92MOL   H33735099   4.664   5.914   6.564 -0.4715  1.1740  0.9329
   92MOL   H33835100   4.794   6.149   6.473 -0.6727 -0.4536  1.5202
   92MOL   H33935101   4.698   6.090   6.335  0.4642 -0.4173  0.1550
   92MOL   H34035102   4.623   6.112   6.486 -0.7470 -2.1551  1.6997
   92MOL   H34135103   4.648   5.824   6.331 -0.6493 -2.1236  2.0473
   92MOL   H34235104   4.816   5.854   6.317  1.4307 -1.2510  0.1386
   92MOL   H34335105   4.752   5.720   6.417  0.0806 -0.0279 -0.5724
   92MOL   C34435106   5.024   6.025   6.854  0.5835  0.3505  0.5159
   92MOL   C34535107   4.981   6.157   6.922  0.9972 -0.2634  1.0423
   92MOL   O34635108   4.953   6.125   7.058  0.0307  0.0310 -0.5670
   92MOL   C34735109   4.848   6.209   7.111 -0.2252  0.3863  0.3098
   92MOL   C34835110   4.844   6.175   7.265 -0.3785  0.1501 -0.4466
   92MOL   C34935111   4.806   6.028   7.301 -0.4551 -0.4067  0.0534
   92MOL   C35035112   4.748   6.276   7.341 -0.6872  0.2161  0.1313
   92MOL   H35135113   5.070   6.054   6.760 -1.4646 -0.4669 -0.7599
   92MOL   H35235114   5.104   5.989   6.920  2.4159  2.5744 -0.4162
   92MOL   H35335115   4.895   6.190   6.865  1.1389 -1.0983  0.3429
   92MOL   H35435116   4.757   6.177   7.060 -0.4050 -1.0232  1.4913
   92MOL   H35535117   4.867   6.316   7.099 -1.7050  0.7167  0.6741
   92MOL   H35635118   4.945   6.196   7.301 -1.0040  0.6694  1.0443
   92MOL   H35735119   4.698   6.017   7.310 -0.3074 -2.4701 -0.3998
   92MOL   H35835120   4.848   5.999   7.398  1.4075 -0.3726 -0.7272
   92MOL   H35935121   4.856   5.953   7.240 -0.6172  0.1114 -0.7263
   92MOL   H36035122   4.644   6.257   7.314 -0.4291 -0.0523 -0.6925
   92MOL   H36135123   4.754   6.262   7.449 -1.3075 -0.0371  0.1370
   92MOL   H36235124   4.778   6.374   7.306  2.2309 -1.3632 -2.0061
   92MOL   C36335125   5.086   6.272   6.918 -0.1580 -0.4091  0.4955
   92MOL   C36435126   5.209   6.232   7.008  0.2454 -0.1857  0.5354
   92MOL   O36535127   5.268   6.360   7.015  0.0430 -0.3179 -0.1755
   92MOL   C36635128   5.376   6.373   7.104  0.3626 -0.3145  0.7937
   92MOL   C36735129   5.430   6.514   7.095  0.3006 -0.5383 -0.1468
   92MOL   C36835130   5.335   6.605   7.179 -0.3020 -0.4066  0.1584
   92MOL   C36935131   5.448   6.561   6.954  0.6856 -0.4217 -0.8050
   92MOL   H37035132   5.130   6.296   6.821 -0.6042 -1.7790 -0.0605
   92MOL   H37135133   5.043   6.363   6.958 -1.4702  0.8795 -3.5554
   92MOL   H37235134   5.259   6.159   6.945  0.9981  0.5834  0.2253
   92MOL   H37335135   5.341   6.359   7.206  0.2071 -2.1279  0.5082
   92MOL   H37435136   5.453   6.304   7.071  1.3353  0.9363  0.3692
   92MOL   H37535137   5.526   6.495   7.144  0.6999  1.0000 -0.3076
   92MOL   H37635138   5.384   6.702   7.170 -0.2407 -0.4794 -0.3254
   92MOL   H37735139   5.344   6.572   7.283  0.3310  0.1121  0.2759
   92MOL   H37835140   5.233   6.600   7.142  0.1788 -0.8416 -1.1294
   92MOL   H37935141   5.506   6.652   6.946  0.1587 -0.0598 -0.5858
   92MOL   H38035142   5.352   6.572   6.902  0.9821 -1.1493 -1.5075
   92MOL   H38135143   5.498   6.484   6.896  1.7007 -0.6192  0.3240
   92MOL   H38235144   5.183   6.197   7.108  1.2625  1.5752  1.4452
   93MOL     C135145   2.600   3.822   6.008 -0.0037  0.2464 -0.3778
   93MOL     C235146   2.637   3.679   5.965  0.3335 -0.1759 -0.0426
   93MOL     O335147   2.525   3.637   5.892  0.0729 -0.0620  0.0514
   93MOL     C435148   2.419   3.598   5.984  0.0766  0.1742 -0.0524
   93MOL     C535149   2.309   3.523   5.907  0.0996 -0.4489 -0.3537
   93MOL     C635150   2.229   3.617   5.820 -0.0313 -0.1457  0.1467
   93MOL     C735151   2.223   3.440   5.999  0.0725 -0.7032  0.2400
   93MOL     H835152   2.527   3.820   6.089  2.6517 -2.2331  2.0807
   93MOL     H935153   2.692   3.874   6.036  0.8607 -0.8047 -1.2442
   93MOL    H1035154   2.669   3.613   6.046 -0.3508  0.4438  0.7298
   93MOL    H1135155   2.374   3.689   6.022  0.5325  1.0030 -1.4466
   93MOL    H1235156   2.462   3.545   6.068 -0.7934  1.3341  1.1376
   93MOL    H1335157   2.347   3.449   5.836  1.5013 -1.8153  1.7459
   93MOL    H1435158   2.293   3.663   5.745 -0.8114  0.2703 -0.2724
   93MOL    H1535159   2.155   3.570   5.754 -0.0041 -0.9079  0.6495
   93MOL    H1635160   2.175   3.692   5.879 -2.4655 -2.1268  0.5094
   93MOL    H1735161   2.149   3.382   5.944  1.4236 -0.1358 -2.2535
   93MOL    H1835162   2.285   3.368   6.053 -1.2886 -0.9158  1.5592
   93MOL    H1935163   2.170   3.500   6.073  0.5664  0.7596 -0.5832
   93MOL    H2035164   2.554   3.876   5.925 -0.8373  2.8150  1.6708
   93MOL    C2135165   2.756   3.676   5.868  0.0269 -0.3683  0.5215
   93MOL    C2235166   2.797   3.528   5.822  0.3860  0.2652 -0.8362
   93MOL    O2335167   2.830   3.529   5.679  0.2501 -0.2539 -0.4794
   93MOL    C2435168   2.722   3.542   5.593  0.4002  0.3087  0.4041
   93MOL    C2535169   2.770   3.498   5.456 -0.8196 -0.1847  0.4223
   93MOL    C2635170   2.873   3.597   5.391 -0.1289  0.2147 -0.0565
   93MOL    C2735171   2.818   3.355   5.458 -0.4545 -0.1608 -0.2168
   93MOL    H2835172   2.734   3.754   5.796  0.1105 -0.0167  0.8746
   93MOL    H2935173   2.841   3.720   5.920  1.9276 -2.3699 -0.7817
   93MOL    H3035174   2.718   3.456   5.843  1.6268 -0.4670  1.4838
   93MOL    H3135175   2.689   3.645   5.604  1.2899  0.3969  2.4047
   93MOL    H3235176   2.644   3.474   5.628 -0.2229  0.7718 -0.0744
   93MOL    H3335177   2.690   3.507   5.383 -2.3552  0.8798  2.1823
   93MOL    H3435178   2.968   3.576   5.440 -0.1923  0.6257  0.2430
   93MOL    H3535179   2.848   3.702   5.403  1.8260  0.6752  0.1932
   93MOL    H3635180   2.885   3.580   5.284  0.2436  1.6061 -0.2425
   93MOL    H3735181   2.738   3.295   5.500 -0.7500  0.5525  0.2569
   93MOL    H3835182   2.837   3.328   5.354  0.8076  0.3696 -0.1381
   93MOL    H3935183   2.914   3.334   5.506 -0.6375  0.3348  0.3704
   93MOL    C4035184   2.924   3.497   5.903  0.0063  0.1616 -0.3455
   93MOL    C4135185   2.977   3.357   5.874 -0.5366  0.1729  0.4121
   93MOL    O4235186   2.873   3.268   5.927  0.0631  0.2818  0.1696
   93MOL    C4335187   2.779   3.211   5.833 -0.3229  0.5148  0.0662
   93MOL    C4435188   2.670   3.142   5.911  0.7347  0.3078  0.1063
   93MOL    C4535189   2.718   3.055   6.031 -0.0450  0.6047  0.0801
   93MOL    C4635190   2.583   3.251   5.967  0.1125  0.4585  0.0337
   93MOL    H4735191   2.913   3.497   6.011 -0.6048 -0.4604 -0.4051
   93MOL    H4835192   2.999   3.576   5.890 -2.4309  2.5965  0.0158
   93MOL    H4935193   2.969   3.340   5.767  1.0614  1.7947  0.0017
   93MOL    H5035194   2.836   3.144   5.769  0.2421 -0.4026  1.5309
   93MOL    H5135195   2.734   3.278   5.759 -0.3123 -0.5442 -0.9158
   93MOL    H5235196   2.609   3.088   5.839 -0.0599  1.2617  0.0403
   93MOL    H5335197   2.795   3.104   6.090  0.4382 -0.3473  0.2361
   93MOL    H5435198   2.633   3.040   6.097 -0.3687 -0.2205 -0.5243
   93MOL    H5535199   2.757   2.955   6.011 -1.1552 -0.2124  1.9125
   93MOL    H5635200   2.632   3.319   6.037  1.4838 -1.2485  0.7860
   93MOL    H5735201   2.495   3.211   6.016 -0.9454 -0.2448 -2.3814
   93MOL    H5835202   2.543   3.308   5.883 -2.9586 -2.5981 -0.6534
   93MOL    C5935203   3.113   3.318   5.950 -0.0840 -0.1662 -0.5235
   93MOL    C6035204   3.235   3.391   5.883  0.2358  0.2171 -0.0472
   93MOL    O6135205   3.257   3.326   5.760 -0.0756  0.2770  0.1072
   93MOL    C6235206   3.234   3.419   5.655 -0.2904  0.0169 -0.2183
   93MOL    C6335207   3.279   3.361   5.528  0.3204  0.1601  0.0761
   93MOL    C6435208   3.174   3.273   5.462 -0.4811 -0.5833  0.1093
   93MOL    C6535209   3.324   3.468   5.434  0.3444 -0.1252 -0.4320
   93MOL    H6635210   3.122   3.209   5.943  1.0223 -0.0640 -0.8875
   93MOL    H6735211   3.105   3.341   6.056 -2.6648  3.1820 -1.3780
   93MOL    H6835212   3.224   3.499   5.877 -0.5939  0.3621  3.4872
   93MOL    H6935213   3.130   3.451   5.648 -0.4879 -0.4647  0.4070
   93MOL    H7035214   3.290   3.511   5.667 -1.3225  0.4337  1.6467
   93MOL    H7135215   3.369   3.303   5.551  0.8041  0.1274 -1.7952
   93MOL    H7235216   3.086   3.329   5.432 -0.6003 -1.5879 -1.5213
   93MOL    H7335217   3.141   3.188   5.522 -1.4323 -0.4872 -0.2677
   93MOL    H7435218   3.205   3.234   5.365  2.2181  0.1866  0.6297
   93MOL    H7535219   3.403   3.532   5.473  2.3858 -0.7606 -3.3373
   93MOL    H7635220   3.377   3.433   5.345 -0.1157  1.8769 -1.5353
   93MOL    H7735221   3.242   3.533   5.404  0.8594 -0.0745 -1.8035
   93MOL    C7835222   3.354   3.360   5.964 -0.2320  0.4200 -0.4967
   93MOL    C7935223   3.393   3.470   6.066 -0.0950  0.3735 -0.4474
   93MOL    O8035224   3.280   3.487   6.151  0.5373  0.3543 -0.2643
   93MOL    C8135225   3.230   3.619   6.160  0.2707  0.0638 -0.8775
   93MOL    C8235226   3.110   3.631   6.256  0.3873 -0.1109 -0.0521
   93MOL    C8335227   3.061   3.776   6.258  0.1992 -0.8276 -0.6475
   93MOL    C8435228   3.138   3.578   6.391  0.6736  0.0841 -0.2684
   93MOL    H8535229   3.438   3.338   5.898  1.5693  0.5183  1.6873
   93MOL    H8635230   3.354   3.262   6.013  0.6537 -0.0186 -1.3600
   93MOL    H8735231   3.410   3.559   6.006 -1.1335  0.6539 -0.3306
   93MOL    H8835232   3.310   3.688   6.189 -0.5971  0.8127 -0.2397
   93MOL    H8935233   3.198   3.656   6.063  0.5184  1.3119 -0.4927
   93MOL    H9035234   3.037   3.570   6.204  1.4282 -1.2926 -0.1643
   93MOL    H9135235   3.064   3.834   6.165 -0.5481 -0.2540 -0.3189
   93MOL    H9235236   3.130   3.830   6.323 -0.3339  0.9473 -1.5062
   93MOL    H9335237   2.969   3.780   6.316  1.6820  0.3501  1.7171
   93MOL    H9435238   3.159   3.472   6.397 -1.3195 -0.3250 -0.0275
   93MOL    H9535239   3.057   3.588   6.464  1.4367 -0.1129  0.6089
   93MOL    H9635240   3.217   3.640   6.433 -0.8900  0.9795  1.4663
   93MOL    C9735241   3.518   3.439   6.155  0.7107  0.5203  0.5325
   93MOL    C9835242   3.556   3.547   6.262  0.8639 -0.3188  0.2101
   93MOL    O9935243   3.594   3.655   6.184  0.5635  0.1068  0.3776
   93MOL   C10035244   3.614   3.785   6.243  0.4061  0.1513  0.0022
   93MOL   C10135245   3.630   3.885   6.122 -0.0428 -0.1557 -0.0559
   93MOL   C10235246   3.730   3.842   6.015  0.5333 -0.1773 -0.7869
   93MOL   C10335247   3.486   3.917   6.065 -0.3009  0.3831  0.0434
   93MOL   H10435248   3.613   3.425   6.104  0.7579 -1.8749  1.1869
   93MOL   H10535249   3.494   3.347   6.210 -1.4298  2.7603  3.5768
   93MOL   H10635250   3.468   3.572   6.322  1.5030  1.2316  0.5236
   93MOL   H10735251   3.714   3.793   6.286  0.4457  0.3217 -0.1219
   93MOL   H10835252   3.532   3.812   6.309  0.8219 -0.1957  0.6696
   93MOL   H10935253   3.675   3.970   6.174 -0.2796  0.4176 -0.7670
   93MOL   H11035254   3.708   3.892   5.921  0.6259  0.4749 -0.4617
   93MOL   H11135255   3.835   3.862   6.038  0.1486 -1.1408  1.9628
   93MOL   H11235256   3.723   3.734   5.998  0.7232  0.1385 -3.0349
   93MOL   H11335257   3.456   3.833   6.002 -3.3721  0.8250  0.8298
   93MOL   H11435258   3.415   3.934   6.146  0.6589 -0.6493  1.1243
   93MOL   H11535259   3.489   3.999   5.993 -2.3358  0.3751 -0.0917
   93MOL   C11635260   3.672   3.507   6.355  0.4173  0.0604 -0.4700
   93MOL   C11735261   3.675   3.571   6.497 -0.0457 -0.8636 -0.6823
   93MOL   O11835262   3.559   3.532   6.563  0.2512  0.3153 -0.1504
   93MOL   C11935263   3.478   3.645   6.606 -0.8828  0.4150 -0.0963
   93MOL   C12035264   3.361   3.597   6.684 -0.2842  0.2045 -0.0599
   93MOL   C12135265   3.395   3.525   6.815 -0.0594 -0.7077  0.5947
   93MOL   C12235266   3.263   3.706   6.715 -0.3227 -0.8699 -0.6127
   93MOL   H12335267   3.664   3.398   6.358 -0.4416  0.1553  1.3348
   93MOL   H12435268   3.760   3.538   6.298  0.2536 -0.2254 -0.8767
   93MOL   H12535269   3.677   3.679   6.481 -0.0524 -0.6109  0.9689
   93MOL   H12635270   3.442   3.703   6.521 -0.6819  2.3629  1.1088
   93MOL   H12735271   3.529   3.709   6.678 -2.1809  1.1772  0.1679
   93MOL   H12835272   3.303   3.532   6.620  0.3110  0.2060 -0.6011
   93MOL   H12935273   3.312   3.509   6.885  0.0887  0.6941  1.1137
   93MOL   H13035274   3.458   3.596   6.869 -1.9602  0.7448  0.9870
   93MOL   H13135275   3.450   3.434   6.795 -2.8938 -2.3782  0.0600
   93MOL   H13235276   3.230   3.759   6.626  2.1315  1.6273 -0.0902
   93MOL   H13335277   3.171   3.681   6.769 -0.3190 -0.0738 -0.2257
   93MOL   H13435278   3.307   3.776   6.785 -1.5453 -0.4202 -0.2877
   93MOL   C13535279   3.800   3.531   6.578  0.1958  0.0016 -0.1248
   93MOL   C13635280   3.938   3.564   6.519  0.1608 -0.4299  0.0702
   93MOL   O13735281   3.946   3.707   6.509  0.9754 -0.3622  0.3895
   93MOL   C13835282   3.996   3.749   6.390 -0.0519 -0.7023 -0.0385
   93MOL   C13935283   4.019   3.898   6.407  0.3457 -0.0787 -0.7478
   93MOL   C14035284   3.886   3.976   6.439  0.3967 -0.1554  0.6369
   93MOL   C14135285   4.125   3.936   6.505 -0.3177  0.2046  0.4033
   93MOL   H14235286   3.792   3.579   6.676  1.2509  0.3343 -0.2041
   93MOL   H14335287   3.799   3.424   6.602 -0.1797  0.4589  1.9930
   93MOL   H14435288   3.939   3.511   6.424 -2.0275  2.9213 -1.9541
   93MOL   H14535289   3.928   3.723   6.307  1.2460  1.3874 -1.8007
   93MOL   H14635290   4.090   3.702   6.364  1.1689  1.0471  1.1393
   93MOL   H14735291   4.043   3.946   6.312 -1.6999 -1.5604 -2.0572
   93MOL   H14835292   3.810   3.981   6.360 -0.0695  1.1836  1.1757
   93MOL   H14935293   3.914   4.076   6.471  0.1236 -0.5546  2.1581
   93MOL   H15035294   3.836   3.921   6.519 -1.9093 -0.4986 -0.9487
   93MOL   H15135295   4.220   3.885   6.486  0.0471  0.9425  0.2363
   93MOL   H15235296   4.140   4.044   6.499 -0.2826  0.0825 -2.5065
   93MOL   H15335297   4.091   3.901   6.603  0.9289 -0.4245  0.6188
   93MOL   C15435298   4.058   3.520   6.601  0.2529  0.5620 -0.1664
   93MOL   C15535299   4.050   3.374   6.646  0.8006 -0.3485 -0.5836
   93MOL   O15635300   4.022   3.287   6.537 -0.5014 -0.5491 -0.9207
   93MOL   C15735301   3.997   3.151   6.567  0.1739 -0.5270  0.3415
   93MOL   C15835302   3.936   3.085   6.448  0.8679 -0.2301 -0.2686
   93MOL   C15935303   3.937   2.931   6.478  0.0158 -0.2928  0.1171
   93MOL   C16035304   3.800   3.138   6.413 -0.0276 -0.2568  0.5068
   93MOL   H16135305   4.064   3.576   6.694 -0.3298  0.4989 -0.0864
   93MOL   H16235306   4.153   3.535   6.549 -1.3703  0.6342 -3.2443
   93MOL   H16335307   3.971   3.363   6.721 -0.5569  2.3817 -1.5496
   93MOL   H16435308   3.927   3.145   6.651 -1.0939  1.3327 -0.5613
   93MOL   H16535309   4.091   3.104   6.596  2.0416  1.6338 -1.9466
   93MOL   H16635310   4.004   3.089   6.363 -0.6167  0.1026 -1.4750
   93MOL   H16735311   4.041   2.911   6.450 -0.8465  0.2977 -3.7095
   93MOL   H16835312   3.876   2.868   6.413 -0.8791  2.3620 -1.6926
   93MOL   H16935313   3.916   2.904   6.582 -1.9294  0.8114  0.0285
   93MOL   H17035314   3.765   3.099   6.318 -2.6530  0.0192  1.3336
   93MOL   H17135315   3.727   3.105   6.487 -2.0514 -0.2162 -1.4507
   93MOL   H17235316   3.795   3.246   6.397 -1.8082 -0.4898 -0.5645
   93MOL   C17335317   4.181   3.328   6.714 -0.4207 -0.3569  0.1231
   93MOL   C17435318   4.229   3.393   6.849  0.8816 -0.3488  0.8217
   93MOL   O17535319   4.143   3.348   6.952  0.3986 -0.1378  0.2035
   93MOL   C17635320   4.070   3.456   7.016 -0.2864  0.0786  0.5202
   93MOL   C17735321   4.036   3.402   7.157  0.4394  0.7339  0.0693
   93MOL   C17835322   3.963   3.510   7.234 -0.3476  0.1372 -0.2192
   93MOL   C17935323   3.971   3.260   7.150 -0.2890  0.1303  0.0696
   93MOL   H18035324   4.177   3.224   6.746 -1.0523 -0.7273 -1.1342
   93MOL   H18135325   4.258   3.336   6.637 -0.3611  0.7731  0.2840
   93MOL   H18235326   4.219   3.501   6.840  2.2729 -0.0148  3.0426
   93MOL   H18335327   3.985   3.466   6.948  0.7546 -2.8506 -1.3378
   93MOL   H18435328   4.128   3.548   7.017 -0.4647  0.2028  0.0116
   93MOL   H18535329   4.133   3.389   7.206  0.6974 -1.2705 -0.9571
   93MOL   H18635330   4.023   3.600   7.238 -0.4477  0.1779  0.4788
   93MOL   H18735331   3.868   3.547   7.196 -0.5873  0.3815  0.5997
   93MOL   H18835332   3.948   3.491   7.341  0.4701 -0.1871 -0.1566
   93MOL   H18935333   3.952   3.212   7.054  0.2802 -1.3805  0.7023
   93MOL   H19035334   3.868   3.279   7.180 -1.1281 -0.4856 -2.2687
   93MOL   H19135335   4.019   3.206   7.231  0.0916  0.5608  0.1318
   93MOL   C19235336   4.373   3.350   6.875 -0.0844 -0.2711  0.5339
   93MOL   C19335337   4.444   3.417   6.994 -0.6034  0.6262 -0.2337
   93MOL   O19435338   4.432   3.559   6.982 -0.3946  0.4436  0.5652
   93MOL   C19535339   4.410   3.621   7.108  0.5276 -0.3525  0.1069
   93MOL   C19635340   4.383   3.766   7.109 -0.3160 -0.2690 -0.2221
   93MOL   C19735341   4.385   3.826   7.248  0.5976 -0.4137 -0.1875
   93MOL   C19835342   4.250   3.801   7.039 -0.7368  0.6992 -0.8199
   93MOL   H19935343   4.428   3.368   6.782 -2.4572  2.5820 -0.3853
   93MOL   H20035344   4.373   3.241   6.880  0.8844 -0.4979 -3.0324
   93MOL   H20135345   4.397   3.380   7.085  1.3097 -2.1905 -0.3244
   93MOL   H20235346   4.504   3.615   7.163  0.6185  2.0031  0.2465
   93MOL   H20335347   4.334   3.566   7.164  0.7139 -0.6121  0.1102
   93MOL   H20435348   4.466   3.822   7.065  0.1281 -1.2388 -0.6291
   93MOL   H20535349   4.414   3.931   7.250 -1.8422  0.2995 -0.6176
   93MOL   H20635350   4.290   3.823   7.302 -0.9322  0.6945 -2.7290
   93MOL   H20735351   4.446   3.777   7.323 -0.1709  1.7586  1.9282
   93MOL   H20835352   4.225   3.906   7.030 -2.8600  0.1675 -1.3604
   93MOL   H20935353   4.242   3.750   6.943  1.4766 -1.4282  0.0523
   93MOL   H21035354   4.168   3.762   7.100  2.3337 -1.2281  2.2712
   93MOL   C21135355   4.591   3.373   7.018 -0.0263  0.1456 -0.2886
   93MOL   C21235356   4.649   3.234   7.011  0.9032 -0.0078  0.9420
   93MOL   O21335357   4.786   3.247   7.021  0.1431  0.5485 -0.2556
   93MOL   C21435358   4.846   3.263   6.896 -0.3065  0.1424  0.1593
   93MOL   C21535359   4.995   3.300   6.921  0.2654  0.4214 -0.2267
   93MOL   C21635360   5.071   3.295   6.787 -0.6155 -0.1191  0.0477
   93MOL   C21735361   5.017   3.425   7.009 -0.2744  0.2186 -1.0083
   93MOL   H21835362   4.622   3.422   7.110 -0.0809  1.9923 -1.2205
   93MOL   H21935363   4.649   3.433   6.947 -0.2609  1.3860  0.5665
   93MOL   H22035364   4.613   3.184   6.920 -2.7658  0.9228  1.7766
   93MOL   H22135365   4.798   3.333   6.828  0.1364  0.7480  0.4657
   93MOL   H22235366   4.842   3.176   6.830 -0.4846 -0.2831  0.7326
   93MOL   H22335367   5.039   3.219   6.979 -3.5812 -0.4975  1.5923
   93MOL   H22435368   5.176   3.319   6.802 -0.2168 -0.9323 -1.3576
   93MOL   H22535369   5.082   3.196   6.743  1.8497 -0.6026  1.6502
   93MOL   H22635370   5.032   3.368   6.715  1.7648  1.3720  0.2109
   93MOL   H22735371   4.982   3.514   6.957 -2.1650 -1.2435 -2.3072
   93MOL   H22835372   5.123   3.423   7.034 -0.6288 -0.6464  0.4275
   93MOL   H22935373   4.960   3.428   7.101 -1.4274  2.4652 -1.7619
   93MOL   C23035374   4.593   3.134   7.123  0.0420 -0.0389  0.1846
   93MOL   C23135375   4.584   2.991   7.073  0.9223 -0.6048  0.3258
   93MOL   O23235376   4.722   2.958   7.043  0.2703  0.1022  0.1927
   93MOL   C23335377   4.733   2.872   6.933  0.2499 -0.6602  0.4434
   93MOL   C23435378   4.884   2.845   6.932 -0.6031 -0.2523  0.5172
   93MOL   C23535379   4.940   2.814   7.072  0.8993  0.0696 -0.2669
   93MOL   C23635380   4.926   2.738   6.832  0.0650  0.1462 -0.9086
   93MOL   H23735381   4.488   3.159   7.140 -0.5186 -1.8345 -0.5044
   93MOL   H23835382   4.650   3.142   7.216  2.2339 -0.5263 -1.0842
   93MOL   H23935383   4.528   2.984   6.980  1.1248  0.7545  0.1020
   93MOL   H24035384   4.679   2.778   6.947 -1.2087  0.0693 -0.1627
   93MOL   H24135385   4.701   2.916   6.838  0.4303  1.7386  1.4708
   93MOL   H24235386   4.936   2.934   6.899  2.9058 -2.6314 -0.6740
   93MOL   H24335387   4.939   2.902   7.137  2.0064  0.2342 -0.4575
   93MOL   H24435388   5.048   2.798   7.069  0.9180  0.2398 -0.4904
   93MOL   H24535389   4.886   2.732   7.118  1.6743 -0.5239 -0.4139
   93MOL   H24635390   4.877   2.641   6.842 -1.2628  1.0234  1.4846
   93MOL   H24735391   4.896   2.778   6.735 -0.1703  0.6551 -0.6270
   93MOL   H24835392   5.034   2.731   6.823  0.2785  0.1911  1.3708
   93MOL   C24935393   4.514   2.890   7.161 -0.2462  0.2727 -0.0829
   93MOL   C25035394   4.362   2.907   7.175  0.1043  0.8988 -0.5516
   93MOL   O25135395   4.298   2.895   7.050 -0.5618  0.6511 -0.2770
   93MOL   C25235396   4.212   3.006   7.006  0.8361  0.0592  0.5097
   93MOL   C25335397   4.117   2.954   6.897 -0.1048 -0.2335 -0.2371
   93MOL   C25435398   3.996   2.867   6.945  0.1533  0.2311  0.5369
   93MOL   C25535399   4.186   2.888   6.776  0.1583 -0.7875 -0.0906
   93MOL   H25635400   4.553   2.880   7.262  0.0266 -0.9588 -0.2962
   93MOL   H25735401   4.541   2.792   7.122  1.2362  0.5222  0.2753
   93MOL   H25835402   4.337   3.001   7.223  0.5947  0.2066  1.0885
   93MOL   H25935403   4.142   3.043   7.082  0.1527 -1.0741  0.4387
   93MOL   H26035404   4.260   3.092   6.958  3.0525 -1.2074  0.4280
   93MOL   H26135405   4.065   3.043   6.864 -0.3742  0.0332  0.8855
   93MOL   H26235406   3.938   2.830   6.860 -1.3243  0.1023  1.5766
   93MOL   H26335407   3.930   2.921   7.013 -1.0178  0.1176 -0.4782
   93MOL   H26435408   4.028   2.775   6.993  1.6109  0.2269 -0.4070
   93MOL   H26535409   4.243   2.799   6.803  1.3679  0.0409  0.1581
   93MOL   H26635410   4.108   2.862   6.706  0.2933  1.2506 -1.0616
   93MOL   H26735411   4.253   2.946   6.712  1.5602 -1.6756  0.5425
   93MOL   C26835412   4.308   2.784   7.247  0.5812 -0.4064 -0.4603
   93MOL   C26935413   4.293   2.804   7.404 -0.0829  0.0928 -0.4769
   93MOL   O27035414   4.422   2.805   7.457 -0.0590  0.4635  0.1875
   93MOL   C27135415   4.442   2.892   7.565  0.1303 -0.6511  0.4617
   93MOL   C27235416   4.581   2.884   7.627 -0.0858 -0.1059  0.1565
   93MOL   C27335417   4.632   2.740   7.644  0.2003 -0.1432  0.5269
   93MOL   C27435418   4.683   2.957   7.547 -0.4215  1.2321  0.4988
   93MOL   H27535419   4.368   2.695   7.226  0.4982 -0.6501  0.3343
   93MOL   H27635420   4.210   2.765   7.204 -0.2446 -1.7282  1.9168
   93MOL   H27735421   4.239   2.898   7.419  0.7371  0.0764  2.7796
   93MOL   H27835422   4.418   2.992   7.529  2.4428 -1.0507 -2.4198
   93MOL   H27935423   4.369   2.867   7.641 -0.9860  0.4386 -0.2408
   93MOL   H28035424   4.566   2.921   7.728  0.9953  1.6673 -0.3226
   93MOL   H28135425   4.733   2.733   7.684  1.1865  0.1123 -1.8113
   93MOL   H28235426   4.631   2.686   7.549  1.1893 -0.3752  0.6455
   93MOL   H28335427   4.564   2.690   7.713 -0.6305  0.1833 -0.0347
   93MOL   H28435428   4.782   2.962   7.593 -0.6792 -3.4072  1.8304
   93MOL   H28535429   4.663   3.064   7.536 -0.8152  0.9410 -1.8578
   93MOL   H28635430   4.693   2.916   7.447 -1.5351  1.1175  0.4294
   93MOL   C28735431   4.213   2.692   7.473  0.4251 -0.1134 -0.2520
   93MOL   C28835432   4.056   2.706   7.446 -0.1523  0.2135 -0.0820
   93MOL   O28935433   4.020   2.831   7.511  0.2329 -0.1468  0.4051
   93MOL   C29035434   3.947   2.927   7.426  0.0947  0.7830 -0.3332
   93MOL   C29135435   3.946   3.065   7.496 -0.0090  0.2412  0.9920
   93MOL   C29235436   4.082   3.129   7.518  0.6877 -1.2158  0.6395
   93MOL   C29335437   3.869   3.063   7.624  0.0188 -0.5626  0.2036
   93MOL   H29435438   4.233   2.697   7.580  0.5852  0.2176 -0.2960
   93MOL   H29535439   4.247   2.592   7.446  0.8962 -1.1357  3.8392
   93MOL   H29635440   4.034   2.696   7.340 -0.3741 -0.6044  0.0315
   93MOL   H29735441   3.988   2.944   7.326  0.4196  2.7601  0.1233
   93MOL   H29835442   3.843   2.897   7.411  0.1978 -0.3038  1.0170
   93MOL   H29935443   3.895   3.134   7.430 -2.3873 -0.8739  1.6140
   93MOL   H30035444   4.138   3.088   7.603  2.0611 -0.4916  0.1125
   93MOL   H30135445   4.072   3.233   7.549  1.2869 -1.2883  1.1005
   93MOL   H30235446   4.148   3.117   7.432  2.2752 -0.0833  1.6655
   93MOL   H30335447   3.773   3.018   7.598 -1.1192  2.1492 -0.5120
   93MOL   H30435448   3.919   3.004   7.700 -1.0052 -1.6561  0.0377
   93MOL   H30535449   3.851   3.165   7.660  0.9591 -0.2740 -0.1201
   93MOL   C30635450   3.981   2.597   7.525  0.0562 -0.2476 -0.2309
   93MOL   C30735451   3.826   2.584   7.497 -0.2187 -0.2343  0.6812
   93MOL   O30835452   3.799   2.579   7.357 -0.9545  0.0506  0.2325
   93MOL   C30935453   3.671   2.639   7.325  0.8964  0.4728  0.2534
   93MOL   C31035454   3.618   2.629   7.184 -0.0092  0.0696  0.2710
   93MOL   C31135455   3.579   2.488   7.144 -0.1166 -0.4899 -0.0709
   93MOL   C31235456   3.698   2.705   7.074 -0.1966  0.0058 -0.5719
   93MOL   H31335457   3.989   2.614   7.632  1.3862  0.7392 -0.4735
   93MOL   H31435458   4.023   2.499   7.501 -1.1253 -0.8561  0.1487
   93MOL   H31535459   3.769   2.670   7.531 -0.8649  0.4491 -1.9939
   93MOL   H31635460   3.661   2.742   7.360 -0.6018  1.3169 -2.5111
   93MOL   H31735461   3.598   2.591   7.391  1.4131  0.1823  0.6176
   93MOL   H31835462   3.524   2.685   7.186  0.0600  0.3251 -2.5490
   93MOL   H31935463   3.647   2.413   7.183 -1.2694 -1.4114  0.1946
   93MOL   H32035464   3.551   2.471   7.040 -0.4259 -0.5501  0.0204
   93MOL   H32135465   3.490   2.463   7.201 -0.0003  1.0142  0.7835
   93MOL   H32235466   3.654   2.707   6.974 -0.7929 -0.2845 -0.3175
   93MOL   H32335467   3.802   2.671   7.067 -0.1994  0.4084 -3.1603
   93MOL   H32435468   3.712   2.809   7.103  1.3243 -0.3419  0.0235
   93MOL   C32535469   3.761   2.464   7.579 -0.8905  0.1026 -0.4172
   93MOL   C32635470   3.704   2.507   7.717 -0.7349  0.2587  0.0528
   93MOL   O32735471   3.567   2.553   7.708 -0.5569  0.0845 -0.4830
   93MOL   C32835472   3.525   2.673   7.778  0.1343  0.2614 -0.7772
   93MOL   C32935473   3.370   2.691   7.768  0.0461 -0.4390  0.5734
   93MOL   C33035474   3.306   2.555   7.815  0.4295 -0.3613 -0.0802
   93MOL   C33135475   3.327   2.804   0.028  0.1517  0.2092  0.3700
   93MOL   H33235476   3.837   2.388   7.594 -0.2136  0.9182  0.3770
   93MOL   H33335477   3.687   2.417   7.513  0.2934  1.6934 -2.9678
   93MOL   H33435478   3.767   2.581   7.767 -1.7598  1.5535 -0.5204
   93MOL   H33535479   3.558   2.666   0.057 -1.7101 -0.8275 -0.2295
   93MOL   H33635480   3.575   2.760   7.736 -0.1759  0.3180 -1.0341
   93MOL   H33735481   3.341   2.721   7.668 -1.5124 -2.1425  0.4918
   93MOL   H33835482   3.331   2.542   0.095  1.4158  1.0326 -0.1298
   93MOL   H33935483   3.198   2.553   7.804  0.5729  1.9997 -2.4088
   93MOL   H34035484   3.344   2.482   7.743  2.0786  0.2112  0.1802
   93MOL   H34135485   3.338   2.763   0.129  1.1553 -0.6238 -0.0721
   93MOL   H34235486   3.393   2.890   0.017 -0.7086  0.6835 -1.2989
   93MOL   H34335487   3.225   2.831   0.001  0.6053  0.7996 -0.7911
   93MOL   C34435488   3.700   2.386   7.813 -0.0855  0.6214  0.6851
   93MOL   C34535489   3.843   2.350   0.054  0.2210 -0.3047 -0.1447
   93MOL   O34635490   3.907   2.465   0.102 -0.6539  0.4465  0.4741
   93MOL   C34735491   4.050   2.447   0.105  0.1995  0.2752  0.2499
   93MOL   C34835492   4.108   2.575   0.162 -0.5427 -0.7079 -0.0365
   93MOL   C34935493   4.258   2.567   0.184 -0.4314 -0.2189  0.0441
   93MOL   C35035494   4.037   2.609   0.296 -0.2215  0.0212  0.0700
   93MOL   H35135495   3.659   2.293   7.773 -0.7112 -0.1035  2.9296
   93MOL   H35235496   3.633   2.405   0.073 -2.4312 -0.8691 -0.7853
   93MOL   H35335497   3.908   2.292   7.813  2.4922  1.7577  0.2160
   93MOL   H35435498   4.087   2.422   0.005  0.2149 -0.1428  0.3578
   93MOL   H35535499   4.076   2.364   0.170 -0.4924 -0.0076  0.1691
   93MOL   H35635500   4.082   2.658   0.096  0.5219 -1.5906 -1.5883
   93MOL   H35735501   4.310   2.654   0.224  1.0016 -0.4684 -1.2014
   93MOL   H35835502   4.300   2.535   0.088 -2.4030 -1.7284 -0.3652
   93MOL   H35935503   4.278   2.488   0.257  0.8473 -1.0231 -1.1473
   93MOL   H36035504   3.953   2.676   0.277  1.4804  2.8107  2.0209
   93MOL   H36135505   3.998   2.527   0.355  3.2225 -1.4237  0.4561
   93MOL   H36235506   4.109   2.668   0.352  0.7832  1.3877 -2.5674
   93MOL   C36335507   3.831   2.241   0.164  0.2896  0.4763 -0.2203
   93MOL   C36435508   3.758   2.287   0.292  0.0511 -0.0740  0.2624
   93MOL   O36535509   3.766   2.193   0.401  0.0295  0.5277 -0.1623
   93MOL   C36635510   3.694   2.224   0.523 -0.0001  0.4974 -0.3142
   93MOL   C36735511   3.685   2.091   0.602  0.5575 -0.1126  0.5566
   93MOL   C36835512   3.818   2.056   0.661  0.5472 -0.4174  0.2598
   93MOL   C36935513   3.622   1.973   0.531 -0.5965  0.1113 -0.0136
   93MOL   H37035514   3.781   2.150   0.131 -1.1166  1.3124 -0.4241
   93MOL   H37135515   3.933   2.210   0.184 -0.4210 -0.7059  1.7826
   93MOL   H37235516   3.653   2.304   0.269 -0.1058  1.7122  2.1015
   93MOL   H37335517   3.746   2.303   0.577 -0.3752  1.9826 -2.0529
   93MOL   H37435518   3.598   2.266   0.495 -0.6609  1.9386  3.7919
   93MOL   H37535519   3.617   2.091   0.687 -0.4805 -0.4506 -0.2569
   93MOL   H37635520   3.883   2.027   0.578 -0.1608 -0.2046 -0.3767
   93MOL   H37735521   3.816   1.977   0.736 -0.7695 -0.7661 -0.1312
   93MOL   H37835522   3.868   2.142   0.706  0.3078 -0.3006  0.2982
   93MOL   H37935523   3.675   1.958   0.437 -0.4247  0.3641  0.0414
   93MOL   H38035524   3.519   1.991   0.499  0.5155  0.5373 -3.5668
   93MOL   H38135525   3.628   1.888   0.599 -0.0236 -1.5433 -2.0927
   93MOL   H38235526   3.801   2.383   0.322  0.6131 -0.0587 -0.5976
   94MOL     C135527   4.372   3.234   3.626 -0.1036 -0.5897 -0.6700
   94MOL     C235528   4.340   3.085   3.579 -0.0606  0.0355 -0.2457
   94MOL     O335529   4.413   3.062   3.458  0.2167 -0.7408 -0.4907
   94MOL     C435530   4.355   2.986   3.359 -0.1217 -0.0919  0.8558
   94MOL     C535531   4.305   3.071   3.236 -0.6581  0.1328 -0.6336
   94MOL     C635532   4.420   3.140   3.167 -0.7094 -0.6056 -0.3171
   94MOL     C735533   4.196   3.173   3.273 -0.0289  0.0348  0.0282
   94MOL     H835534   4.290   3.260   3.693  0.3261 -0.8944 -0.0077
   94MOL     H935535   4.469   3.251   3.674 -1.6443  0.4889  2.1866
   94MOL    H1035536   4.235   3.075   3.550 -0.8614 -0.1931  2.5905
   94MOL    H1135537   4.283   2.907   3.382  0.1933 -0.5385  0.3135
   94MOL    H1235538   4.437   2.924   3.323 -0.4862  0.2857 -0.6426
   94MOL    H1335539   4.262   2.996   3.170  0.2300 -1.2435  0.3216
   94MOL    H1435540   4.480   3.067   3.113  0.8873  0.5351 -0.1444
   94MOL    H1535541   4.390   3.217   3.096 -0.5327 -0.8140 -0.6237
   94MOL    H1635542   4.488   3.190   3.236 -0.0705 -1.9458  0.0317
   94MOL    H1735543   4.160   3.243   3.197 -0.4959 -0.2119  0.0178
   94MOL    H1835544   4.100   3.136   3.307 -0.1999  0.2194 -0.2479
   94MOL    H1935545   4.235   3.224   3.360 -0.9888  1.0883 -0.1535
   94MOL    H2035546   4.353   3.308   3.549  2.0598 -1.0496 -1.6867
   94MOL    C2135547   4.374   2.985   3.690 -0.5738 -0.0603  0.0958
   94MOL    C2235548   4.309   2.842   3.666  0.6033 -0.1243  0.6610
   94MOL    O2335549   4.341   2.753   3.776  0.0995 -0.7385 -0.1448
   94MOL    C2435550   4.448   2.665   3.743  0.1706 -0.2720  0.4010
   94MOL    C2535551   4.470   2.569   3.853 -0.2031 -0.4738 -0.6710
   94MOL    C2635552   4.528   2.637   3.981 -0.3828  0.5563  0.4835
   94MOL    C2735553   4.340   2.489   3.888 -0.5365  0.1251 -0.4927
   94MOL    H2835554   4.480   2.986   3.714 -0.9070  3.1595  1.6292
   94MOL    H2935555   4.325   3.030   3.776  3.1550  1.4653  1.4963
   94MOL    H3035556   4.345   2.805   3.570  1.0132 -1.5346  1.3375
   94MOL    H3135557   4.538   2.726   3.733 -0.9247  1.2583 -0.4464
   94MOL    H3235558   4.430   2.609   3.652  2.0679  1.1979 -0.9102
   94MOL    H3335559   4.545   2.500   3.815  0.0588  0.7857 -2.5443
   94MOL    H3435560   4.590   2.572   4.043  1.4208  0.7691 -1.0607
   94MOL    H3535561   4.440   2.690   4.016  0.3830  1.8479  0.4973
   94MOL    H3635562   4.597   2.717   3.953 -0.3570 -0.0746 -1.3138
   94MOL    H3735563   4.302   2.431   3.804 -3.4517 -0.1606  0.9519
   94MOL    H3835564   4.353   2.420   3.971  1.3923 -2.0563 -2.5249
   94MOL    H3935565   4.251   2.545   3.916 -1.1130 -1.2890  0.5393
   94MOL    C4035566   4.152   2.850   3.666 -0.1557 -0.2028  0.0987
   94MOL    C4135567   4.077   2.719   3.668  0.7630  0.3372  0.3435
   94MOL    O4235568   4.064   2.654   3.549 -0.1049  0.3152  0.2647
   94MOL    C4335569   4.174   2.574   3.508  0.5017  0.2934  0.0594
   94MOL    C4435570   4.153   2.495   3.379 -0.1997 -0.4216  0.4329
   94MOL    C4535571   4.057   2.375   3.395  0.3424  0.8624 -0.7538
   94MOL    C4635572   4.109   2.584   3.261  0.1850  0.0063  0.0860
   94MOL    H4735573   4.123   2.903   3.575 -0.3491  0.3310  0.4722
   94MOL    H4835574   4.124   2.897   3.760 -0.7116 -0.0458 -0.1430
   94MOL    H4935575   4.129   2.653   3.737  1.3237  1.5833  1.1275
   94MOL    H5035576   4.201   2.499   3.582  1.3124 -0.2882 -0.8137
   94MOL    H5135577   4.264   2.634   3.495  0.6577  0.4019  1.5444
   94MOL    H5235578   4.248   2.447   3.357  0.1244 -0.0292  0.9501
   94MOL    H5335579   4.066   2.310   3.308 -0.5035 -0.0571 -0.1541
   94MOL    H5435580   4.080   2.316   3.484 -3.3178  0.5571  0.0406
   94MOL    H5535581   3.950   2.395   3.404  0.3794  0.5594  0.5017
   94MOL    H5635582   4.158   2.681   3.265 -1.0379  0.6736 -0.6528
   94MOL    H5735583   4.002   2.601   3.267  0.0896 -0.5517  0.0095
   94MOL    H5835584   4.135   2.538   3.165 -2.6801 -1.2331 -0.1385
   94MOL    C5935585   3.931   2.741   3.702 -0.5328 -0.1101  0.4036
   94MOL    C6035586   3.835   2.622   3.740  0.0677  0.0620  0.3862
   94MOL    O6135587   3.874   2.579   3.868 -0.2323  0.1833  0.0929
   94MOL    C6235588   3.768   2.602   3.971 -0.5359  0.1473 -0.3348
   94MOL    C6335589   3.823   2.559   4.110  0.2025 -0.3488 -1.1610
   94MOL    C6435590   3.949   2.630   4.164 -0.2806  0.1764  0.4602
   94MOL    C6535591   3.701   2.576   4.210 -0.1097 -0.1560  0.2957
   94MOL    H6635592   3.887   2.790   3.615  1.6973 -0.9211 -1.2071
   94MOL    H6735593   3.920   2.811   3.785 -0.1829  0.0632  0.3015
   94MOL    H6835594   3.734   2.660   3.753 -0.2478 -0.7294  0.3077
   94MOL    H6935595   3.744   2.708   3.967  0.4893  0.3733 -0.6323
   94MOL    H7035596   3.682   2.542   3.941 -0.9848  1.2919 -1.4294
   94MOL    H7135597   3.851   2.453   4.111 -0.6061 -0.5585  2.0068
   94MOL    H7235598   3.975   2.592   4.262  0.5499 -2.1007 -0.5957
   94MOL    H7335599   3.932   2.736   4.183 -0.1660  0.9287 -3.2250
   94MOL    H7435600   4.031   2.637   4.092  0.4431 -0.0784  1.2650
   94MOL    H7535601   3.628   2.517   4.156 -1.9607  2.8954 -0.6945
   94MOL    H7635602   3.733   2.548   4.310 -0.2327 -0.6924  0.1840
   94MOL    H7735603   3.670   2.681   4.206  0.9368  0.2134  1.6069
   94MOL    C7835604   3.827   2.494   3.642 -0.9727  0.0282  0.7223
   94MOL    C7935605   3.698   2.410   3.648 -0.1325 -0.3199 -0.2657
   94MOL    O8035606   3.692   2.348   3.778 -0.2567 -0.0255  0.4945
   94MOL    C8135607   3.756   2.224   3.799 -0.1806 -0.1523  0.5280
   94MOL    C8235608   3.717   2.175   3.940  0.6148 -0.1498  0.0848
   94MOL    C8335609   3.807   2.059   3.989  0.0830 -0.1484 -0.1275
   94MOL    C8435610   3.573   2.134   3.930 -0.0796  0.1383 -0.0683
   94MOL    H8535611   3.911   2.427   3.661 -0.9658 -0.4524 -0.9472
   94MOL    H8635612   3.837   2.528   3.539  0.6892  0.4361  0.9901
   94MOL    H8735613   3.721   2.329   3.579  0.5295  0.9332 -1.5648
   94MOL    H8835614   3.734   2.146   3.726  2.4514 -3.0076  2.6609
   94MOL    H8935615   3.862   2.247   3.813  0.0763  0.5510 -2.1830
   94MOL    H9035616   3.728   2.259   4.009  0.2457  0.1520 -0.2287
   94MOL    H9135617   3.791   2.045   4.096  0.7688  1.3766  0.1883
   94MOL    H9235618   3.911   2.092   3.993  0.8181 -2.1306 -1.7584
   94MOL    H9335619   3.807   1.963   3.937  1.1737  1.1388 -2.5841
   94MOL    H9435620   3.509   2.222   3.931 -2.7545 -1.7008 -2.4775
   94MOL    H9535621   3.541   2.092   4.025 -1.4135  1.4113  0.0577
   94MOL    H9635622   3.545   2.071   3.846  5.1196 -2.0845 -0.3236
   94MOL    C9735623   3.574   2.480   3.599  0.2546  0.4444  0.0142
   94MOL    C9835624   3.450   2.397   3.580  0.1134 -0.2007  0.1638
   94MOL    O9935625   3.483   2.303   3.484  0.3324  0.3004  0.5151
   94MOL   C10035626   3.456   2.169   3.534 -0.2598 -0.3492 -0.6018
   94MOL   C10135627   3.537   2.080   3.442  0.1835  0.6422 -0.0691
   94MOL   C10235628   3.583   1.948   3.504  0.1601  0.9567  0.4474
   94MOL   C10335629   3.474   2.078   3.298 -0.0562 -0.0837 -0.3742
   94MOL   H10435630   3.603   2.536   3.511  1.6781 -2.2386 -1.2746
   94MOL   H10535631   3.559   2.562   3.670 -0.9392 -0.7721  1.2156
   94MOL   H10635632   3.419   2.362   3.678  0.5741 -0.0581  0.3571
   94MOL   H10735633   3.350   2.142   3.538  0.0151 -1.4076 -0.1760
   94MOL   H10835634   3.494   2.150   3.635 -2.2560 -0.3003  0.1953
   94MOL   H10935635   3.628   2.138   3.431  0.3010  0.7607  1.4001
   94MOL   H11035636   3.494   1.886   3.509 -0.3772  1.6969  0.0135
   94MOL   H11135637   3.657   1.907   3.435 -0.3232 -1.0123  1.0435
   94MOL   H11235638   3.632   1.965   3.600  0.5839  0.8020  0.2634
   94MOL   H11335639   3.537   2.020   3.230 -0.6331 -0.6181 -0.4605
   94MOL   H11435640   3.375   2.033   3.300  0.3571 -0.9992  0.1451
   94MOL   H11535641   3.455   2.180   3.265 -0.7256 -0.1465 -0.1728
   94MOL   C11635642   3.343   2.485   3.507 -0.4726 -0.1597  0.1800
   94MOL   C11735643   3.332   2.632   3.556  0.6790  0.0906  0.1674
   94MOL   O11835644   3.229   2.693   3.482 -0.3588 -0.1416  0.0012
   94MOL   C11935645   3.260   2.756   3.357 -0.2092 -0.2554  0.2255
   94MOL   C12035646   3.136   2.795   3.272  0.1087  0.7690  0.4980
   94MOL   C12135647   3.045   2.896   3.355 -0.3736  0.1316  0.6635
   94MOL   C12235648   3.176   2.858   3.132  0.5588 -0.2980  0.2427
   94MOL   H12335649   3.360   2.483   3.399  0.5219 -1.5164  0.3604
   94MOL   H12435650   3.249   2.434   3.524 -0.1569 -0.4291  1.1633
   94MOL   H12535651   3.424   2.689   3.552  0.4921  0.3722 -0.1573
   94MOL   H12635652   3.312   2.677   3.303 -0.9964  1.8323 -3.7550
   94MOL   H12735653   3.314   2.850   3.368  0.0898 -0.4936  0.8371
   94MOL   H12835654   3.081   2.703   3.254  2.2755 -0.3889 -0.4101
   94MOL   H12935655   2.945   2.912   3.316  0.0901  0.8983 -0.2725
   94MOL   H13035656   3.100   2.989   3.339  0.7885 -0.4125  1.3733
   94MOL   H13135657   3.047   2.873   3.461  0.0312  0.0659  0.6454
   94MOL   H13235658   3.252   2.795   3.086 -2.5734 -2.2171 -2.4887
   94MOL   H13335659   3.091   2.870   3.065  0.7296 -0.9539 -0.0905
   94MOL   H13435660   3.223   2.957   3.138 -1.8034  0.7830  2.0653
   94MOL   C13535661   3.292   2.643   3.709  0.2785 -1.0545  0.9714
   94MOL   C13635662   3.290   2.781   3.774 -0.0743 -0.1485  0.9455
   94MOL   O13735663   3.226   2.773   3.904 -0.3661  0.2925 -0.0649
   94MOL   C13835664   3.091   2.738   3.903 -0.4904  0.1026  0.0340
   94MOL   C13935665   3.021   2.798   4.024 -0.1090  0.5252 -0.1334
   94MOL   C14035666   3.082   2.724   4.143 -0.4716 -0.8961 -0.5903
   94MOL   C14135667   3.039   2.947   4.053  0.3164 -0.0545 -0.4348
   94MOL   H14235668   3.202   2.582   3.708  1.3279 -2.6443 -1.3075
   94MOL   H14335669   3.358   2.584   3.772 -2.3246 -2.7989  2.1397
   94MOL   H14435670   3.241   2.851   3.707 -2.0879 -1.7685  0.6825
   94MOL   H14535671   3.084   2.629   3.893 -0.2230  0.3162 -2.8163
   94MOL   H14635672   3.043   2.775   3.813  0.7062 -0.1041 -0.6951
   94MOL   H14735673   2.918   2.764   4.017 -0.1838 -0.0650  2.9798
   94MOL   H14835674   3.188   2.746   4.151 -0.4547  0.2844 -3.5682
   94MOL   H14935675   3.069   2.620   4.114 -1.2509 -0.7530 -0.7835
   94MOL   H15035676   3.026   2.732   4.237  1.6421 -1.7944  0.7728
   94MOL   H15135677   2.968   2.980   4.129  1.0999 -1.0209  0.7519
   94MOL   H15235678   3.142   2.972   4.080 -1.0518  3.7879  1.5777
   94MOL   H15335679   3.012   3.003   3.964 -0.6741 -1.7443 -1.2200
   94MOL   C15435680   3.438   2.827   3.800  0.1261 -0.0144  0.2784
   94MOL   C15535681   3.443   2.972   3.846 -0.1763 -0.5717  0.3976
   94MOL   O15635682   3.561   2.979   3.934 -0.2921 -1.0869 -0.6710
   94MOL   C15735683   3.546   3.068   4.050 -0.1144 -0.2806 -0.2864
   94MOL   C15835684   3.678   3.092   4.113  0.3582  0.3440 -0.0986
   94MOL   C15935685   3.684   3.232   4.178  0.7049  1.1783  0.2467
   94MOL   C16035686   3.724   2.976   4.201  0.3447 -0.2346 -0.0560
   94MOL   H16135687   3.504   2.804   3.717  1.6144 -2.6843  2.1352
   94MOL   H16235688   3.465   2.757   3.879  0.3854  1.1916  1.2709
   94MOL   H16335689   3.348   3.001   3.891  0.1497 -0.4705  1.0225
   94MOL   H16435690   3.473   3.009   4.107 -1.3845 -0.3978 -1.9946
   94MOL   H16535691   3.497   3.160   4.018 -0.1242  1.1704  3.5737
   94MOL   H16635692   3.753   3.092   4.034  1.1434  0.2050  0.6275
   94MOL   H16735693   3.784   3.257   4.213  0.8418  1.2126 -0.1587
   94MOL   H16835694   3.607   3.227   4.254 -1.1261  0.8535 -1.5739
   94MOL   H16935695   3.658   3.310   4.106  0.8725  0.0104 -1.0959
   94MOL   H17035696   3.821   3.001   4.244 -0.9198  1.3145  2.0175
   94MOL   H17135697   3.657   2.951   4.284 -1.6071  1.9853 -0.9125
   94MOL   H17235698   3.738   2.884   4.143 -1.0184 -0.7805  0.4595
   94MOL   C17335699   3.474   3.068   3.739 -0.0248 -0.0058  0.0432
   94MOL   C17435700   3.358   3.114   3.647  0.6919 -0.0692  0.7651
   94MOL   O17535701   3.241   3.152   3.722 -0.7321 -0.3177  0.0357
   94MOL   C17635702   3.120   3.129   3.649 -0.1169 -0.2230  0.6891
   94MOL   C17735703   3.013   3.219   3.707  0.5231  0.7114  0.4955
   94MOL   C17835704   3.052   3.369   3.680  0.3044 -0.8163 -0.6787
   94MOL   C17935705   2.868   3.179   3.662 -0.3725  0.4034  0.1645
   94MOL   H18035706   3.508   3.157   3.793  0.8327 -0.9981  1.1749
   94MOL   H18135707   3.558   3.036   3.677 -0.0539  0.7132 -0.3731
   94MOL   H18235708   3.331   3.036   3.576 -1.0794  0.4855  0.8017
   94MOL   H18335709   3.094   3.024   3.656  0.7922 -0.5746 -0.7453
   94MOL   H18435710   3.141   3.155   3.544  1.4686 -1.9742  0.5485
   94MOL   H18535711   3.022   3.208   3.815  0.7444  2.2098  0.6382
   94MOL   H18635712   3.039   3.383   3.573 -2.1715  1.5555 -0.1338
   94MOL   H18735713   2.989   3.436   3.739  0.0774 -0.6281 -1.1330
   94MOL   H18835714   3.154   3.392   3.712 -0.5465 -0.1552  1.7037
   94MOL   H18935715   2.856   3.090   3.724  1.5167  0.3345  0.4611
   94MOL   H19035716   2.853   3.155   3.557  1.6494  2.0902 -0.5403
   94MOL   H19135717   2.801   3.256   3.699 -1.5761 -1.1566  1.3291
   94MOL   C19235718   3.398   3.240   3.568  0.1332 -0.1023  0.7222
   94MOL   C19335719   3.497   3.221   3.456  0.0122  0.3081 -0.6935
   94MOL   O19435720   3.590   3.325   3.471  0.8370  0.2813  0.6935
   94MOL   C19535721   3.702   3.313   3.564 -0.5315  0.4282 -0.3099
   94MOL   C19635722   3.814   3.406   3.519 -0.2533 -0.0825  0.6513
   94MOL   C19735723   3.868   3.383   3.382 -0.0055 -0.2413  0.0013
   94MOL   C19835724   3.931   3.401   3.614 -0.1401 -0.0789 -0.1113
   94MOL   H19935725   3.423   3.321   3.636  0.6330  0.3161  0.0532
   94MOL   H20035726   3.311   3.284   3.518 -0.7512  0.5980  2.8386
   94MOL   H20135727   3.558   3.131   3.469  1.6393  1.3417 -0.9597
   94MOL   H20235728   3.736   3.211   3.579  1.3478  1.4163  2.4025
   94MOL   H20335729   3.665   3.338   3.663  1.0820 -1.3605  0.7637
   94MOL   H20435730   3.767   3.504   3.530 -0.1906 -0.2522  2.7446
   94MOL   H20535731   3.904   3.281   3.376  0.4486 -0.2094  1.8683
   94MOL   H20635732   3.793   3.409   3.307 -0.2590  2.8701  1.2501
   94MOL   H20735733   3.950   3.451   3.357 -0.2316  0.8223  2.0610
   94MOL   H20835734   4.000   3.482   3.591  1.2371 -1.1304  0.2478
   94MOL   H20935735   3.914   3.401   3.722  1.6327 -0.8751  0.1793
   94MOL   H21035736   3.999   3.316   3.608  1.2029  0.8653  1.3829
   94MOL   C21135737   3.435   3.223   3.318  0.0662  0.1533 -0.4837
   94MOL   C21235738   3.533   3.180   3.203  0.0911 -1.0297 -0.2349
   94MOL   O21335739   3.588   3.051   3.239 -0.2088  0.2596 -0.5989
   94MOL   C21435740   3.725   3.016   3.216  0.2457  0.0815 -1.4303
   94MOL   C21535741   3.742   2.868   3.247 -0.0200 -0.3472  0.6837
   94MOL   C21635742   3.707   2.835   3.391  0.1602 -0.1178  0.6903
   94MOL   C21735743   3.658   2.787   3.153 -0.7515  0.6070  0.9436
   94MOL   H21835744   3.412   3.329   3.305  0.9402  0.3346 -0.5789
   94MOL   H21935745   3.349   3.157   3.305  1.1052 -1.6311  1.3162
   94MOL   H22035746   3.611   3.255   3.197 -1.9583  1.2510  0.9312
   94MOL   H22135747   3.788   3.068   3.288 -0.2749 -0.4168 -0.6144
   94MOL   H22235748   3.740   3.041   3.111 -0.7892  0.5284 -1.4844
   94MOL   H22335749   3.849   2.851   3.232  0.1019  0.1878  0.8912
   94MOL   H22435750   3.735   2.913   3.461  1.3207 -1.1081  1.3610
   94MOL   H22535751   3.599   2.832   3.402 -0.1121  0.7421 -1.4552
   94MOL   H22635752   3.739   2.735   3.421  0.6028 -1.0977 -2.7686
   94MOL   H22735753   3.693   2.786   3.049 -0.6580  3.1087  0.9252
   94MOL   H22835754   3.559   2.831   3.145 -1.0838 -0.1936  0.5727
   94MOL   H22935755   3.650   2.682   3.183  1.1139  0.2329  0.2149
   94MOL   C23035756   3.469   3.178   3.062  0.1340  0.4953  0.4526
   94MOL   C23135757   3.410   3.311   3.018  0.3215  0.2009 -0.1761
   94MOL   O23235758   3.520   3.400   3.019  0.0801  0.1187 -0.8974
   94MOL   C23335759   3.488   3.526   3.071 -0.5236 -0.5909 -0.5441
   94MOL   C23435760   3.615   3.612   3.057 -1.0262  0.1448  0.2452
   94MOL   C23535761   3.650   3.626   2.905 -0.2746  0.4440  0.1549
   94MOL   C23635762   3.588   3.749   3.126  0.9364  1.1698  0.1201
   94MOL   H23735763   3.396   3.097   3.063 -0.7268  1.2217 -1.5989
   94MOL   H23835764   3.537   3.141   2.986  1.4810 -0.0690  1.8900
   94MOL   H23935765   3.340   3.350   3.092  2.7566  3.2582  0.6164
   94MOL   H24035766   3.398   3.567   3.026 -0.8498 -1.8888 -1.0985
   94MOL   H24135767   3.470   3.524   3.178  0.4744 -0.4491 -0.3712
   94MOL   H24235768   3.699   3.563   3.105 -1.0542  0.5746  0.7253
   94MOL   H24335769   3.683   3.529   2.867 -0.1033  0.2732  0.7389
   94MOL   H24435770   3.737   3.690   2.894  0.3590 -0.8266 -2.7965
   94MOL   H24535771   3.575   3.666   2.837  1.4629  1.1089 -1.4167
   94MOL   H24635772   3.585   3.740   3.234 -0.5193 -0.0677 -0.0097
   94MOL   H24735773   3.660   3.826   3.098 -0.1417  2.1828  0.0735
   94MOL   H24835774   3.490   3.791   3.102  0.4081 -0.0570  0.0912
   94MOL   C24935775   3.341   3.314   2.881 -0.5832  0.1629 -0.1719
   94MOL   C25035776   3.201   3.230   2.883  0.2060 -0.4088  0.5435
   94MOL   O25135777   3.107   3.300   2.958 -0.0695  0.1371  0.0537
   94MOL   C25235778   3.018   3.224   3.037  0.1308 -0.1144  0.1796
   94MOL   C25335779   2.910   3.324   3.074  0.1357 -0.0118 -0.4982
   94MOL   C25435780   2.779   3.261   3.131 -0.6033 -0.2319 -0.3557
   94MOL   C25535781   2.863   3.406   2.959  0.6636 -0.5644 -0.2641
   94MOL   H25635782   3.403   3.278   2.798 -0.9269 -0.2476 -0.2487
   94MOL   H25735783   3.314   3.418   2.863 -0.8548  0.5716  2.5003
   94MOL   H25835784   3.214   3.130   2.924  0.1167 -0.7722 -0.3077
   94MOL   H25935785   2.970   3.141   2.986 -1.7551 -0.1661  1.9757
   94MOL   H26035786   3.064   3.192   3.130  1.4677 -1.2228 -0.8513
   94MOL   H26135787   2.954   3.390   3.149 -1.7825  1.5144 -0.6579
   94MOL   H26235788   2.736   3.201   3.050  0.2058 -1.4796  0.1336
   94MOL   H26335789   2.717   3.342   3.168 -0.5959 -1.7280  3.0570
   94MOL   H26435790   2.779   3.195   3.217 -0.2488  1.0839  0.6658
   94MOL   H26535791   2.832   3.349   2.871 -0.4875 -0.6312  0.1708
   94MOL   H26635792   2.782   3.473   2.989  1.7290 -0.0983  1.6633
   94MOL   H26735793   2.938   3.477   2.923 -1.7932  0.5458 -3.4643
   94MOL   C26835794   3.143   3.225   2.749 -0.0764  0.3550 -0.4251
   94MOL   C26935795   3.199   3.122   2.648  0.2251  0.1649  0.2110
   94MOL   O27035796   3.282   3.033   2.716 -0.0317  0.2209  1.0490
   94MOL   C27135797   3.292   2.902   2.653 -0.7436  0.5584  0.7959
   94MOL   C27235798   3.333   2.808   2.769 -0.1402  0.0224 -0.6190
   94MOL   C27335799   3.292   2.665   2.744  0.1589  0.1198 -0.3660
   94MOL   C27435800   3.479   2.827   2.801  0.4155  0.2864 -0.5425
   94MOL   H27535801   3.149   3.327   2.712  0.1028  0.4614 -0.1096
   94MOL   H27635802   3.037   3.201   2.754  0.0489 -0.2546 -0.6338
   94MOL   H27735803   3.114   3.059   2.620  1.4901 -1.3600 -0.2534
   94MOL   H27835804   3.200   2.877   2.600  0.5365 -3.2418  0.2596
   94MOL   H27935805   3.375   2.896   2.583 -1.2724 -0.2732  0.2354
   94MOL   H28035806   3.261   2.828   2.849 -2.6531 -0.9470 -2.5899
   94MOL   H28135807   3.326   2.638   2.644 -0.4370  2.8485 -1.3490
   94MOL   H28235808   3.184   2.658   2.753 -0.0222  0.0804 -2.2690
   94MOL   H28335809   3.333   2.598   2.819  1.9221  1.2550 -0.2882
   94MOL   H28435810   3.541   2.783   2.723 -0.8100  0.1390 -1.4314
   94MOL   H28535811   3.491   2.767   2.892  1.3257 -3.3279 -2.9468
   94MOL   H28635812   3.524   2.926   2.811 -0.7081  0.8980 -1.5127
   94MOL   C28735813   3.263   3.193   2.525  0.4034 -1.7903  0.2962
   94MOL   C28835814   3.163   3.240   2.413 -0.1345 -0.1093  0.4094
   94MOL   O28935815   3.083   3.137   2.358  0.1117  0.5810  0.0137
   94MOL   C29035816   2.942   3.155   2.390  0.1289  0.6589  0.4136
   94MOL   C29135817   2.854   3.057   2.314  0.0175  0.0272 -0.7061
   94MOL   C29235818   2.708   3.110   2.311  0.5372  0.8889 -0.0055
   94MOL   C29335819   2.855   2.915   2.371 -0.0119  0.4519  0.1206
   94MOL   H29435820   3.327   3.125   2.469  2.1568 -1.1085  1.4262
   94MOL   H29535821   3.324   3.280   2.549 -0.2541 -1.0385 -0.7180
   94MOL   H29635822   3.101   3.322   2.449 -0.2383  0.2714 -0.6148
   94MOL   H29735823   2.932   3.142   2.498  0.5271  0.3284  0.4117
   94MOL   H29835824   2.908   3.255   2.363  0.4312  0.1326 -2.0268
   94MOL   H29935825   2.890   3.070   2.212  0.9609  0.9489 -0.2613
   94MOL   H30035826   2.683   3.113   2.417 -0.8195 -0.4912 -0.2686
   94MOL   H30135827   2.651   3.032   2.261 -0.0528  0.3557  1.4855
   94MOL   H30235828   2.704   3.206   2.259  1.6472  1.4694  0.9473
   94MOL   H30335829   2.804   2.905   2.467  1.4694  2.9290  1.2063
   94MOL   H30435830   2.818   2.841   2.300 -0.5346  0.6127  0.2221
   94MOL   H30535831   2.958   2.882   2.382 -0.8928 -2.2893  0.5577
   94MOL   C30635832   3.245   3.308   2.300 -0.1883  0.8549  0.4625
   94MOL   C30735833   3.178   3.424   2.230  0.3239  0.3326 -0.7347
   94MOL   O30835834   3.158   3.533   2.318 -0.3260 -0.4234 -0.2133
   94MOL   C30935835   3.026   3.587   2.335 -0.2512 -0.1284 -0.0747
   94MOL   C31035836   3.034   3.684   2.454 -0.2086 -0.5613 -0.1000
   94MOL   C31135837   3.140   3.801   2.441  0.1614  0.0879 -0.5630
   94MOL   C31235838   3.068   3.593   2.582 -0.1861 -0.5266  0.4767
   94MOL   H31335839   3.258   3.230   2.224 -1.7105  1.0323 -0.0134
   94MOL   H31435840   3.344   3.343   2.327  0.7272 -0.7417 -0.7337
   94MOL   H31535841   3.078   3.396   2.198  0.2748 -0.1525 -0.1539
   94MOL   H31635842   2.943   3.519   2.352  0.6385 -0.6106  2.6217
   94MOL   H31735843   3.004   3.642   2.244  0.0942 -0.4319 -0.3444
   94MOL   H31835844   2.932   3.721   2.458  0.5625  1.5856  0.4335
   94MOL   H31935845   3.151   3.857   2.534  0.0164 -1.6648  0.5277
   94MOL   H32035846   3.122   3.875   2.363  3.1885  0.2270 -1.2035
   94MOL   H32135847   3.235   3.762   2.404  1.5477  1.4550  1.4434
   94MOL   H32235848   3.029   3.493   2.568  2.0970 -1.3781 -0.0258
   94MOL   H32335849   3.042   3.646   2.673 -1.1242  0.6210 -0.4444
   94MOL   H32435850   3.172   3.564   2.598 -0.2835 -0.8402  0.5425
   94MOL   C32535851   3.239   3.485   2.099  0.3573  0.1802  0.1363
   94MOL   C32635852   3.238   3.384   1.987  0.4757  0.2009  0.4561
   94MOL   O32735853   3.107   3.362   1.932  0.1201 -0.1575 -0.0861
   94MOL   C32835854   3.049   3.235   1.957  0.1704  0.2528 -0.0465
   94MOL   C32935855   2.943   3.216   1.851  0.1127 -0.5238 -0.2561
   94MOL   C33035856   2.993   3.237   1.704  0.3293 -0.1146  0.2216
   94MOL   C33135857   2.887   3.073   1.879  0.2083 -0.1954 -0.0810
   94MOL   H33235858   3.335   3.537   2.107  0.4602  0.1641 -0.9865
   94MOL   H33335859   3.177   3.572   2.079  1.5161  0.1531 -3.9765
   94MOL   H33435860   3.290   3.292   2.013 -0.0624  0.0345  0.9553
   94MOL   H33535861   3.130   3.165   1.937 -0.3387 -0.4339  0.2554
   94MOL   H33635862   3.023   3.233   2.063 -0.6492  0.1911 -0.2485
   94MOL   H33735863   2.871   3.295   1.873  2.4322  1.5464  0.0214
   94MOL   H33835864   3.014   3.342   1.686  1.6408 -0.9291 -3.3638
   94MOL   H33935865   3.091   3.190   1.696  0.0655 -0.5226 -0.5541
   94MOL   H34035866   2.920   3.196   1.635  2.0428 -3.6123  0.3692
   94MOL   H34135867   2.812   3.055   1.956  0.4055 -2.7863 -0.4477
   94MOL   H34235868   2.832   3.043   1.790  0.8827 -1.7109  0.0000
   94MOL   H34335869   2.972   3.008   1.897  2.4609  2.8798  0.9102
   94MOL   C34435870   3.321   3.432   1.861 -0.1984  0.0150 -0.3164
   94MOL   C34535871   3.362   3.321   1.762 -0.0121 -0.3466 -0.0782
   94MOL   O34635872   3.426   3.383   1.648  0.0289  0.4036 -0.0594
   94MOL   C34735873   3.325   3.421   1.553 -0.5868  0.1439  0.0744
   94MOL   C34835874   3.385   3.473   1.419  0.4041 -0.0610 -0.2309
   94MOL   C34935875   3.450   3.355   1.348 -0.3454  0.0522  0.0292
   94MOL   C35035876   3.483   3.596   1.436  0.0397 -0.1766 -0.0338
   94MOL   H35135877   3.415   3.482   1.887  0.4355 -0.8225 -0.9418
   94MOL   H35235878   3.266   3.510   1.807  2.6684  2.1458 -0.3411
   94MOL   H35335879   3.276   3.259   1.736 -0.4316  0.2631 -0.1426
   94MOL   H35435880   3.271   3.508   1.591  1.3224  1.4985 -0.2407
   94MOL   H35535881   3.259   3.338   1.527 -0.0589 -0.2886  0.0995
   94MOL   H35635882   3.317   3.520   1.348 -1.6775 -2.1459  0.3425
   94MOL   H35735883   3.380   3.273   1.329  0.0074 -0.0133 -1.0008
   94MOL   H35835884   3.524   3.302   1.409 -0.1314 -0.0576 -0.3267
   94MOL   H35935885   3.490   3.388   1.252  0.0270 -1.0948 -0.2270
   94MOL   H36035886   3.536   3.625   1.345  1.8830 -1.4534  0.5989
   94MOL   H36135887   3.422   3.680   1.471 -0.9819 -1.6542  1.8396
   94MOL   H36235888   3.546   3.585   1.524 -1.8662 -0.0604  1.3747
   94MOL   C36335889   3.477   3.232   1.818 -0.7088  0.0639 -0.3592
   94MOL   C36435890   3.517   3.117   1.719  0.1515  0.0240  0.0111
   94MOL   O36535891   3.619   3.052   1.795  0.0500  0.4140 -0.1907
   94MOL   C36635892   3.616   2.916   1.777 -0.3408  0.1811 -1.1036
   94MOL   C36735893   3.738   2.849   1.849  0.4544  0.6224 -0.5338
   94MOL   C36835894   3.769   2.704   1.813 -0.3579  0.6307  0.0295
   94MOL   C36935895   3.739   2.880   1.999 -0.0355 -0.0842 -0.4498
   94MOL   H37035896   3.564   3.294   1.835 -0.5456 -0.2298 -0.1339
   94MOL   H37135897   3.454   3.182   1.912  0.4159 -0.7005 -0.4882
   94MOL   H37235898   3.557   3.156   1.626  1.2718 -1.3532 -0.0898
   94MOL   H37335899   3.515   2.881   1.795  0.7475 -2.7799 -0.4176
   94MOL   H37435900   3.639   2.901   1.671  0.0209  0.5982 -1.0829
   94MOL   H37535901   3.825   2.906   1.815  0.5646  1.7619  1.5485
   94MOL   H37635902   3.765   2.691   1.705  0.1611  1.2374 -0.0690
   94MOL   H37735903   3.690   2.644   1.858  0.4343 -1.5268 -1.3742
   94MOL   H37835904   3.873   2.685   1.839 -0.5696  1.5719  1.6923
   94MOL   H37935905   3.650   2.845   2.051 -0.3048  0.4091 -0.5791
   94MOL   H38035906   3.733   2.988   2.013  0.4995 -0.2450  1.2046
   94MOL   H38135907   3.824   2.843   2.057 -1.6321 -0.1464  1.9143
   94MOL   H38235908   3.426   3.058   1.711 -0.4827  1.0010 -0.0808
   95MOL     C135909   6.945   5.323   7.506  0.3692  0.2630  0.2983
   95MOL     C235910   6.921   5.355   7.353 -0.4208  0.1926  0.1489
   95MOL     O335911   6.793   5.416   7.336  0.3239  0.0196  0.3522
   95MOL     C435912   6.685   5.328   7.299 -0.7511  0.0668 -0.7191
   95MOL     C535913   6.557   5.404   7.280 -0.9032 -0.3496 -0.8972
   95MOL     C635914   6.448   5.313   7.224 -0.2155 -0.2591  0.2493
   95MOL     C735915   6.581   5.529   7.196  0.0856 -0.3900 -0.3648
   95MOL     H835916   7.035   5.262   7.520  0.5520  0.8758  1.8015
   95MOL     H935917   6.938   5.411   7.569 -2.4177 -1.2492  2.2136
   95MOL    H1035918   6.933   5.257   7.308  0.5433  0.2138  0.3522
   95MOL    H1135919   6.668   5.258   7.381 -2.2775 -0.3663 -1.3905
   95MOL    H1235920   6.702   5.273   7.207 -1.4305 -1.6902  0.1954
   95MOL    H1335921   6.525   5.452   7.373 -0.6777  0.5333 -1.2693
   95MOL    H1435922   6.351   5.363   7.226  0.0635  0.3056  3.4018
   95MOL    H1535923   6.471   5.293   7.120 -1.2724  0.6837 -0.1790
   95MOL    H1635924   6.425   5.229   7.290  0.0806 -2.1923 -2.0538
   95MOL    H1735925   6.494   5.594   7.191  0.2324 -0.2031 -0.4936
   95MOL    H1835926   6.659   5.582   7.251 -2.8955  0.6011  3.0594
   95MOL    H1935927   6.619   5.505   7.096 -0.2213 -1.2502 -0.2777
   95MOL    H2035928   6.859   5.263   7.536 -0.7477  1.5968 -0.1947
   95MOL    C2135929   7.027   5.456   7.301 -0.3656 -0.2376  0.5443
   95MOL    C2235930   7.068   5.447   7.156  0.1877 -0.7193 -0.0266
   95MOL    O2335931   7.123   5.320   7.126  0.4229  0.1251  0.6254
   95MOL    C2435932   7.255   5.333   7.078 -0.2611  0.3492 -0.2988
   95MOL    C2535933   7.306   5.189   7.072 -0.0778  0.7946  0.2616
   95MOL    C2635934   7.425   5.179   6.984 -0.1970 -0.0932 -0.6301
   95MOL    C2735935   7.334   5.130   7.213  0.6685  0.1428 -0.3269
   95MOL    H2835936   7.000   5.559   7.323 -1.3269 -0.4690  0.4577
   95MOL    H2935937   7.120   5.451   7.359 -0.3219 -1.7931  0.3629
   95MOL    H3035938   7.133   5.534   7.142  1.1250 -1.1044  1.7005
   95MOL    H3135939   7.309   5.380   7.160 -1.7792 -0.0279  0.9514
   95MOL    H3235940   7.264   5.400   6.993 -0.9608  0.8140 -0.0119
   95MOL    H3335941   7.228   5.129   7.024  0.9077  0.0975 -0.4825
   95MOL    H3435942   7.401   5.231   6.891  2.1847  1.0171 -0.6663
   95MOL    H3535943   7.448   5.073   6.984 -0.1595 -0.0835  0.4529
   95MOL    H3635944   7.509   5.231   7.030  0.6117 -0.6909 -1.4033
   95MOL    H3735945   7.382   5.202   7.279  2.5602  1.7249 -3.2945
   95MOL    H3835946   7.234   5.115   7.252  0.3317  0.8191 -0.9179
   95MOL    H3935947   7.395   5.039   7.211  2.0762  1.0489  0.5969
   95MOL    C4035948   6.945   5.459   7.062 -0.1323  0.0603  0.6163
   95MOL    C4135949   6.982   5.466   6.914  0.2430  0.4212 -0.6442
   95MOL    O4235950   7.050   5.588   6.903  0.1884  0.2589  0.0627
   95MOL    C4335951   7.152   5.606   6.804  0.9714 -0.5087  0.8644
   95MOL    C4435952   7.238   5.729   6.847  0.2137  0.2724 -0.5958
   95MOL    C4535953   7.156   5.835   6.919  0.2927  0.2270  0.4704
   95MOL    C4635954   7.355   5.690   6.935 -0.1445 -0.8895 -0.2545
   95MOL    H4735955   6.891   5.549   7.093 -0.4666  0.2835 -0.5923
   95MOL    H4835956   6.882   5.372   7.080  0.2934 -0.4906 -0.5495
   95MOL    H4935957   7.058   5.390   6.902  0.8274  1.0997 -1.2856
   95MOL    H5035958   7.098   5.625   6.711 -1.0723 -0.5515  2.0193
   95MOL    H5135959   7.217   5.520   6.791  0.8990 -0.4536  0.1504
   95MOL    H5235960   7.293   5.776   6.766  0.8979  1.0921  0.3343
   95MOL    H5335961   7.063   5.844   6.862  0.5449 -0.5013 -0.0611
   95MOL    H5435962   7.135   5.790   7.016 -0.5774  2.0836  1.1742
   95MOL    H5535963   7.209   5.930   6.926 -2.3469  1.8091 -0.0168
   95MOL    H5635964   7.317   5.641   7.024 -1.5515  0.6312 -0.0028
   95MOL    H5735965   7.389   5.786   6.974 -0.9792 -1.2738  1.4594
   95MOL    H5835966   7.427   5.627   6.883 -1.1210 -0.2229 -2.4424
   95MOL    C5935967   6.861   5.438   6.825 -0.0824  0.2911 -0.1789
   95MOL    C6035968   6.892   5.393   6.682  0.0033 -0.3637  0.0687
   95MOL    O6135969   6.771   5.345   6.625 -0.3327 -0.0736  0.3409
   95MOL    C6235970   6.691   5.451   6.564 -0.1478  0.2788  0.5265
   95MOL    C6335971   6.570   5.381   6.502  0.6529  0.5174 -0.7626
   95MOL    C6435972   6.469   5.472   6.446  0.7721 -0.7614 -1.0017
   95MOL    C6535973   6.613   5.257   6.407  0.9894 -0.3477 -0.0902
   95MOL    H6635974   6.788   5.519   6.827  1.0534  1.3874 -2.0402
   95MOL    H6735975   6.802   5.358   6.870  0.0735  0.4947  0.3879
   95MOL    H6835976   6.932   5.476   6.624 -2.3107  0.9697  0.3089
   95MOL    H6935977   6.641   5.504   6.645  1.4318  3.3677 -0.4791
   95MOL    H7035978   6.747   5.503   6.486 -1.2563 -1.8881 -1.7821
   95MOL    H7135979   6.532   5.335   6.593 -0.2591 -1.2316 -1.9920
   95MOL    H7235980   6.512   5.531   6.365  2.0445  0.8362  0.7914
   95MOL    H7335981   6.426   5.537   6.523 -1.9732  0.2493 -3.2834
   95MOL    H7435982   6.380   5.413   6.423  0.0968 -0.0142 -0.3629
   95MOL    H7535983   6.696   5.294   6.347  2.0428  0.7455  2.0148
   95MOL    H7635984   6.664   5.180   6.464  1.7127  1.9229  2.4376
   95MOL    H7735985   6.533   5.213   6.347  0.1844  0.6535  0.2346
   95MOL    C7835986   6.994   5.281   6.662 -0.7078 -0.4091  0.1344
   95MOL    C7935987   7.033   5.253   6.512 -0.7694 -0.5345 -0.3227
   95MOL    O8035988   7.106   5.355   6.443  0.5093  0.9644  0.2682
   95MOL    C8135989   7.240   5.369   6.475  0.6789  0.3330  0.2077
   95MOL    C8235990   7.288   5.498   6.397 -0.5478  0.5974 -0.1746
   95MOL    C8335991   7.429   5.491   6.341 -0.0198 -0.6840  1.1855
   95MOL    C8435992   7.254   5.622   6.477  0.1048 -0.1531 -0.0544
   95MOL    H8535993   6.959   5.191   6.712  0.5018 -0.3296  1.1374
   95MOL    H8635994   7.093   5.305   6.699  0.3959 -2.0980 -1.6859
   95MOL    H8735995   6.938   5.266   6.460 -1.1395  1.7873  0.8698
   95MOL    H8835996   7.264   5.383   6.580 -1.0363 -2.7618  1.0774
   95MOL    H8935997   7.303   5.287   6.440  2.2185  1.2116  0.8842
   95MOL    H9035998   7.222   5.504   6.310  1.0367 -0.9142 -1.5324
   95MOL    H9135999   7.509   5.496   6.415  0.9634 -0.6207  0.1411
   95MOL    H9236000   7.448   5.571   6.269 -0.8804 -0.2965  1.3893
   95MOL    H9336001   7.453   5.402   6.283  0.3223  2.2989 -3.4900
   95MOL    H9436002   7.318   5.633   6.565  0.7545  1.2006 -0.6883
   95MOL    H9536003   7.148   5.620   6.502 -0.6301 -0.9971 -3.0108
   95MOL    H9636004   7.253   5.707   6.409  1.7898 -0.3071 -0.3066
   95MOL    C9736005   7.084   5.114   6.485  0.2117 -0.0898 -0.1907
   95MOL    C9836006   7.126   5.081   6.335  0.4181 -0.9221 -0.1016
   95MOL    O9936007   7.022   5.115   6.240  0.2848 -0.5148  0.7952
   95MOL   C10036008   7.047   5.223   6.157 -0.4095  0.1297  0.0134
   95MOL   C10136009   6.937   5.214   6.046 -0.5915  0.3504 -0.3853
   95MOL   C10236010   6.957   5.331   5.942 -0.2532 -0.5600 -0.0510
   95MOL   C10336011   6.937   5.078   5.975 -0.0124 -0.5667  0.8235
   95MOL   H10436012   7.003   5.046   6.509  0.4414 -0.2443  0.1508
   95MOL   H10536013   7.173   5.096   6.545  0.7746  1.0144 -0.6904
   95MOL   H10636014   7.221   5.128   6.307 -0.1535  0.3499  0.0714
   95MOL   H10736015   7.148   5.213   6.118  0.1545  1.2596  1.1633
   95MOL   H10836016   7.041   5.319   6.209 -1.1072 -0.3708  0.8825
   95MOL   H10936017   6.840   5.217   6.097 -0.6537 -3.4950 -0.1522
   95MOL   H11036018   6.867   5.332   5.880  0.8796 -0.9291 -1.7341
   95MOL   H11136019   6.988   5.420   5.997  0.8281 -1.1719  0.3408
   95MOL   H11236020   7.041   5.308   5.876  0.2636  0.2509  0.3212
   95MOL   H11336021   6.911   5.004   6.051 -2.9742  1.4187  1.8644
   95MOL   H11436022   6.857   5.068   5.901 -0.7807 -0.5912  1.6455
   95MOL   H11536023   7.027   5.064   5.916  1.0004 -3.2554  2.9202
   95MOL   C11636024   7.141   4.932   6.321  0.0033  0.2763  0.2515
   95MOL   C11736025   7.202   4.876   6.186  0.4575  0.2114  0.0082
   95MOL   O11836026   7.329   4.909   6.195  0.5815 -0.0959 -0.3592
   95MOL   C11936027   7.397   4.898   6.072 -0.0291 -0.1375 -0.7401
   95MOL   C12036028   7.505   5.004   6.065  0.3821  0.3380  0.0965
   95MOL   C12136029   7.465   5.149   6.067 -0.1385  0.0419  0.4654
   95MOL   C12236030   7.618   4.967   6.163  0.3336  0.0916  0.4116
   95MOL   H12336031   7.205   4.893   6.400 -1.0261  0.7083  1.3157
   95MOL   H12436032   7.038   4.899   6.332 -0.3053  1.4673  1.1022
   95MOL   H12536033   7.147   4.920   6.103 -0.5391  0.7537  0.9403
   95MOL   H12636034   7.330   4.929   5.992  0.1713 -2.4005 -1.8397
   95MOL   H12736035   7.427   4.795   6.056 -0.5859 -0.6434  1.2852
   95MOL   H12836036   7.539   4.996   5.962 -1.2535 -2.4898 -0.2978
   95MOL   H12936037   7.413   5.155   6.162 -0.0115  1.0985  0.4738
   95MOL   H13036038   7.386   5.182   5.999 -0.9959 -2.1987  0.3447
   95MOL   H13136039   7.551   5.216   6.060  0.7542 -0.9678  1.6608
   95MOL   H13236040   7.616   4.875   6.221 -1.4816  1.5974  2.8068
   95MOL   H13336041   7.710   4.956   6.104 -0.4314 -2.6498 -0.3202
   95MOL   H13436042   7.630   5.032   6.249 -2.9704 -0.6052  1.4670
   95MOL   C13536043   7.193   4.721   6.180 -0.4490 -0.2882  0.2098
   95MOL   C13636044   7.049   4.664   6.160  0.4034 -0.8751 -0.3479
   95MOL   O13736045   7.031   4.584   6.045  0.5321  0.1090 -0.2239
   95MOL   C13836046   6.984   4.643   5.929 -0.0864  0.4246 -0.3802
   95MOL   C13936047   7.032   4.554   5.810 -0.0702  0.6767 -0.1381
   95MOL   C14036048   7.183   4.564   5.792 -0.0602  0.4515  0.4608
   95MOL   C14136049   6.975   4.411   5.820  0.5063 -0.1020 -0.6422
   95MOL   H14236050   7.242   4.682   6.091  1.1997  0.1286  0.9244
   95MOL   H14336051   7.242   4.674   6.265  1.1127  0.2420 -0.3962
   95MOL   H14436052   6.979   4.747   6.173 -0.6662 -1.6668 -1.0026
   95MOL   H14536053   7.027   4.743   5.926  1.1907 -0.0476  1.3285
   95MOL   H14636054   6.878   4.669   5.931 -0.0369  0.5815  3.6624
   95MOL   H14736055   6.989   4.600   5.721 -0.4940 -0.0312 -0.3029
   95MOL   H14836056   7.195   4.524   5.691 -0.0723  0.4668  0.4533
   95MOL   H14936057   7.239   4.508   5.868 -0.6859 -1.0798 -0.1776
   95MOL   H15036058   7.218   4.667   5.800  0.3109  0.1176  4.0847
   95MOL   H15136059   7.004   4.355   5.731 -1.4164  0.4211 -1.6261
   95MOL   H15236060   7.008   4.352   5.906  0.0466 -0.9412 -1.0346
   95MOL   H15336061   6.866   4.422   5.829  0.7161  0.5563  1.3926
   95MOL   C15436062   7.027   4.553   6.272 -0.7395  0.5116  0.0281
   95MOL   C15536063   7.013   4.593   6.413  0.3843 -0.8447  0.3162
   95MOL   O15636064   6.885   4.659   6.398  0.0846 -0.7672  0.0170
   95MOL   C15736065   6.837   4.740   6.512 -0.0008  0.5621  0.3300
   95MOL   C15836066   6.707   4.810   6.479 -0.5965  0.5720 -0.8751
   95MOL   C15936067   6.639   4.886   6.598  0.7413 -0.2445  0.0644
   95MOL   C16036068   6.704   4.905   6.353  0.4630 -0.0410  0.0770
   95MOL   H16136069   7.120   4.496   6.264 -0.4739  1.1173 -1.3072
   95MOL   H16236070   6.949   4.486   6.235  0.6140 -2.9732  3.1803
   95MOL   H16336071   7.079   4.675   6.440  2.0591 -2.4467  1.2508
   95MOL   H16436072   6.913   4.813   6.540  0.9195 -0.6647  1.1194
   95MOL   H16536073   6.831   4.673   6.598  2.6055 -1.5912 -1.0643
   95MOL   H16636074   6.653   4.717   6.461 -2.6498  0.6848  3.8949
   95MOL   H16736075   6.632   4.825   6.688  3.3037 -0.2845  0.2711
   95MOL   H16836076   6.542   4.927   6.570  1.1375  0.4245 -0.3495
   95MOL   H16936077   6.693   4.976   6.627 -1.1902  0.3454  1.9469
   95MOL   H17036078   6.778   4.983   6.367 -0.9313  1.0781  1.3985
   95MOL   H17136079   6.718   4.844   6.264 -1.5092 -0.1109 -0.2030
   95MOL   H17236080   6.609   4.956   6.337  1.4581  1.4732 -0.9914
   95MOL   C17336081   7.010   4.472   6.509  0.3828 -0.4448  0.3624
   95MOL   C17436082   7.156   4.424   6.544  0.2015 -0.2912 -0.1514
   95MOL   O17536083   7.223   4.534   6.599  0.4286  0.3397 -0.2645
   95MOL   C17636084   7.342   4.562   6.534 -0.6066 -0.3026  0.3434
   95MOL   C17736085   7.401   4.696   6.577 -0.1285 -0.3087  0.0475
   95MOL   C17836086   7.421   4.712   6.727 -0.1876  0.2159  0.1763
   95MOL   C17936087   7.521   4.736   6.490 -0.7624 -0.2305  0.3944
   95MOL   H18036088   6.969   4.512   6.601 -1.1340 -1.4606  0.1447
   95MOL   H18136089   6.933   4.396   6.495  1.3442 -1.2908 -0.4588
   95MOL   H18236090   7.208   4.390   6.454 -0.7215 -2.9272  0.2669
   95MOL   H18336091   7.321   4.573   6.427  0.5516 -0.3812  0.0957
   95MOL   H18436092   7.421   4.487   6.539  1.7907  2.0834 -0.0069
   95MOL   H18536093   7.313   4.758   6.559 -1.1124 -1.8102 -0.3689
   95MOL   H18636094   7.442   4.815   6.752 -0.5166  0.0198  1.2592
   95MOL   H18736095   7.332   4.695   6.787 -0.8131  1.5800 -0.3491
   95MOL   H18836096   7.509   4.658   6.761  0.5357  1.9472  1.0719
   95MOL   H18936097   7.489   4.722   6.388 -0.9664  0.9129  0.2944
   95MOL   H19036098   7.597   4.662   6.514 -1.6046 -1.2594 -0.0926
   95MOL   H19136099   7.552   4.841   6.501  0.5823 -0.5643 -0.1068
   95MOL   C19236100   7.169   4.315   6.654  0.2203 -0.6652 -0.5956
   95MOL   C19336101   7.104   4.178   6.612  0.2151  0.4522 -1.2016
   95MOL   O19436102   7.095   4.115   6.740  0.1023  0.4707 -0.4061
   95MOL   C19536103   6.959   4.089   6.783  0.1269  0.0883 -0.9825
   95MOL   C19636104   6.955   4.017   6.918  0.2593  0.2094 -0.2333
   95MOL   C19736105   6.983   4.107   7.039  0.2690  0.0455 -0.3257
   95MOL   C19836106   7.044   3.890   6.929 -0.4163  0.1356 -0.0866
   95MOL   H19936107   7.109   4.349   6.739 -0.5060  0.9686 -1.7347
   95MOL   H20036108   7.269   4.304   6.695  0.2866  0.3799 -0.4645
   95MOL   H20136109   7.006   4.180   6.566  0.7987 -1.1460 -2.5664
   95MOL   H20236110   6.907   4.033   6.705 -3.3175 -0.1968  1.4433
   95MOL   H20336111   6.912   4.186   6.802 -1.4299 -1.1077  1.4025
   95MOL   H20436112   6.853   3.979   6.927 -0.2969  2.1014  2.1614
   95MOL   H20536113   6.900   4.174   7.058 -0.1272 -0.6370  0.3768
   95MOL   H20636114   6.989   4.046   7.129  1.1637  0.2869 -0.2265
   95MOL   H20736115   7.070   4.171   7.023  1.1730 -0.8383  0.9986
   95MOL   H20836116   7.009   3.815   6.858 -1.1997  2.1581 -1.9239
   95MOL   H20936117   7.144   3.921   6.901 -0.0648 -1.0706 -0.1776
   95MOL   H21036118   7.049   3.846   7.028 -0.7892 -2.1683 -1.0555
   95MOL   C21136119   7.192   4.091   6.514 -0.1172  0.2312  0.3431
   95MOL   C21236120   7.155   3.938   6.502  0.1251  0.0262  0.6582
   95MOL   O21336121   7.013   3.934   6.467  0.3413 -0.1767 -0.1724
   95MOL   C21436122   6.955   3.818   6.508  0.1717 -0.6294  0.0721
   95MOL   C21536123   6.812   3.800   6.460  0.3007 -0.4173  0.1654
   95MOL   C21636124   6.768   3.653   6.473 -0.7986 -0.4389 -0.9015
   95MOL   C21736125   6.722   3.902   6.530  0.4130 -0.4940  0.2881
   95MOL   H21836126   7.297   4.098   6.541  0.1645 -0.1562 -0.6500
   95MOL   H21936127   7.179   4.146   6.421  0.6482  1.4150  0.9302
   95MOL   H22036128   7.179   3.896   6.599 -0.9990  0.6998  1.2438
   95MOL   H22136129   6.960   3.808   6.617 -1.0734  0.6415  0.2626
   95MOL   H22236130   7.006   3.730   6.469  0.6825 -0.3810  0.1855
   95MOL   H22336131   6.803   3.824   6.355 -1.8523 -1.7932 -0.0077
   95MOL   H22436132   6.782   3.614   6.574 -2.0700  2.2775  0.3865
   95MOL   H22536133   6.662   3.629   6.460 -1.1668 -1.0385  2.6460
   95MOL   H22636134   6.825   3.597   6.399 -1.3467 -1.4578 -0.5604
   95MOL   H22736135   6.746   4.002   6.494 -0.1416  0.1934  1.7779
   95MOL   H22836136   6.743   3.893   6.637 -2.5266 -1.3886  0.8477
   95MOL   H22936137   6.615   3.889   6.510  0.5059 -1.0147  0.1191
   95MOL   C23036138   7.229   3.869   6.385  0.1982  0.2413 -0.2543
   95MOL   C23136139   7.378   3.843   6.399  0.2255 -1.6863 -0.0582
   95MOL   O23236140   7.410   3.771   6.517  0.4108 -0.0114  0.0465
   95MOL   C23336141   7.508   3.834   6.598  0.0423  0.1047  0.7200
   95MOL   C23436142   7.555   3.730   6.707 -1.1682  0.0485  0.1091
   95MOL   C23536143   7.640   3.616   6.656 -0.3937  0.8689 -0.2806
   95MOL   C23636144   7.626   3.804   6.818 -0.1539 -0.1037  0.2578
   95MOL   H23736145   7.219   3.931   6.296  0.6191  2.0566  0.9365
   95MOL   H23836146   7.182   3.774   6.358  1.4388 -0.0340 -1.5303
   95MOL   H23936147   7.429   3.939   6.402 -1.5092 -0.7393  0.1119
   95MOL   H24036148   7.589   3.877   6.538  0.8460 -1.9428  0.2828
   95MOL   H24136149   7.454   3.920   6.638  1.4513  2.3191 -1.9475
   95MOL   H24236150   7.470   3.677   6.749  0.3150 -1.1574  1.6689
   95MOL   H24336151   7.590   3.573   6.570  0.5764  1.0539 -0.9431
   95MOL   H24436152   7.658   3.535   6.727  1.0019 -0.1136 -1.7260
   95MOL   H24536153   7.740   3.650   6.628  0.5053 -0.3454  1.3296
   95MOL   H24636154   7.685   3.877   6.761 -0.6275  0.5194  0.5603
   95MOL   H24736155   7.550   3.851   6.879 -0.8372  0.5451 -1.0771
   95MOL   H24836156   7.686   3.739   6.881  1.0154  1.9208  1.2924
   95MOL   C24936157   7.435   3.756   6.287  0.5307  0.0584 -0.6033
   95MOL   C25036158   7.583   3.760   6.249  0.0820  0.2576 -0.6221
   95MOL   O25136159   7.617   3.631   6.194  0.1917 -0.6440  0.1199
   95MOL   C25236160   7.745   3.577   6.223  0.2733 -0.1326 -0.2508
   95MOL   C25336161   7.773   3.443   6.152  0.0268  0.1582 -0.3674
   95MOL   C25436162   0.026   3.351   6.250  0.0087  1.0605  0.4833
   95MOL   C25536163   0.019   3.459   6.014  0.1552 -0.3806 -0.6318
   95MOL   H25636164   7.371   3.760   6.199 -0.1162  1.4262 -0.0652
   95MOL   H25736165   7.412   3.652   6.312 -0.7637  0.8756  1.7032
   95MOL   H25836166   7.640   3.770   6.341  2.3484  2.2124 -2.1813
   95MOL   H25936167   7.823   3.651   6.203 -0.6235  0.8279 -0.1937
   95MOL   H26036168   7.748   3.570   6.332 -0.5736  1.6766 -0.0953
   95MOL   H26136169   7.679   3.391   6.130 -0.1429  0.1822  0.2959
   95MOL   H26236170   0.034   3.252   6.204  1.0040  1.5800 -0.4839
   95MOL   H26336171   7.798   3.346   6.346  2.0932  0.5146  1.6213
   95MOL   H26436172   0.123   3.386   6.284  0.3801  1.2378 -0.7306
   95MOL   H26536173   0.128   3.467   6.014  0.2428 -1.5112  0.6387
   95MOL   H26636174   7.813   3.385   5.939 -0.2846 -0.8744  0.0263
   95MOL   H26736175   7.814   3.551   5.964  1.3924  0.5490  0.3241
   95MOL   C26836176   7.619   3.867   6.148 -0.1292 -0.2180 -0.1409
   95MOL   C26936177   7.627   4.014   6.197 -0.0042  0.4389 -0.6844
   95MOL   O27036178   7.485   4.051   6.208 -0.1714  0.1923 -0.0628
   95MOL   C27136179   7.462   4.187   6.252 -0.5426  0.2671  0.1907
   95MOL   C27236180   7.429   4.275   6.139  1.1742  0.2939  0.0069
   95MOL   C27336181   7.290   4.250   6.070 -1.3517 -0.1190  0.0676
   95MOL   C27436182   7.452   4.428   6.184  0.1267  0.6383  0.0728
   95MOL   H27536183   7.537   3.871   6.076 -1.0333 -0.7590  0.8331
   95MOL   H27636184   7.709   3.838   6.095  1.7067  1.9807  1.6846
   95MOL   H27736185   7.686   4.030   6.288 -0.1282  0.2425 -0.5705
   95MOL   H27836186   7.381   4.198   6.324  0.0330 -0.0265  0.9037
   95MOL   H27936187   7.544   4.200   6.324 -0.5400 -1.3512  0.5045
   95MOL   H28036188   7.494   4.248   6.056 -0.5431 -0.9687 -0.9551
   95MOL   H28136189   7.276   4.308   5.979 -1.7859 -1.3921 -0.6868
   95MOL   H28236190   7.206   4.283   6.132 -1.0362  0.2535  0.3036
   95MOL   H28336191   7.274   4.147   6.041 -1.3548  0.4083 -1.8359
   95MOL   H28436192   7.411   4.451   6.282 -0.4640 -1.1250  0.2439
   95MOL   H28536193   7.391   4.490   6.118 -0.4948  2.3654  2.2134
   95MOL   H28636194   7.557   4.459   6.184  0.0702  0.8382  0.8189
   95MOL   C28736195   7.710   4.090   6.098  0.1694 -0.5821 -1.1576
   95MOL   C28836196   0.038   4.057   6.098 -0.1724  0.0836  0.4503
   95MOL   O28936197   0.098   4.069   6.227  0.5522 -0.2968  0.7172
   95MOL   C29036198   0.151   3.952   6.279  0.1350 -0.4926  0.0385
   95MOL   C29136199   0.190   3.971   6.431 -0.7336  0.0044  0.2679
   95MOL   C29236200   0.255   3.845   6.480 -0.1250  0.9928  0.4688
   95MOL   C29336201   0.067   4.016   6.521 -0.1393  0.8174  0.7370
   95MOL   H29436202   7.701   4.194   6.129 -1.0660 -0.8097 -0.7090
   95MOL   H29536203   7.669   4.092   5.997  1.1475  0.0792 -1.5560
   95MOL   H29636204   0.058   3.955   6.063 -3.1998 -0.6953  0.8283
   95MOL   H29736205   0.075   3.874   6.275 -0.1578 -0.2359  0.5642
   95MOL   H29836206   0.238   3.923   6.219 -0.2458 -0.9249 -0.3050
   95MOL   H29936207   0.266   4.048   6.437 -0.7074  0.0022 -0.0223
   95MOL   H30036208   0.185   3.762   6.478  1.5830 -0.4605 -0.3986
   95MOL   H30136209   0.303   3.857   6.578 -0.6498  4.2168  0.3853
   95MOL   H30236210   0.342   3.810   6.423 -0.3129 -0.6472  1.1603
   95MOL   H30336211   0.013   3.933   6.568 -1.1815  0.8476 -0.3890
   95MOL   H30436212   0.112   4.076   6.600 -0.0245  0.2626  1.1030
   95MOL   H30536213   7.822   4.071   6.457 -0.9771 -0.6549  0.3491
   95MOL   C30636214   0.118   4.155   6.012 -0.6638 -0.5012  0.4460
   95MOL   C30736215   0.271   4.123   5.993  0.1484  0.1845 -0.0104
   95MOL   O30836216   0.276   3.990   5.937 -0.1007 -0.1661  0.6821
   95MOL   C30936217   0.382   3.905   5.972  0.3648 -0.3265 -0.5584
   95MOL   C31036218   0.366   3.767   5.925 -0.1572 -0.0316 -0.4482
   95MOL   C31136219   0.471   3.680   5.999  0.0296 -0.1263 -0.3665
   95MOL   C31236220   0.379   3.763   5.772 -0.5436  0.5517  0.7503
   95MOL   H31336221   0.113   4.256   6.054  1.4760  0.0383 -0.5261
   95MOL   H31436222   0.079   4.150   5.910  0.5036  0.6491 -0.0679
   95MOL   H31536223   0.330   4.123   6.085  0.2042 -1.4101 -0.0324
   95MOL   H31636224   0.389   3.910   6.081 -0.0071 -2.1283 -0.4309
   95MOL   H31736225   0.482   3.943   5.952 -0.3019  0.4889 -2.4307
   95MOL   H31836226   0.268   3.729   5.952  0.8075 -3.3911 -1.4609
   95MOL   H31936227   0.486   3.697   6.106  0.7442 -2.3229 -0.1005
   95MOL   H32036228   0.566   3.698   5.949  1.5447 -0.2510  2.3942
   95MOL   H32136229   0.438   3.577   5.987 -0.7721  0.2000 -1.0615
   95MOL   H32236230   0.409   3.668   5.728  0.8693  1.7483 -0.9424
   95MOL   H32336231   0.447   3.835   5.726 -0.3911  0.1189  0.2963
   95MOL   H32436232   0.280   3.781   5.731 -0.5388  4.1395  2.1978
   95MOL   C32536233   0.343   4.213   5.895  0.0586 -0.0155  0.1259
   95MOL   C32636234   0.368   4.352   5.953 -0.3951  0.5881 -0.7502
   95MOL   O32736235   0.471   4.331   6.063 -0.5878  0.0242  0.2152
   95MOL   C32836236   0.480   4.440   6.158 -0.3741  0.3887 -0.1422
   95MOL   C32936237   0.615   4.436   6.226 -0.1096  0.2703  0.1251
   95MOL   C33036238   0.643   4.298   6.284 -0.1616 -0.0251  0.3189
   95MOL   C33136239   0.717   4.483   6.128  0.0515  0.5706  0.6194
   95MOL   H33236240   0.289   4.224   5.801  0.4974  1.5565  0.0419
   95MOL   H33336241   0.441   4.172   5.875  0.0228  0.0257 -0.1351
   95MOL   H33436242   0.277   4.394   5.997 -0.1940 -2.4710  2.7882
   95MOL   H33536243   0.470   4.543   6.121 -3.6199  1.1076  2.4386
   95MOL   H33636244   0.397   4.424   6.227 -1.7637 -0.4119 -1.9236
   95MOL   H33736245   0.615   4.506   6.310 -1.6623  0.3739  0.0689
   95MOL   H33836246   0.564   4.254   6.345 -0.4690 -0.2374 -0.2285
   95MOL   H33936247   0.637   4.234   6.196  0.4817 -0.7332  0.7745
   95MOL   H34036248   0.742   4.274   6.324 -0.4511  1.6159  2.1085
   95MOL   H34136249   0.815   4.487   6.176 -0.2383  1.6203  1.1461
   95MOL   H34236250   0.735   4.440   6.030 -1.5864 -0.5421  0.7910
   95MOL   H34336251   0.685   4.584   6.102  0.4707  0.6165  0.2635
   95MOL   C34436252   0.428   4.442   5.843  0.5030 -0.7255 -0.4048
   95MOL   C34536253   0.325   4.502   5.739 -0.5252  0.0506 -0.0825
   95MOL   O34636254   0.308   4.639   5.778 -0.1936  0.1060 -0.2756
   95MOL   C34736255   0.177   4.682   5.800  0.0808 -0.4247  0.7558
   95MOL   C34836256   0.170   4.839   5.815  0.7262 -0.8246 -0.3716
   95MOL   C34936257   0.019   4.858   5.843 -0.5752  0.1032  0.2622
   95MOL   C35036258   0.217   4.908   5.689  0.0056  0.7619 -0.0742
   95MOL   H35136259   0.514   4.398   5.791 -0.4235 -1.0058 -1.7241
   95MOL   H35236260   0.475   4.525   5.895 -1.1657 -0.0589  0.0637
   95MOL   H35336261   0.233   4.444   5.745  0.1102 -1.0809 -1.1349
   95MOL   H35436262   0.155   4.635   5.896 -0.3427 -0.1375  0.7982
   95MOL   H35536263   0.118   4.647   5.715  0.5979 -0.8282  0.5568
   95MOL   H35636264   0.224   4.862   5.907  0.2764 -3.2074  0.5381
   95MOL   H35736265   7.809   4.826   5.941 -3.2382 -0.8202 -0.9371
   95MOL   H35836266   7.783   4.804   5.770 -1.5109 -0.6538  1.5724
   95MOL   H35936267   7.806   4.960   5.836  0.9115  0.6683  0.3061
   95MOL   H36036268   0.141   4.890   5.613 -1.0677 -0.6624  1.2952
   95MOL   H36136269   0.213   5.016   5.701  1.3395  0.8789 -0.5654
   95MOL   H36236270   0.312   4.881   5.643  0.9729  1.3034  1.5966
   95MOL   C36336271   0.381   4.488   5.598  0.0317  0.5190  0.1328
   95MOL   C36436272   0.293   4.550   5.489 -0.4476 -0.0689  0.1454
   95MOL   O36536273   0.352   4.541   5.358  0.2343 -0.1871 -0.6283
   95MOL   C36636274   0.348   4.413   5.295  0.0616 -0.0884 -0.3109
   95MOL   C36736275   0.260   4.431   5.171  0.0390 -0.1393  0.2394
   95MOL   C36836276   0.119   4.469   5.204  0.1194 -0.3714  0.9392
   95MOL   C36936277   0.262   4.311   5.074  0.4949  0.0088  0.1721
   95MOL   H37036278   0.482   4.526   5.590 -0.3665  1.8179  1.1540
   95MOL   H37136279   0.393   4.381   5.580  0.1824  0.1696  2.1656
   95MOL   H37236280   0.280   4.655   5.515 -1.6516  0.0791 -1.0382
   95MOL   H37336281   0.449   4.380   5.272 -0.0364  0.7645 -2.0221
   95MOL   H37436282   0.307   4.328   5.350 -0.3615 -0.0258 -0.5224
   95MOL   H37536283   0.304   4.512   5.112  1.1370 -0.7366  0.2342
   95MOL   H37636284   0.114   4.562   5.261 -0.2854  1.3246 -1.7486
   95MOL   H37736285   0.066   4.397   5.266  2.7508 -1.4004  2.0368
   95MOL   H37836286   0.064   4.503   5.116  0.6717 -0.4876  0.5482
   95MOL   H37936287   0.201   4.321   4.984  1.2642 -1.4286 -0.5304
   95MOL   H38036288   0.236   4.218   5.124  1.5481  0.5569  1.7459
   95MOL   H38136289   0.353   4.291   5.018  0.1177 -3.5414  0.7413
   95MOL   H38236290   0.196   4.501   5.490  0.0803 -1.2087 -1.6400
   96MOL     C136291   7.537   7.321   2.991  0.2710 -0.0237 -0.0879
   96MOL     C236292   7.445   7.246   2.907  0.2935 -0.9081 -0.6599
   96MOL     O336293   7.348   7.333   2.851 -0.2408  0.1572 -0.0197
   96MOL     C436294   7.218   7.293   2.895 -0.0238  0.3554  0.2573
   96MOL     C536295   7.104   7.384   2.863  0.1827 -0.3852  0.1171
   96MOL     C636296   7.074   7.399   2.714 -0.2570 -0.1763  0.1878
   96MOL     C736297   7.135   7.521   2.932  0.4722 -0.0178  0.1946
   96MOL     H836298   7.490   7.388   3.062 -0.4806  1.3473 -1.8540
   96MOL     H936299   7.608   7.246   3.026  0.2141 -0.1443 -0.2289
   96MOL    H1036300   7.395   7.166   2.962 -0.0137  0.2026  0.6955
   96MOL    H1136301   7.218   7.267   3.001 -0.0605  0.4405  0.2787
   96MOL    H1236302   7.194   7.193   2.858 -1.2735  0.1769  1.4999
   96MOL    H1336303   7.018   7.334   2.907 -0.3239 -0.4105 -0.8867
   96MOL    H1436304   7.145   7.449   2.648 -1.1211  4.2501  2.4120
   96MOL    H1536305   7.048   7.304   2.670 -2.8748 -0.1744  1.6234
   96MOL    H1636306   6.980   7.452   2.702  0.1756  0.8557  1.2320
   96MOL    H1736307   7.182   7.505   3.030 -2.2921 -2.5054  1.1984
   96MOL    H1836308   7.190   7.589   2.866  0.3534  0.7123  0.8391
   96MOL    H1936309   7.045   7.577   2.955 -0.5474 -2.2862  1.9928
   96MOL    H2036310   7.590   7.385   2.920 -1.1467 -0.6407 -1.7364
   96MOL    C2136311   7.512   7.187   2.784 -0.2185 -0.1084 -0.4125
   96MOL    C2236312   7.423   7.106   2.687 -0.0253  0.0526 -0.9197
   96MOL    O2336313   7.482   7.059   2.566  0.0004  0.5279 -0.3479
   96MOL    C2436314   7.526   7.156   2.476  0.3956  0.4040  0.0882
   96MOL    C2536315   7.584   7.093   2.349 -0.7254 -0.7356  0.1909
   96MOL    C2636316   7.711   7.015   2.378  0.0530 -0.1441 -0.9422
   96MOL    C2736317   7.479   7.002   2.291  0.5083  0.4767 -0.0518
   96MOL    H2836318   7.558   7.273   2.734 -0.4679 -0.3764 -1.1035
   96MOL    H2936319   7.594   7.127   2.822  1.0873 -0.1478 -3.2000
   96MOL    H3036320   7.336   7.170   2.671  0.7514  1.8444  1.6808
   96MOL    H3136321   7.608   7.211   2.522  1.6318 -0.8281 -0.6251
   96MOL    H3236322   7.448   7.231   2.459  0.3960  0.2839 -0.4282
   96MOL    H3336323   7.604   7.169   2.273  0.8193 -0.8291  0.4911
   96MOL    H3436324   7.699   6.935   2.452  1.9295 -1.0858 -1.6133
   96MOL    H3536325   7.796   7.079   2.399  0.1584  0.5586 -3.3406
   96MOL    H3636326   7.737   6.948   2.295  0.2341  1.6451 -2.3512
   96MOL    H3736327   7.502   6.965   2.191 -1.0424 -0.2376 -0.1679
   96MOL    H3836328   7.474   6.917   2.359  2.7885  0.9803  0.7800
   96MOL    H3936329   7.382   7.052   2.282  0.4513  0.1839 -1.1238
   96MOL    C4036330   7.373   6.971   2.755 -0.3768 -0.2799  0.3303
   96MOL    C4136331   7.490   6.871   2.796  0.0033 -0.3582  0.4919
   96MOL    O4236332   7.450   6.742   2.742 -0.5301 -0.2096 -0.0857
   96MOL    C4336333   7.542   6.687   2.647 -0.5958  1.2859 -0.6692
   96MOL    C4436334   7.480   6.545   2.607 -0.0411 -0.1032  0.1023
   96MOL    C4536335   7.491   6.443   2.716 -0.2121  0.0752  0.1958
   96MOL    C4636336   7.333   6.550   2.552 -0.2216 -0.0327 -0.3356
   96MOL    H4736337   7.315   6.919   2.679 -2.2339 -2.6870  3.2795
   96MOL    H4836338   7.304   6.989   2.837  1.1239 -2.2737  2.0902
   96MOL    H4936339   7.579   6.905   2.744  1.5875 -0.2487  3.1926
   96MOL    H5036340   7.640   6.679   2.694 -1.7515  2.0970  1.9885
   96MOL    H5136341   7.548   6.747   2.556  3.0342 -0.5383 -1.7375
   96MOL    H5236342   7.543   6.515   2.523 -2.2287 -2.3672 -0.7890
   96MOL    H5336343   7.593   6.423   2.750 -0.0256  0.1092 -0.3371
   96MOL    H5436344   7.438   6.483   2.802 -1.3029  1.7962 -1.2505
   96MOL    H5536345   7.459   6.346   2.679 -2.2175  0.7401  0.1326
   96MOL    H5636346   7.290   6.457   2.515 -2.1601 -0.0724  1.9315
   96MOL    H5736347   7.329   6.622   2.470  1.4287  1.3053  0.7080
   96MOL    H5836348   7.253   6.581   2.619 -0.9649  0.7849 -1.5964
   96MOL    C5936349   7.508   6.859   2.954 -0.0070 -0.1336 -0.4672
   96MOL    C6036350   7.607   6.761   3.001 -0.5299 -1.2042  0.2808
   96MOL    O6136351   7.584   6.720   3.135  0.3670 -0.0431  0.6909
   96MOL    C6236352   7.467   6.643   3.158 -0.7425 -0.8390  0.3221
   96MOL    C6336353   7.464   6.603   3.306 -0.3549  0.0750  0.1428
   96MOL    C6436354   7.324   6.548   3.342  0.0970 -0.2695  0.3059
   96MOL    C6536355   7.566   6.504   3.343 -0.6567  1.1117  0.1433
   96MOL    H6636356   7.407   6.839   2.990  0.9003 -0.8944  1.7733
   96MOL    H6736357   7.524   6.960   2.992 -2.2568  0.3381 -0.7308
   96MOL    H6836358   7.614   6.668   2.943 -3.9394 -0.9139 -0.7041
   96MOL    H6936359   7.369   6.683   3.133  0.6667  1.2061 -2.2322
   96MOL    H7036360   7.464   6.560   3.087  1.5411  0.4752 -1.3986
   96MOL    H7136361   7.485   6.693   3.364 -0.0727  1.1933 -1.6383
   96MOL    H7236362   7.287   6.480   3.265  1.8892  1.8209 -2.4364
   96MOL    H7336363   7.257   6.633   3.355  0.1889  0.0381 -1.2213
   96MOL    H7436364   7.335   6.498   3.439  1.4721  0.1156  0.3557
   96MOL    H7536365   7.660   6.546   3.309  1.1050 -1.3339  1.7836
   96MOL    H7636366   7.576   6.495   3.452  2.0848 -0.0969 -0.1828
   96MOL    H7736367   7.555   6.400   3.313  0.6121  0.4420  1.8998
   96MOL    C7836368   7.746   6.837   3.010 -0.0209  0.2864  0.2251
   96MOL    C7936369   0.030   6.758   3.094  0.8558  0.1027 -0.9227
   96MOL    O8036370   0.158   6.785   3.039  0.7877  0.0866 -0.1471
   96MOL    C8136371   0.193   6.685   2.939 -0.3441 -0.1991 -0.5008
   96MOL    C8236372   0.321   6.742   2.872 -0.6380 -0.2195 -0.0791
   96MOL    C8336373   0.434   6.750   2.974  0.0482  0.2422 -0.0802
   96MOL    C8436374   0.298   6.868   2.790 -0.0574 -0.4711 -0.1939
   96MOL    H8536375   7.731   6.935   3.055 -0.9367  0.6554 -0.8560
   96MOL    H8636376   7.773   6.852   2.906 -2.3596 -1.7415 -0.7288
   96MOL    H8736377   0.019   6.649   3.090  4.4947 -0.3312 -1.0103
   96MOL    H8836378   0.217   6.592   2.990  1.4533  0.0375 -0.8647
   96MOL    H8936379   0.110   6.678   2.869  1.0702 -0.6916 -2.1479
   96MOL    H9036380   0.355   6.672   2.796 -1.9156 -1.1306  0.1777
   96MOL    H9136381   0.537   6.762   2.941 -0.0497  0.4821 -0.3015
   96MOL    H9236382   0.429   6.658   3.033  2.4871  1.3698  1.9898
   96MOL    H9336383   0.417   6.828   3.048 -3.0481 -0.1637 -0.2725
   96MOL    H9436384   0.215   6.837   2.727  0.5285 -2.1737 -0.1721
   96MOL    H9536385   0.386   6.888   2.730  1.2212 -2.3878  0.9647
   96MOL    H9636386   0.285   6.956   2.853  1.0805 -0.0202 -0.5863
   96MOL    C9736387   0.028   6.803   3.241  0.6584  0.4286 -0.1949
   96MOL    C9836388   0.153   6.743   3.319 -0.2789 -0.5251  0.4650
   96MOL    O9936389   0.125   6.606   3.332  0.1633 -0.2120  0.7383
   96MOL   C10036390   0.226   6.517   3.292 -0.2405 -0.5782 -0.5367
   96MOL   C10136391   0.177   6.376   3.314 -0.1404 -0.2391  0.6293
   96MOL   C10236392   0.125   6.326   3.179 -0.3680 -0.2691 -0.6217
   96MOL   C10336393   0.279   6.286   3.385 -0.2004 -0.0315 -0.3489
   96MOL   H10436394   7.762   6.772   3.292  0.3690  0.2389 -0.8202
   96MOL   H10536395   0.032   6.910   3.257 -2.6380  0.4506  0.7637
   96MOL   H10636396   0.241   6.755   3.255 -2.4447  2.2607 -2.1044
   96MOL   H10736397   0.304   6.543   3.364 -1.8921  1.1292  0.6772
   96MOL   H10836398   0.257   6.529   3.189 -0.3981 -2.0660 -0.7716
   96MOL   H10936399   0.089   6.370   3.378  0.2910 -1.4668  1.1208
   96MOL   H11036400   0.075   6.230   3.194  1.6763 -0.9948  1.8963
   96MOL   H11136401   0.047   6.399   3.158  1.3848  1.5420 -1.0010
   96MOL   H11236402   0.197   6.323   3.097 -0.3969 -0.3633 -0.6441
   96MOL   H11336403   0.372   6.273   3.330 -0.5632  0.6627 -1.1347
   96MOL   H11436404   0.309   6.313   3.487 -0.3083 -1.4309  0.0696
   96MOL   H11536405   0.234   6.188   3.403 -0.2607  0.1340  0.4281
   96MOL   C11636406   0.175   6.805   3.458 -0.8325  0.4060 -0.5515
   96MOL   C11736407   0.260   6.933   3.460  0.1753  0.1463 -0.1969
   96MOL   O11836408   0.189   7.049   3.424  0.3709  0.1638 -0.6723
   96MOL   C11936409   0.250   7.129   3.324 -0.0526 -0.0084 -0.2755
   96MOL   C12036410   0.196   7.268   3.323 -0.1589 -0.1716 -0.0123
   96MOL   C12136411   0.247   7.368   3.430  0.1111  0.1912 -0.1111
   96MOL   C12236412   0.188   7.338   3.191 -0.1457 -0.2676  0.0806
   96MOL   H12336413   0.082   6.831   3.509 -2.0718 -3.0326 -0.9168
   96MOL   H12436414   0.216   6.723   3.517 -1.3746  0.6753  0.2170
   96MOL   H12536415   0.345   6.909   3.396  1.7028 -1.3815  2.3374
   96MOL   H12636416   0.235   7.067   3.236  1.6832 -0.4243 -0.2841
   96MOL   H12736417   0.356   7.142   3.347 -0.2916 -1.4531  1.8568
   96MOL   H12836418   0.094   7.239   3.347 -1.0867  1.6954 -1.6152
   96MOL   H12936419   0.266   7.311   3.521 -0.2041  2.1783  1.2343
   96MOL   H13036420   0.177   7.450   3.449 -0.4507 -0.0239 -1.2196
   96MOL   H13136421   0.341   7.416   3.402  0.9898 -1.4818 -0.0712
   96MOL   H13236422   0.276   7.396   3.166 -0.7380  0.3781 -0.5441
   96MOL   H13336423   0.158   7.276   3.106  2.5544  1.5545 -2.2485
   96MOL   H13436424   0.109   7.413   3.199 -1.2614 -1.1826 -1.8384
   96MOL   C13536425   0.336   6.958   3.593  0.0674  0.4721 -0.0265
   96MOL   C13636426   0.246   6.947   3.720 -0.5405  0.5593 -0.4282
   96MOL   O13736427   0.231   6.808   3.760  0.3927 -0.7136 -0.5733
   96MOL   C13836428   0.110   6.772   3.828  0.1356  0.8287  0.7782
   96MOL   C13936429   0.138   6.645   3.910 -0.2303  0.2096 -0.2745
   96MOL   C14036430   0.166   6.519   3.829  0.0539 -0.2259 -0.5993
   96MOL   C14136431   0.259   6.676   4.001  0.1202  0.2786  0.2860
   96MOL   H14236432   0.423   6.894   3.603 -0.0651  0.2329 -0.3804
   96MOL   H14336433   0.385   7.055   3.590 -1.2604  1.1542 -0.4413
   96MOL   H14436434   0.149   6.992   3.699  1.3904  3.6670 -3.1800
   96MOL   H14536435   0.035   6.772   3.748  0.2003  1.3238  0.7181
   96MOL   H14636436   0.067   6.841   3.901  1.3285  1.2855  1.0522
   96MOL   H14736437   0.059   6.632   3.984  0.2567  0.4914  0.3113
   96MOL   H14836438   0.220   6.446   3.889 -1.4718 -1.7119 -0.9907
   96MOL   H14936439   0.216   6.535   3.734 -0.9468  1.3129 -0.8770
   96MOL   H15036440   0.074   6.467   3.801 -0.5725  0.6991 -0.2899
   96MOL   H15136441   0.243   6.768   4.057  0.7380 -0.9479  2.5431
   96MOL   H15236442   0.254   6.589   4.066 -0.4083 -2.2495 -2.9879
   96MOL   H15336443   0.355   6.689   3.951 -0.8389  2.0988 -1.1241
   96MOL   C15436444   0.295   7.030   3.841 -0.3356  1.3422 -0.2852
   96MOL   C15536445   0.286   7.185   3.843 -0.8768  0.0277 -0.9614
   96MOL   O15636446   0.391   7.244   3.759 -0.0317 -0.0708 -0.0218
   96MOL   C15736447   0.427   7.378   3.789 -0.3760 -0.7193 -0.6615
   96MOL   C15836448   0.531   7.418   3.682  0.1778  0.8468  0.2421
   96MOL   C15936449   0.537   7.567   3.649  0.8868  0.5584 -0.0538
   96MOL   C16036450   0.665   7.349   3.702 -0.5483  0.3780 -0.1797
   96MOL   H16136451   0.400   7.015   3.863 -0.4986 -0.6441 -0.8050
   96MOL   H16236452   0.235   6.990   3.922 -0.3814  0.9546 -0.5072
   96MOL   H16336453   0.313   7.206   3.946 -1.5031  0.3753 -0.8670
   96MOL   H16436454   0.476   7.378   3.887  0.6036  0.8892 -1.1447
   96MOL   H16536455   0.337   7.439   3.801 -0.9956 -1.9913  1.6275
   96MOL   H16636456   0.496   7.386   3.584 -1.1171  1.1263  0.6096
   96MOL   H16736457   0.591   7.623   3.726 -0.4170  1.4238  0.2520
   96MOL   H16836458   0.445   7.621   3.626  0.7752  0.9144  1.1820
   96MOL   H16936459   0.591   7.575   3.555  1.5262  1.1190  0.3448
   96MOL   H17036460   0.663   7.242   3.681 -2.3341  0.5034 -0.7639
   96MOL   H17136461   0.739   7.386   3.632 -1.2977 -1.2381 -1.9086
   96MOL   H17236462   0.698   7.371   3.804  0.2164  0.2540 -0.3984
   96MOL   C17336463   0.153   7.250   3.828 -0.4260  0.2930  0.4835
   96MOL   C17436464   0.031   7.201   3.911  0.5963 -0.2554 -0.4113
   96MOL   O17536465   0.066   7.232   4.045  0.3195 -0.3102 -0.1900
   96MOL   C17636466   0.022   7.128   4.133 -0.3078 -0.0635 -0.3586
   96MOL   C17736467   0.113   7.124   4.261  0.0587 -0.0132 -0.2102
   96MOL   C17836468   0.075   7.237   4.370 -0.1758  0.3615 -0.1982
   96MOL   C17936469   0.107   6.985   4.328 -0.6960 -0.1226  0.1714
   96MOL   H18036470   0.150   7.357   3.852 -1.8762 -0.0367  1.8584
   96MOL   H18136471   0.124   7.244   3.723 -0.7466 -0.0544  0.5912
   96MOL   H18236472   0.003   7.096   3.896 -1.2503  0.2997 -0.9492
   96MOL   H18336473   0.025   7.031   4.084  0.4119  1.5745 -3.7057
   96MOL   H18436474   7.748   7.151   4.173 -0.4869 -0.6470 -0.4662
   96MOL   H18536475   0.215   7.133   4.225 -0.0457 -1.1070 -0.8151
   96MOL   H18636476   0.169   7.272   4.414 -0.0709  0.4220 -0.4719
   96MOL   H18736477   0.014   7.314   4.322 -2.2132 -1.2500 -0.2448
   96MOL   H18836478   0.007   7.197   4.445 -0.0588 -0.0952 -0.3329
   96MOL   H18936479   0.003   6.957   4.340 -0.8733  0.6737  0.5279
   96MOL   H19036480   0.148   6.976   4.428  2.0831 -1.3380 -1.0076
   96MOL   H19136481   0.164   6.919   4.262 -2.3587 -2.0230  0.6097
   96MOL   C19236482   7.737   7.290   3.873  0.2731 -0.5330 -0.1839
   96MOL   C19336483   7.605   7.288   3.961  0.0003 -0.3081  0.6160
   96MOL   O19436484   7.566   7.161   3.994 -0.6579  1.2329  0.2883
   96MOL   C19536485   7.510   7.081   3.888  0.0430 -0.7625  0.8990
   96MOL   C19636486   7.446   6.962   3.962  0.1210 -0.0131  0.4098
   96MOL   C19736487   7.324   7.013   4.043 -0.4430  0.2933  1.1012
   96MOL   C19836488   7.542   6.882   4.053 -0.1294 -0.3253  0.4722
   96MOL   H19936489   7.703   7.258   3.775  0.0079  1.5216 -0.7851
   96MOL   H20036490   7.762   7.396   3.867 -0.3224 -0.1880  2.6834
   96MOL   H20136491   7.633   7.316   4.063  0.8354  1.3520 -0.0538
   96MOL   H20236492   7.594   7.045   3.828  1.8878  2.0289  1.7373
   96MOL   H20336493   7.440   7.135   3.824  0.1663 -1.5870  0.0553
   96MOL   H20436494   7.402   6.901   3.883  0.7452  1.1046 -0.8270
   96MOL   H20536495   7.360   7.081   4.121 -2.1109  1.7058  0.6783
   96MOL   H20636496   7.260   7.065   3.972  2.4414  2.9599  0.3475
   96MOL   H20736497   7.279   6.930   4.097 -1.4106  1.5166  2.1978
   96MOL   H20836498   7.495   6.786   4.076  0.3887 -1.2636 -2.2257
   96MOL   H20936499   7.639   6.865   4.006  0.7601  1.3470  1.6170
   96MOL   H21036500   7.570   6.926   4.149  1.8483  2.5100 -1.3245
   96MOL   C21136501   7.481   7.381   3.934 -0.2825  0.3348 -0.1276
   96MOL   C21236502   7.508   7.526   3.959  1.2692 -0.5678  0.4277
   96MOL   O21336503   7.381   7.593   3.943  0.3415  0.0075  0.0904
   96MOL   C21436504   7.355   7.640   3.816 -0.4813 -0.9112  0.0991
   96MOL   C21536505   7.356   7.797   3.811  0.5016 -0.4984  0.0678
   96MOL   C21636506   7.292   0.031   3.686  0.3798 -0.0604 -0.0341
   96MOL   C21736507   7.289   0.050   3.928  0.4410 -0.3376 -0.5621
   96MOL   H21836508   7.397   7.345   3.993 -0.3256  0.9474  0.1805
   96MOL   H21936509   7.425   7.352   3.845  1.5499  2.8186 -2.1604
   96MOL   H22036510   7.575   7.564   3.883 -0.4040  1.2733 -0.2005
   96MOL   H22136511   7.253   7.608   3.793 -0.4521 -0.7648 -0.2430
   96MOL   H22236512   7.422   7.599   3.741  0.0085 -0.4759  0.2993
   96MOL   H22336513   7.458   0.011   3.812 -0.7555  3.0081  2.0916
   96MOL   H22436514   7.308   7.808   3.589 -4.0817 -0.3324 -0.7498
   96MOL   H22536515   7.183   0.029   3.693  0.3147 -0.2118 -1.0159
   96MOL   H22636516   7.318   0.137   3.674 -1.8219  0.5755  0.5953
   96MOL   H22736517   7.338   0.048   4.025 -0.3995 -0.2568 -0.1331
   96MOL   H22836518   7.191   0.008   3.951  0.6154  0.2547  1.3467
   96MOL   H22936519   7.263   0.153   3.907 -2.2080 -0.9500 -0.4424
   96MOL   C23036520   7.552   7.555   4.105 -0.1985 -0.1809  0.1957
   96MOL   C23136521   7.590   7.700   4.128 -0.3707  0.4227 -0.5040
   96MOL   O23236522   7.635   7.729   4.262  0.0429 -0.1459  0.7691
   96MOL   C23336523   7.540   7.773   4.347  0.1552  0.2504  0.0968
   96MOL   C23436524   7.597   7.776   4.492 -0.0887 -0.4342 -0.0982
   96MOL   C23536525   7.489   0.008   4.593 -0.7651  0.1306 -0.0597
   96MOL   C23636526   7.639   7.629   4.517  0.3367  0.2292 -0.0231
   96MOL   H23736527   7.641   7.498   4.133  0.4256  0.5806 -0.2087
   96MOL   H23836528   7.475   7.538   4.180  0.9489 -1.0131  1.2147
   96MOL   H23936529   7.504   7.765   4.110 -0.8006 -0.0946 -0.3595
   96MOL   H24036530   7.540   0.054   4.322  0.6368 -0.4312 -2.9558
   96MOL   H24136531   7.447   7.716   4.344  0.0502  0.4542 -0.7585
   96MOL   H24236532   7.685   0.014   4.495 -0.0382 -0.5194  0.2524
   96MOL   H24336533   7.500   0.117   4.595  0.2050  0.0161  2.7186
   96MOL   H24436534   7.516   7.807   4.695  2.4214  0.5790 -0.7119
   96MOL   H24536535   7.388   7.796   4.576 -0.7857 -0.3329  1.0408
   96MOL   H24636536   7.551   7.565   4.503  0.2661 -0.2567  2.4512
   96MOL   H24736537   7.719   7.591   4.454  0.6999 -0.3354  0.7655
   96MOL   H24836538   7.674   7.627   4.620  0.1384  3.8470  0.1854
   96MOL   C24936539   7.716   7.743   4.039  0.1995  0.1282 -0.1893
   96MOL   C25036540   7.764   0.060   4.060  0.5408  0.0739  0.2883
   96MOL   O25136541   0.067   0.078   3.998 -0.5214 -0.4266  0.4027
   96MOL   C25236542   0.178   0.051   4.079  0.2772 -0.3098  0.5141
   96MOL   C25336543   0.295   0.038   3.980  0.6157 -0.3517 -0.3402
   96MOL   C25436544   0.429   0.016   4.050  0.2463  0.0804  0.3071
   96MOL   C25536545   0.307   0.143   3.876  1.0734  0.1552  0.1864
   96MOL   H25636546   7.703   7.731   3.932  2.9488  0.5463 -0.5954
   96MOL   H25736547   7.796   7.673   4.064 -0.0946 -0.3914 -0.7031
   96MOL   H25836548   7.764   0.085   4.166  1.1062  0.5788  0.1708
   96MOL   H25936549   0.187   0.128   4.156  0.7358 -0.6058  0.7555
   96MOL   H26036550   0.180   7.774   4.117  1.4147 -0.0244  1.2494
   96MOL   H26136551   0.281   7.768   3.929  0.2204  0.5118 -1.8797
   96MOL   H26236552   0.455   0.084   4.131 -1.4754 -1.7352  2.4463
   96MOL   H26336553   0.501   0.015   3.968 -0.0110  1.4234  0.0542
   96MOL   H26436554   0.438   7.744   4.099 -0.3547  0.6259  1.5133
   96MOL   H26536555   0.367   0.110   3.790  1.5904 -1.3569  1.1002
   96MOL   H26636556   0.213   0.191   3.850  0.4630 -0.2272  1.6686
   96MOL   H26736557   0.379   0.217   3.911  1.3802 -0.3575  0.6537
   96MOL   C26836558   7.674   0.167   3.990  0.4766 -0.3155  0.1699
   96MOL   C26936559   7.722   0.313   4.009 -1.0389 -0.5283 -0.3416
   96MOL   O27036560   7.757   0.327   4.143 -0.3125  0.3150 -0.3096
   96MOL   C27136561   0.033   0.429   4.166 -0.2539  0.5578  0.1941
   96MOL   C27236562   0.019   0.467   4.308  0.2928  0.1868 -0.3903
   96MOL   C27336563   0.030   0.347   4.397 -0.3632  1.0267 -0.1026
   96MOL   C27436564   0.113   0.580   4.357  0.3189 -0.1505 -0.2457
   96MOL   H27536565   7.574   0.174   4.032  0.3507  0.7872 -0.3038
   96MOL   H27636566   7.662   0.148   3.883 -0.3107 -2.3971  0.5964
   96MOL   H27736567   7.809   0.336   3.947 -0.5727  2.8056  1.4726
   96MOL   H27836568   0.128   0.379   4.147  0.4435  1.3680  1.4660
   96MOL   H27936569   0.006   0.514   4.104  1.4634  1.5813  0.8149
   96MOL   H28036570   7.744   0.507   4.327  0.4819  0.7787 -0.6263
   96MOL   H28136571   7.796   0.263   4.359  0.2756  0.4249  0.2225
   96MOL   H28236572   7.808   0.376   4.491 -0.0294  1.1948  0.0122
   96MOL   H28336573   0.131   0.312   4.419 -0.3894 -1.1880 -3.1824
   96MOL   H28436574   0.210   0.530   4.351 -0.3907 -1.4674 -1.0179
   96MOL   H28536575   0.096   0.591   4.464 -0.3874 -1.7148 -0.1833
   96MOL   H28636576   0.110   0.677   4.307 -2.3508  1.6448  3.2100
   96MOL   C28736577   7.614   0.419   3.971 -0.2723 -0.1745  0.4323
   96MOL   C28836578   7.585   0.428   3.824 -0.2190  0.1588 -0.3344
   96MOL   O28936579   7.708   0.454   3.755 -0.3641  0.7863 -0.7737
   96MOL   C29036580   7.708   0.436   3.615  0.0026  0.2456  0.2967
   96MOL   C29136581   0.029   0.444   3.565 -0.0269  0.3268 -0.3251
   96MOL   C29236582   0.075   0.590   3.562  0.6977  0.5215  0.5429
   96MOL   C29336583   0.055   0.392   3.422  0.5993 -0.0123 -0.2066
   96MOL   H29436584   7.648   0.517   4.003  0.6917 -0.6348  0.8345
   96MOL   H29536585   7.517   0.398   4.017 -1.5617  0.8695 -1.7041
   96MOL   H29636586   7.550   0.332   3.787 -1.3837  0.3041  0.3577
   96MOL   H29736587   7.674   0.335   3.593 -2.0061  1.6118 -3.2393
   96MOL   H29836588   7.634   0.499   3.566 -0.2503 -1.0415 -1.0210
   96MOL   H29936589   0.089   0.389   3.637 -1.5852  0.7118  1.2820
   96MOL   H30036590   0.063   0.638   3.659 -0.3832  0.3639  0.4919
   96MOL   H30136591   0.013   0.637   3.485  0.7299  1.6972  1.2287
   96MOL   H30236592   0.178   0.602   3.525  0.0610 -0.1684 -1.5534
   96MOL   H30336593   7.815   0.443   3.351 -2.9731 -0.2240  2.7159
   96MOL   H30436594   0.160   0.402   3.394  0.4696 -0.0476 -0.7136
   96MOL   H30536595   0.022   0.288   3.413  0.3544  0.1871 -1.7037
   96MOL   C30636596   7.459   0.520   3.800 -0.2637  0.7733  0.3863
   96MOL   C30736597   7.468   0.667   3.845 -0.7365  0.2909 -0.6369
   96MOL   O30836598   7.385   0.742   3.767 -0.4184 -0.0316  0.0345
   96MOL   C30936599   7.454   0.787   3.649  0.3491 -0.0926  0.3248
   96MOL   C31036600   7.349   0.839   3.546  0.7806  0.7952  1.1090
   96MOL   C31136601   7.236   0.734   3.506 -0.3551  0.2053  0.6989
   96MOL   C31236602   7.420   0.871   3.411 -0.3495  0.2507  0.7513
   96MOL   H31336603   7.365   0.485   3.843 -1.1169  0.5435 -1.5791
   96MOL   H31436604   7.430   0.517   3.695 -0.7627  1.8651  0.4831
   96MOL   H31536605   7.570   0.705   3.845 -0.7280  0.2661 -2.1134
   96MOL   H31636606   7.510   0.698   3.618  0.5708 -1.0930  3.4508
   96MOL   H31736607   7.516   0.870   3.681  0.8974 -0.4595  0.2347
   96MOL   H31836608   7.293   0.928   3.576  1.7482  0.7366  3.1734
   96MOL   H31936609   7.174   0.703   3.590 -2.5229 -1.1992 -1.3467
   96MOL   H32036610   7.289   0.645   3.472  1.2767  1.4776 -0.2084
   96MOL   H32136611   7.164   0.763   3.429  0.0216  0.5361  0.4691
   96MOL   H32236612   7.464   0.971   3.398 -4.2867  1.8608 -1.1325
   96MOL   H32336613   7.342   0.880   3.336 -2.2229  0.4274  2.6945
   96MOL   H32436614   7.491   0.793   3.382 -0.4315  0.7509 -0.8801
   96MOL   C32536615   7.408   0.678   3.988  0.1501  0.1038  0.7664
   96MOL   C32636616   7.457   0.797   4.069  0.1546  0.6072 -0.0336
   96MOL   O32736617   7.349   0.888   4.105  0.3005 -0.4429  0.4664
   96MOL   C32836618   7.323   0.980   4.002 -0.3062  0.1354  0.6663
   96MOL   C32936619   7.208   1.073   4.044  0.0638 -0.7572 -0.0497
   96MOL   C33036620   7.221   1.147   4.175 -0.6487  0.2467  0.0634
   96MOL   C33136621   7.160   1.160   3.928 -0.4649 -0.0059  0.1589
   96MOL   H33236622   7.441   0.594   4.048 -0.7793  0.5571  1.9195
   96MOL   H33336623   7.300   0.663   3.988 -0.0204  1.1954 -1.0199
   96MOL   H33436624   7.534   0.844   4.008 -2.6916  1.6371 -2.9751
   96MOL   H33536625   7.406   1.041   3.967 -0.1143  0.1216  1.0958
   96MOL   H33636626   7.302   0.911   3.919 -0.1726 -0.8121  1.4103
   96MOL   H33736627   7.129   0.999   4.055 -1.2922  0.4237 -1.5526
   96MOL   H33836628   7.131   1.207   4.185 -1.0505 -0.2872 -0.2919
   96MOL   H33936629   7.226   1.076   4.258 -0.4299  0.3210  0.1151
   96MOL   H34036630   7.305   1.216   4.168 -1.7282  1.4124 -1.5646
   96MOL   H34136631   7.152   1.088   3.847 -2.4925 -0.1642  0.4542
   96MOL   H34236632   7.058   1.197   3.945 -0.7194 -1.1126  1.1274
   96MOL   H34336633   7.210   1.254   3.906 -2.3955  1.4160  1.5922
   96MOL   C34436634   7.515   0.755   4.206  0.2803  0.2654  0.2389
   96MOL   C34536635   7.563   0.865   4.296 -0.1092  0.3580 -0.4004
   96MOL   O34636636   7.612   0.812   4.430  0.4033  0.7957 -0.0557
   96MOL   C34736637   7.505   0.758   4.515  0.1766 -0.0231  0.0567
   96MOL   C34836638   7.562   0.753   4.659 -0.0860  0.0050 -0.6601
   96MOL   C34936639   7.689   0.669   4.674 -0.6102 -0.1437  0.4019
   96MOL   C35036640   7.458   0.709   4.762  0.6267  0.3868  0.1124
   96MOL   H35136641   7.605   0.698   4.185 -0.6923 -0.7193 -1.3709
   96MOL   H35236642   7.445   0.689   4.257  0.2790  0.3294  0.3194
   96MOL   H35336643   7.490   0.939   4.329 -0.8426 -0.7295  0.4846
   96MOL   H35436644   7.488   0.655   4.483  3.2647 -0.5740 -0.0243
   96MOL   H35536645   7.420   0.825   4.516  0.7742  0.7382  1.8814
   96MOL   H35636646   7.589   0.856   4.683  0.9384 -0.3440 -0.2722
   96MOL   H35736647   7.681   0.568   4.632  0.4616 -0.1244  0.1477
   96MOL   H35836648   7.719   0.652   4.777 -2.2908 -1.5337  0.6992
   96MOL   H35936649   7.774   0.713   4.621 -1.9487  3.0320  0.7491
   96MOL   H36036650   7.482   0.721   4.868 -1.1492 -0.8390  0.6759
   96MOL   H36136651   7.361   0.750   4.732  1.1598  0.7639 -1.1156
   96MOL   H36236652   7.435   0.605   4.743  1.0406  0.4372 -0.6870
   96MOL   C36336653   7.687   0.943   4.236  0.0284  0.5759  0.1922
   96MOL   C36436654   7.769   1.048   4.321 -0.3300  0.5218  0.2532
   96MOL   O36536655   0.027   1.122   4.226  0.1762 -0.4426  0.6278
   96MOL   C36636656   0.119   1.216   4.281 -0.1883  1.0324  0.2682
   96MOL   C36736657   0.187   1.303   4.174 -0.0553  0.2949 -0.6060
   96MOL   C36836658   0.083   1.376   4.093  0.2600 -0.6135  0.6984
   96MOL   C36936659   0.274   1.219   4.080 -0.4665 -0.2161  0.1712
   96MOL   H37036660   7.764   0.872   4.207 -2.1602 -2.1017  0.7046
   96MOL   H37136661   7.660   0.990   4.142  1.2899 -0.9768 -0.9615
   96MOL   H37236662   0.003   0.988   4.390  0.1675  1.1083  0.3465
   96MOL   H37336663   0.075   1.280   4.358 -1.8285 -0.7584  0.8734
   96MOL   H37436664   0.193   1.157   4.335 -1.3276 -0.2176  0.5100
   96MOL   H37536665   0.251   1.375   4.224  0.7763 -0.4482 -0.5861
   96MOL   H37636666   0.017   1.309   4.038  0.2980 -1.2316  1.3910
   96MOL   H37736667   0.142   1.453   4.042 -0.6633  0.6884  1.5740
   96MOL   H37836668   0.022   1.442   4.154  1.0769  1.1415 -0.3471
   96MOL   H37936669   0.222   1.126   4.057 -0.7453 -0.4960  1.8984
   96MOL   H38036670   0.369   1.193   4.126 -0.4455 -1.5051 -0.5674
   96MOL   H38136671   0.306   1.257   3.983  1.4577  1.9487  1.6065
   96MOL   H38236672   7.707   1.116   4.380 -1.8540 -0.4825 -0.1580
   97MOL     C136673   7.402   5.087   1.031 -0.4273 -0.2262 -0.5177
   97MOL     C236674   7.431   5.113   1.176 -0.0704  0.2300 -0.3613
   97MOL     O336675   7.559   5.070   1.198  0.3508  0.1162 -0.3588
   97MOL     C436676   7.570   4.967   1.298 -0.2757  0.0154  0.3986
   97MOL     C536677   7.702   4.889   1.295  0.3299  0.5482 -0.4342
   97MOL     C636678   7.711   4.794   1.416  0.3058  0.0422 -0.2474
   97MOL     C736679   7.818   4.987   1.300  0.0363  0.1519  0.1633
   97MOL     H836680   7.306   5.130   1.002  0.6678  1.3482 -1.9195
   97MOL     H936681   7.483   5.137   0.977  1.3364 -1.6319  0.7847
   97MOL    H1036682   7.359   5.057   1.237 -0.5188  1.1466 -0.0428
   97MOL    H1136683   7.489   4.894   1.292 -0.7639  0.6259 -0.5346
   97MOL    H1236684   7.572   5.026   1.389  1.7119  2.3574 -1.0777
   97MOL    H1336685   7.705   4.846   1.195 -1.7760  0.7275 -0.5948
   97MOL    H1436686   7.613   4.750   1.435  0.8541 -1.3768 -0.6388
   97MOL    H1536687   7.783   4.713   1.402 -0.1312 -0.3739 -0.1020
   97MOL    H1636688   7.747   4.841   1.508 -2.3589  0.4466  0.6334
   97MOL    H1736689   7.824   5.039   1.204 -2.5923 -1.6341 -1.0148
   97MOL    H1836690   7.809   5.064   1.376  0.3173 -0.0313  0.3811
   97MOL    H1936691   0.086   4.931   1.314 -0.2114 -0.3870 -0.3473
   97MOL    H2036692   7.403   4.984   0.997  0.1301  0.4346 -2.5687
   97MOL    C2136693   7.425   5.265   1.202 -0.1152  0.1926  0.0773
   97MOL    C2236694   7.454   5.304   1.353  0.5096 -0.3813 -0.6476
   97MOL    O2336695   7.429   5.445   1.368 -0.4322 -0.1331  0.0205
   97MOL    C2436696   7.542   5.526   1.334 -0.6410 -0.3150  0.2055
   97MOL    C2536697   7.517   5.668   1.348  0.2457  0.1518 -0.0835
   97MOL    C2636698   7.397   5.706   1.258 -0.7992  0.6421 -0.2298
   97MOL    C2736699   7.487   5.700   1.493 -0.0295  0.1468  0.0382
   97MOL    H2836700   7.485   5.323   1.132 -0.1835  0.3781  0.1734
   97MOL    H2936701   7.326   5.301   1.173 -0.4213 -1.2560 -0.7558
   97MOL    H3036702   7.558   5.279   1.374 -0.2317 -2.0691  1.1514
   97MOL    H3136703   7.567   5.519   1.228 -1.1310  1.2839 -0.0190
   97MOL    H3236704   7.625   5.491   1.395  0.8140  0.5615 -1.2233
   97MOL    H3336705   7.599   5.732   1.315  1.5166 -1.8026 -0.8353
   97MOL    H3436706   7.410   5.700   1.150 -2.1299  1.9607 -0.4707
   97MOL    H3536707   7.370   5.809   1.281 -0.4598  0.4274  1.1641
   97MOL    H3636708   7.306   5.647   1.272 -0.5617  0.4581  0.5393
   97MOL    H3736709   7.387   5.668   1.521  0.6011  0.6103  2.9550
   97MOL    H3836710   7.554   5.648   1.561 -1.0838 -0.1578  0.8507
   97MOL    H3936711   7.488   5.808   1.504  1.4748  0.1579 -0.1219
   97MOL    C4036712   7.358   5.231   1.450  0.7759 -0.6637  0.6005
   97MOL    C4136713   7.381   5.256   1.599  0.0320 -0.0805  0.1130
   97MOL    O4236714   7.507   5.195   1.625 -0.4453 -0.0716  0.7649
   97MOL    C4336715   7.597   5.250   1.719 -0.1107  0.8316 -0.3165
   97MOL    C4436716   7.715   5.148   1.721  0.3094 -0.0527 -0.3501
   97MOL    C4536717   0.011   5.224   1.780  0.1476  0.0915  0.0717
   97MOL    C4636718   7.683   5.030   1.808 -0.2815 -0.3289  0.7663
   97MOL    H4736719   7.348   5.125   1.429 -1.1454  0.0817 -2.5391
   97MOL    H4836720   7.255   5.245   1.420  0.6957 -0.8235  0.7994
   97MOL    H4936721   7.402   5.362   1.612  1.8779 -0.4346  0.1076
   97MOL    H5036722   7.548   5.267   1.815  1.5580 -0.6427  0.8238
   97MOL    H5136723   7.629   5.349   1.687  0.2713  0.7335 -0.2452
   97MOL    H5236724   7.746   5.119   1.621  0.2346  0.5865 -0.5598
   97MOL    H5336725   0.037   5.309   1.717 -0.0632  1.8300  2.2723
   97MOL    H5436726   7.806   5.265   1.877  1.2303 -1.6475  1.1583
   97MOL    H5536727   0.099   5.163   1.802  0.1872 -0.2344 -0.9855
   97MOL    H5636728   7.767   4.961   1.809  0.5666  0.5172 -2.8892
   97MOL    H5736729   7.604   4.971   1.762  0.2377  0.8973 -1.8089
   97MOL    H5836730   7.630   5.054   1.900 -0.5718 -0.2340  0.5757
   97MOL    C5936731   7.270   5.216   1.692  0.9426  0.6501 -0.5932
   97MOL    C6036732   7.127   5.282   1.689  0.5154  0.1312 -0.5722
   97MOL    O6136733   7.115   5.417   1.744 -0.0964  0.0101 -0.1136
   97MOL    C6236734   7.148   5.518   1.647 -0.0014 -0.7781 -0.5100
   97MOL    C6336735   7.170   5.649   1.722  0.1997  0.2179  0.4514
   97MOL    C6436736   7.048   5.690   1.805 -1.2423  0.5798  0.9103
   97MOL    C6536737   7.298   5.640   1.810  0.1754  0.5122  0.7528
   97MOL    H6636738   7.311   5.243   1.790  0.9589  0.2550 -0.4902
   97MOL    H6736739   7.267   5.107   1.693 -0.8769  0.6796  0.3491
   97MOL    H6836740   7.100   5.267   1.584  0.4193 -0.0447 -0.5221
   97MOL    H6936741   7.234   5.501   1.582  1.7164 -0.0684  1.5169
   97MOL    H7036742   7.068   5.527   1.573  0.1904 -3.5519 -1.1075
   97MOL    H7136743   7.177   5.728   1.647  2.4770 -0.3227  0.0523
   97MOL    H7236744   7.061   5.791   1.844  2.1324  0.8499 -0.7167
   97MOL    H7336745   7.030   5.616   1.883 -1.5617  0.0950  0.3731
   97MOL    H7436746   6.958   5.689   1.744 -0.6280  0.4702  0.0070
   97MOL    H7536747   7.322   5.743   1.834  1.0051  0.7702 -1.1343
   97MOL    H7636748   7.277   5.579   1.898 -0.2655  2.0497  1.7194
   97MOL    H7736749   7.388   5.597   1.766 -1.8737 -3.6791  0.3967
   97MOL    C7836750   7.020   5.218   1.789 -0.5707  0.0272  0.0342
   97MOL    C7936751   6.984   5.065   1.754 -0.2720 -0.9912 -0.4470
   97MOL    O8036752   6.902   5.004   1.855  0.2116 -0.1398  0.0113
   97MOL    C8136753   6.962   4.927   1.966  0.0147  0.3561 -0.3381
   97MOL    C8236754   6.865   4.902   2.077 -0.3193  0.3710  0.1611
   97MOL    C8336755   6.821   5.031   2.147  0.1325 -0.1398 -0.2815
   97MOL    C8436756   6.906   4.799   2.182  0.5939  0.3531 -0.3912
   97MOL    H8536757   6.926   5.274   1.793 -1.0203 -0.8263  2.2385
   97MOL    H8636758   7.062   5.216   1.889 -0.1624  0.8411 -0.1211
   97MOL    H8736759   7.078   5.009   1.752 -0.7870 -1.8535 -1.0542
   97MOL    H8836760   6.990   4.831   1.922 -1.0838 -0.7126  1.2573
   97MOL    H8936761   7.050   4.981   2.001 -0.2448  1.0320 -0.7176
   97MOL    H9036762   6.784   4.859   2.018 -0.4943  0.3747  0.3986
   97MOL    H9136763   6.897   5.083   2.205 -0.9203  0.1498  0.8717
   97MOL    H9236764   6.742   5.004   2.217 -0.9108 -2.1330 -2.1634
   97MOL    H9336765   6.784   5.105   2.077  0.8700  0.5287  0.0347
   97MOL    H9436766   7.013   4.816   2.190  0.6780 -1.3814  2.6813
   97MOL    H9536767   6.878   4.697   2.157  0.7253  0.5377 -1.3308
   97MOL    H9636768   6.870   4.827   2.281  0.8990 -1.7194  0.3333
   97MOL    C9736769   6.907   5.046   1.620 -0.0244 -0.3911  0.2404
   97MOL    C9836770   6.869   4.902   1.574  0.1664 -0.0250 -0.3829
   97MOL    O9936771   6.994   4.836   1.549 -0.2000 -0.2583 -0.5916
   97MOL   C10036772   7.010   4.702   1.604 -0.7347  0.0242 -0.8332
   97MOL   C10136773   7.154   4.645   1.573  0.3675  0.2827 -0.3464
   97MOL   C10236774   7.176   4.495   1.619 -0.0423  0.3578  0.7148
   97MOL   C10336775   7.195   4.660   1.427 -0.3086 -0.4146 -0.2109
   97MOL   H10436776   6.963   5.101   1.544 -0.8747  2.0336  1.3215
   97MOL   H10536777   6.811   5.097   1.629  1.4775  2.7028 -0.2923
   97MOL   H10636778   6.814   4.854   1.655 -0.1692 -0.0623 -0.6301
   97MOL   H10736779   6.921   4.641   1.588 -2.1627  1.4119  1.4976
   97MOL   H10836780   7.003   4.720   1.711  1.5791 -2.6460 -0.2087
   97MOL   H10936781   7.220   4.699   1.641 -0.1010  3.2263 -2.1608
   97MOL   H11036782   7.129   4.491   1.718  0.9901  4.8792  1.5337
   97MOL   H11136783   7.126   4.423   1.554  2.5784  2.9895 -4.5113
   97MOL   H11236784   7.281   4.468   1.625  0.0506 -0.0169 -2.0131
   97MOL   H11336785   7.304   4.659   1.428 -0.3021  0.1542 -0.0529
   97MOL   H11436786   7.155   4.582   1.362 -0.2204 -0.0252 -0.7320
   97MOL   H11536787   7.160   4.759   1.398 -0.0891 -0.7254 -1.5492
   97MOL   C11636788   6.778   4.914   1.445 -0.2162  0.4828 -0.2744
   97MOL   C11736789   6.691   4.788   1.431 -0.2080 -0.2477 -0.9365
   97MOL   O11836790   6.590   4.802   1.525  0.2874  0.0107 -0.0292
   97MOL   C11936791   6.552   4.677   1.574 -0.2527  0.6611  0.3826
   97MOL   C12036792   6.435   4.694   1.670 -0.5582 -0.2431  0.3439
   97MOL   C12136793   6.387   4.553   1.701 -0.0663 -0.4444  0.1166
   97MOL   C12236794   6.472   4.794   1.788 -0.0048 -0.2553  0.2260
   97MOL   H12336795   6.703   4.992   1.455 -1.2505 -0.4601 -0.5917
   97MOL   H12436796   6.836   4.937   1.356  0.1607  3.2807  0.6498
   97MOL   H12536797   6.756   4.706   1.462 -0.6704  1.0756  3.9023
   97MOL   H12636798   6.645   4.637   1.614  0.8230 -0.1643 -2.7706
   97MOL   H12736799   6.519   4.611   1.493 -1.2293  0.9640  0.5358
   97MOL   H12836800   6.360   4.749   1.613  1.4781  1.4398 -0.7653
   97MOL   H12936801   6.285   4.553   1.738  0.3077  1.5666  1.2780
   97MOL   H13036802   6.453   4.501   1.770 -2.1681 -2.3656  0.7155
   97MOL   H13136803   6.385   4.498   1.607  0.2363  0.6888 -0.5740
   97MOL   H13236804   6.389   4.806   1.859 -0.4529  0.1865 -0.3714
   97MOL   H13336805   6.566   4.764   1.834 -0.0706  2.1148  1.9795
   97MOL   H13436806   6.486   4.899   1.762  1.4065 -0.4700  0.1034
   97MOL   C13536807   6.638   4.781   1.288  0.1202 -0.4516 -0.8073
   97MOL   C13636808   6.724   4.697   1.196 -0.2750  0.0383  0.1823
   97MOL   O13736809   6.716   4.565   1.249  0.1445 -0.1999 -0.2115
   97MOL   C13836810   6.849   4.508   1.265  0.6086 -0.6478 -0.3978
   97MOL   C13936811   6.844   4.364   1.309  0.0304 -0.4749  0.1066
   97MOL   C14036812   6.778   4.340   1.443 -0.1414  0.0610 -0.2218
   97MOL   C14136813   6.800   4.270   1.198  0.1303 -0.2069  0.1562
   97MOL   H14236814   6.545   4.728   1.309 -0.3623  1.2697  1.6137
   97MOL   H14336815   6.618   4.882   1.252  0.7873 -0.4321 -1.1260
   97MOL   H14436816   6.820   4.749   1.204 -0.5134  0.5338 -0.2302
   97MOL   H14536817   6.916   4.557   1.336  0.6149 -1.3603  0.0895
   97MOL   H14636818   6.892   4.526   1.167  1.0451 -1.3375 -0.3354
   97MOL   H14736819   6.950   4.351   1.326  0.3932  0.0155 -1.6803
   97MOL   H14836820   6.830   4.258   1.493  1.9042  0.9820 -0.8128
   97MOL   H14936821   6.671   4.318   1.433  0.1762 -1.0428 -1.2162
   97MOL   H15036822   6.798   4.422   1.512 -0.8817 -0.2944  0.4352
   97MOL   H15136823   6.858   4.294   1.109  0.2983  2.1573  0.8655
   97MOL   H15236824   6.822   4.168   1.231 -1.5022 -0.3037  0.9765
   97MOL   H15336825   6.694   4.274   1.174  0.0672  0.5442  0.5690
   97MOL   C15436826   6.672   4.689   1.056  0.0404  0.1713 -0.0036
   97MOL   C15536827   6.742   4.790   0.956  0.1922  0.1807 -0.1481
   97MOL   O15636828   6.878   4.747   0.947  0.6206  0.5710  0.2604
   97MOL   C15736829   6.970   4.814   0.862  0.3591  0.5679 -0.1387
   97MOL   C15836830   7.117   4.777   0.891  0.5370 -0.0606  0.5291
   97MOL   C15936831   7.155   4.811   1.045 -0.0993  0.0264 -0.2255
   97MOL   C16036832   7.150   4.631   0.849  0.6255  0.1795 -0.3544
   97MOL   H16136833   6.564   4.700   1.055 -0.0103 -0.3523 -0.2344
   97MOL   H16236834   6.695   4.591   1.014 -2.6313 -0.2769 -0.4966
   97MOL   H16336835   6.745   4.891   0.998  0.5045 -0.3009  1.0157
   97MOL   H16436836   6.947   4.919   0.876 -2.8664 -0.1789  0.7107
   97MOL   H16536837   6.938   4.787   0.761  1.6114  2.0428 -0.9508
   97MOL   H16636838   7.177   4.839   0.825 -1.5303 -0.6220 -1.9468
   97MOL   H16736839   7.187   4.913   1.064 -0.2241  0.0729 -0.2712
   97MOL   H16836840   7.239   4.744   1.064 -0.2953 -0.7366 -1.9420
   97MOL   H16936841   7.068   4.789   1.106  0.0698 -1.3425 -0.4612
   97MOL   H17036842   7.255   4.612   0.867  0.1300 -0.3850  2.2108
   97MOL   H17136843   7.084   4.568   0.909  0.3317 -0.2629 -1.1292
   97MOL   H17236844   7.124   4.622   0.743  1.5717  3.9388 -0.9848
   97MOL   C17336845   6.680   4.805   0.812  0.4168  0.1722  0.3511
   97MOL   C17436846   6.543   4.870   0.806 -0.6212 -0.0439  0.3620
   97MOL   O17536847   6.566   5.010   0.850 -0.2526 -0.3461  0.0248
   97MOL   C17636848   6.458   5.077   0.917  0.4034  0.2096 -0.8389
   97MOL   C17736849   6.511   5.204   0.982 -0.3721  0.6228 -0.0693
   97MOL   C17836850   6.650   5.185   1.041 -0.1646  0.2134 -0.3556
   97MOL   C17936851   6.515   5.322   0.875 -0.2328  0.4425  0.1176
   97MOL   H18036852   6.743   4.872   0.754  1.0887 -0.1968  0.6510
   97MOL   H18136853   6.679   4.701   0.779 -0.6447  0.0519  0.7523
   97MOL   H18236854   6.468   4.824   0.871  0.1383 -1.1696  0.4567
   97MOL   H18336855   6.421   5.009   0.993 -2.2918 -0.4154 -2.6316
   97MOL   H18436856   6.381   5.091   0.841 -1.8892 -1.5162  1.1028
   97MOL   H18536857   6.438   5.225   1.060 -1.7107 -0.3000 -1.0456
   97MOL   H18636858   6.693   5.277   1.079 -0.6748 -0.5639  2.2148
   97MOL   H18736859   6.658   5.113   1.123  0.6814  0.1890 -0.4612
   97MOL   H18836860   6.723   5.150   0.968 -0.4953  1.5636 -1.3515
   97MOL   H18936861   6.415   5.344   0.838 -0.5659  0.9310  1.2755
   97MOL   H19036862   6.572   5.289   0.789  2.1506  1.2337  1.3726
   97MOL   H19136863   6.563   5.407   0.923  1.1004 -1.2314  1.8157
   97MOL   C19236864   6.476   4.883   0.665 -0.0877 -0.3512 -0.5230
   97MOL   C19336865   6.429   4.750   0.599 -0.2658 -0.0098  0.1004
   97MOL   O19436866   6.367   4.775   0.468  0.0983 -0.5315  0.1349
   97MOL   C19536867   6.461   4.772   0.362  0.3200  0.3693  0.5451
   97MOL   C19636868   6.410   4.818   0.226 -0.0066 -0.0768  0.1019
   97MOL   C19736869   6.517   4.806   0.117 -0.1948 -0.3516 -0.0589
   97MOL   C19836870   6.354   4.956   0.241 -0.7201 -0.2669 -0.1014
   97MOL   H19936871   6.543   4.928   0.593  0.0488 -0.4843 -0.4795
   97MOL   H20036872   6.392   4.951   0.677 -1.0749 -2.0396  2.9336
   97MOL   H20136873   6.522   4.693   0.603  0.4851  1.2829  1.9267
   97MOL   H20236874   6.496   4.669   0.357 -2.3423 -0.4975 -1.0375
   97MOL   H20336875   6.556   4.825   0.373  1.0616 -0.9480  0.5633
   97MOL   H20436876   6.326   4.750   0.210 -0.9515  0.9384  0.7267
   97MOL   H20536877   6.559   4.707   0.102  0.5873 -0.0367  0.0220
   97MOL   H20636878   6.468   4.810   0.020 -1.7220  1.1001  0.7411
   97MOL   H20736879   6.598   4.878   0.129  0.9864 -1.8597  1.1976
   97MOL   H20836880   6.431   5.028   0.269 -0.3604 -1.5818  2.3803
   97MOL   H20936881   6.316   5.007   0.153 -1.9752  0.0066  0.5904
   97MOL   H21036882   6.270   4.959   0.310 -0.7562  0.7248 -0.1728
   97MOL   C21136883   6.319   4.661   0.671  0.6809 -0.1388  0.1053
   97MOL   C21236884   6.377   4.569   0.774 -0.7893  0.4504 -0.8389
   97MOL   O21336885   6.285   4.593   0.886  0.5881  0.4462  0.1357
   97MOL   C21436886   6.316   4.522   0.999 -0.2809 -0.0094  0.2424
   97MOL   C21536887   6.285   4.607   1.125 -0.2251 -0.0306 -0.1601
   97MOL   C21636888   6.129   4.629   1.131 -0.3816  0.3810  0.5099
   97MOL   C21736889   6.333   4.534   1.252  0.6189 -0.4536  0.4518
   97MOL   H21836890   6.268   4.608   0.591  2.0516  3.8408 -3.6107
   97MOL   H21936891   6.241   4.727   0.710  1.8966 -0.9285  4.1281
   97MOL   H22036892   6.478   4.605   0.793 -0.5190 -0.5248 -0.3996
   97MOL   H22136893   6.420   4.492   1.010 -0.5832 -1.6549 -1.2372
   97MOL   H22236894   6.260   4.430   1.015 -0.8744  0.9668  4.4386
   97MOL   H22336895   6.331   4.706   1.116 -1.2747  0.6933  2.0328
   97MOL   H22436896   6.101   4.707   1.203 -1.2561  0.2612  0.3089
   97MOL   H22536897   6.089   4.676   1.041 -1.2956  1.1710  1.3232
   97MOL   H22636898   6.066   4.543   1.153 -1.7449  0.4031 -2.9821
   97MOL   H22736899   6.434   4.495   1.238  0.0936 -1.3491 -0.9218
   97MOL   H22836900   6.270   4.450   1.282 -3.1848  2.7873  1.9147
   97MOL   H22936901   6.335   4.584   1.349 -0.9170  2.1344 -0.8262
   97MOL   C23036902   6.382   4.417   0.737  0.4971  0.0430  0.5195
   97MOL   C23136903   6.450   4.378   0.606  1.2866 -0.0625  0.6117
   97MOL   O23236904   6.592   4.406   0.614 -0.3361  0.3020  0.2472
   97MOL   C23336905   6.663   4.402   0.488 -0.9590  0.3376 -0.1918
   97MOL   C23436906   6.792   4.485   0.492  0.0528  0.9015 -0.6683
   97MOL   C23536907   6.886   4.435   0.604 -0.2329 -0.5235  0.3155
   97MOL   C23636908   6.846   4.497   0.353  0.2238  0.1812 -0.0781
   97MOL   H23736909   6.278   4.386   0.737  0.4414  0.2387 -0.1116
   97MOL   H23836910   6.433   4.360   0.815  0.8620 -1.1073 -0.5447
   97MOL   H23936911   6.416   4.445   0.527  1.6414  1.4005  1.6853
   97MOL   H24036912   6.683   4.300   0.454  1.4443  1.5100 -2.5923
   97MOL   H24136913   6.612   4.451   0.405 -0.5394 -1.8699 -1.8104
   97MOL   H24236914   6.759   4.584   0.522 -0.0151  0.1220  1.9403
   97MOL   H24336915   6.989   4.470   0.597  0.5866 -2.8764  0.0774
   97MOL   H24436916   6.902   4.327   0.594 -0.0844 -0.3791 -1.0542
   97MOL   H24536917   6.847   4.455   0.704 -0.2483  2.5082 -0.2544
   97MOL   H24636918   6.776   4.553   0.291 -2.4635 -1.6457  1.1791
   97MOL   H24736919   6.944   4.541   0.338  0.3562 -0.9746 -3.0128
   97MOL   H24836920   6.851   4.400   0.303  2.7228 -0.7640  1.8817
   97MOL   C24936921   6.423   4.234   0.562  0.5886  0.1180 -0.2323
   97MOL   C25036922   6.277   4.201   0.511  0.4376  0.0264 -0.3286
   97MOL   O25136923   6.269   4.272   0.380 -0.5131  0.4195  0.0949
   97MOL   C25236924   6.160   4.365   0.364  0.1802  0.2584  0.1399
   97MOL   C25336925   6.180   4.457   0.242  0.0112  0.2028 -0.7150
   97MOL   C25436926   6.089   4.584   0.252 -0.2885  0.2257 -0.8683
   97MOL   C25536927   6.174   4.394   0.110 -0.0656  0.5768  0.0270
   97MOL   H25636928   6.433   4.183   0.657 -0.2495  0.9969  0.3400
   97MOL   H25736929   6.498   4.196   0.492 -1.9529 -1.5309 -2.1317
   97MOL   H25836930   6.196   4.234   0.576 -0.2963 -1.3308 -0.5232
   97MOL   H25936931   6.068   4.307   0.362 -0.2699  0.9839 -0.7686
   97MOL   H26036932   6.163   4.429   0.451  0.4260  0.0138  0.3138
   97MOL   H26136933   6.285   4.487   0.246 -0.4065  1.3938  2.6956
   97MOL   H26236934   6.107   4.646   0.340 -2.2630 -0.1341 -0.1876
   97MOL   H26336935   5.982   4.565   0.235 -0.1501 -0.1882 -1.3096
   97MOL   H26436936   6.113   4.653   0.171 -1.3738  1.9361  0.2368
   97MOL   H26536937   6.203   4.476   0.044  2.5687 -0.4139 -0.0625
   97MOL   H26636938   6.231   4.302   0.102 -0.5904  0.1449  1.0978
   97MOL   H26736939   6.075   4.352   0.091  0.7897 -1.7827  0.6148
   97MOL   C26836940   6.253   4.051   0.468 -0.3360  1.0812  0.4896
   97MOL   C26936941   6.259   3.946   0.581 -0.3305 -0.2762 -0.0410
   97MOL   O27036942   6.307   3.824   0.527 -0.0331 -0.0077 -0.6697
   97MOL   C27136943   6.453   3.820   0.519  0.3717 -0.2562 -0.0085
   97MOL   C27236944   6.496   3.679   0.478  0.1663 -0.1992 -0.0743
   97MOL   C27336945   6.460   3.574   0.579 -0.2672 -0.3072 -0.9537
   97MOL   C27436946   6.444   3.632   0.340  0.1144  0.3043 -0.2050
   97MOL   H27536947   6.319   4.037   0.383  0.0034 -0.8631  1.0515
   97MOL   H27636948   6.158   4.058   0.415  0.0470 -0.9097 -0.5058
   97MOL   H27736949   6.326   3.981   0.658 -2.0937  0.6010  1.1277
   97MOL   H27836950   6.493   3.898   0.454  1.3644  0.5855  1.5828
   97MOL   H27936951   6.500   3.831   0.616  0.5653 -1.5219  0.0437
   97MOL   H28036952   6.605   3.688   0.477  0.4180 -2.7834  0.2650
   97MOL   H28136953   6.493   3.599   0.680 -1.6355  1.7125 -0.9779
   97MOL   H28236954   6.505   3.479   0.550 -1.3199 -1.5769  1.3792
   97MOL   H28336955   6.352   3.563   0.586 -0.2521 -0.8459 -1.6037
   97MOL   H28436956   6.454   3.701   0.256 -1.6002  1.7845  0.7614
   97MOL   H28536957   6.336   3.629   0.328  0.3400 -1.1058 -2.0660
   97MOL   H28636958   6.504   3.546   0.313 -1.6611 -0.2136 -2.6066
   97MOL   C28736959   6.120   3.915   0.633 -0.8145 -0.0114  0.5157
   97MOL   C28836960   6.070   4.026   0.739  0.4040  0.7804  0.6294
   97MOL   O28936961   6.136   3.997   0.863  0.1416 -0.0120 -0.1996
   97MOL   C29036962   6.215   4.103   0.913 -0.1148 -0.8931 -0.0213
   97MOL   C29136963   6.322   4.038   1.010  0.4608 -0.1509  0.3895
   97MOL   C29236964   6.395   4.143   1.088  0.1807 -0.2725  0.8885
   97MOL   C29336965   6.420   3.939   0.934  0.2531  0.0191 -0.0908
   97MOL   H29436966   6.110   3.816   0.677 -1.0890 -0.5259 -0.7119
   97MOL   H29536967   6.052   3.922   0.548 -0.6785  0.9795  0.4821
   97MOL   H29636968   6.083   4.125   0.694 -0.4610  0.3543 -0.5945
   97MOL   H29736969   6.258   4.156   0.828  0.1862 -1.6141 -0.3250
   97MOL   H29836970   6.152   4.167   0.975  1.2617  0.9863 -0.4942
   97MOL   H29936971   6.266   3.990   1.091  0.3118 -0.2554  0.2224
   97MOL   H30036972   6.328   4.211   1.140 -0.9557 -2.5169  2.4777
   97MOL   H30136973   6.459   4.192   1.014 -1.6823  1.9766  0.7175
   97MOL   H30236974   6.444   4.103   1.177 -2.5010 -0.6073  2.2780
   97MOL   H30336975   6.474   4.003   0.865  2.0148  2.5917  3.4785
   97MOL   H30436976   6.478   3.880   1.006 -2.4738  0.3859  2.5469
   97MOL   H30536977   6.366   3.864   0.876 -1.3892  0.4028  0.9062
   97MOL   C30636978   5.914   4.019   0.752  0.4101 -0.0327 -0.3134
   97MOL   C30736979   5.855   4.123   0.858 -0.6868  0.0087 -0.3287
   97MOL   O30836980   5.865   4.251   0.796 -0.4964  0.2172  0.4272
   97MOL   C30936981   5.920   4.348   0.884  0.2288 -0.1734  0.7100
   97MOL   C31036982   5.911   4.486   0.818  0.6554  0.0556  0.1844
   97MOL   C31136983   5.767   4.542   0.814  0.4984 -0.0307 -0.0848
   97MOL   C31236984   5.974   4.493   0.679  0.3459  0.7444  0.1202
   97MOL   H31336985   5.881   3.919   0.779 -3.0309  0.2943 -2.9076
   97MOL   H31436986   5.856   4.030   0.660  0.4329 -1.4083 -0.4998
   97MOL   H31536987   5.914   4.130   0.949 -2.1723  0.5044  0.6228
   97MOL   H31636988   6.024   4.320   0.902  0.4500 -0.6129 -1.1304
   97MOL   H31736989   5.868   4.346   0.979 -1.9208 -0.8597 -0.4422
   97MOL   H31836990   5.974   4.556   0.874  1.0512 -0.4617  0.3890
   97MOL   H31936991   5.779   4.639   0.765 -0.1666  1.1856  2.0650
   97MOL   H32036992   5.728   4.565   0.913  1.3947  1.0430  0.0366
   97MOL   H32136993   5.692   4.479   0.767  0.0268  1.0578 -0.8274
   97MOL   H32236994   6.071   4.445   0.689  0.7081  1.4378 -0.0284
   97MOL   H32336995   5.982   4.596   0.643 -0.3858  1.1415  1.0858
   97MOL   H32436996   5.924   4.438   0.599 -0.2897 -0.9196  1.6549
   97MOL   C32536997   5.702   4.103   0.888 -0.1036  0.0980  0.8393
   97MOL   C32636998   5.665   3.964   0.958 -0.3172  0.3881 -0.3056
   97MOL   O32736999   5.729   3.960   1.089 -0.5031 -0.1844 -0.5988
   97MOL   C32837000   5.772   3.826   1.128  0.1668 -0.3760 -0.0378
   97MOL   C32937001   5.842   3.822   1.260  0.1723 -0.1437 -0.1696
   97MOL   C33037002   5.962   3.916   1.258 -0.5919 -0.0569 -0.7124
   97MOL   C33137003   5.749   3.857   1.382  0.7205 -0.3349 -0.0674
   97MOL   H33237004   5.652   4.106   0.791  0.1264 -0.1945  0.7086
   97MOL   H33337005   5.653   4.189   0.934 -1.4937  0.0093 -0.4556
   97MOL   H33437006   5.679   3.873   0.900 -1.0772  0.5766 -0.8050
   97MOL   H33537007   5.682   3.766   1.127  0.2391 -0.5171 -3.7121
   97MOL   H33637008   5.843   3.781   1.059 -1.2421 -4.8139  1.2841
   97MOL   H33737009   5.875   3.721   1.280  1.1094  0.6174  2.2993
   97MOL   H33837010   5.917   4.015   1.262 -2.1246 -0.6941 -1.9696
   97MOL   H33937011   6.027   3.907   1.345 -0.7529  2.0300 -0.3648
   97MOL   H34037012   6.029   3.915   1.172  1.8013 -0.6876  1.1012
   97MOL   H34137013   5.659   3.796   1.375 -0.4563  1.4038 -0.3706
   97MOL   H34237014   5.801   3.837   1.475  2.0988 -1.6704 -1.0830
   97MOL   H34337015   5.720   3.960   1.401  0.8543  0.0343 -1.7837
   97MOL   C34437016   5.511   3.955   0.978  0.0730 -0.0853 -0.1668
   97MOL   C34537017   5.428   3.967   0.855 -0.1428  0.1885  0.1986
   97MOL   O34637018   5.468   3.869   0.763  0.1082  0.1752 -0.1395
   97MOL   C34737019   5.417   3.883   0.628  0.5232  0.7560 -0.5665
   97MOL   C34837020   5.527   3.826   0.534  0.5715  0.1983  0.2864
   97MOL   C34937021   5.474   3.833   0.386  0.1582 -0.2787 -0.7486
   97MOL   C35037022   5.562   3.680   0.576  0.7014 -0.9094  0.1524
   97MOL   H35137023   5.471   4.021   1.055 -0.3933  0.0185 -0.4949
   97MOL   H35237024   5.497   3.865   1.037  3.1146 -0.0827  0.6605
   97MOL   H35337025   5.444   4.065   0.809 -0.9929  0.3875  0.3211
   97MOL   H35437026   5.398   3.988   0.603  2.6610  1.0541 -1.0992
   97MOL   H35537027   5.324   3.831   0.609 -0.8780  3.1229 -0.3446
   97MOL   H35637028   5.607   3.889   0.573  0.0349  0.9945  0.1127
   97MOL   H35737029   5.384   3.775   0.370 -0.1909  0.5265 -1.7514
   97MOL   H35837030   5.554   3.800   0.320  0.3836 -0.0279 -0.6048
   97MOL   H35937031   5.452   3.937   0.363  1.1568  0.6316  2.0891
   97MOL   H36037032   5.617   3.680   0.670  1.6399 -0.2403 -0.3775
   97MOL   H36137033   5.474   3.616   0.584 -0.6625  0.9370  0.2059
   97MOL   H36237034   5.623   3.630   0.501 -0.3693 -0.3473 -1.1076
   97MOL   C36337035   5.279   3.948   0.881  0.1928  0.8440  0.5687
   97MOL   C36437036   5.214   4.064   0.962  0.0758  0.5788 -0.1647
   97MOL   O36537037   5.079   4.035   0.980 -0.1986 -0.4200  0.1531
   97MOL   C36637038   5.010   4.141   1.054  0.1977 -0.3458 -0.7401
   97MOL   C36737039   4.864   4.114   1.038  0.1512 -0.7323 -0.9603
   97MOL   C36837040   4.783   4.226   1.109  0.7017  0.9113  0.1559
   97MOL   C36937041   4.825   3.972   1.098  0.4280  0.0194 -0.2454
   97MOL   H37037042   5.231   3.924   0.786  1.3268 -0.2993  0.2652
   97MOL   H37137043   5.254   3.862   0.944  0.0697  0.5199  0.0827
   97MOL   H37237044   5.231   4.150   0.897 -3.1094  0.8626 -0.7120
   97MOL   H37337045   5.034   4.126   1.159 -2.8859  0.5476  0.1475
   97MOL   H37437046   5.035   4.243   1.025 -0.8905 -0.2611 -1.4104
   97MOL   H37537047   4.847   4.117   0.931  1.4328  3.0824 -1.1366
   97MOL   H37637048   4.678   4.196   1.112  0.5133  1.4183 -0.8805
   97MOL   H37737049   4.798   4.310   1.041  0.0709  2.2072  1.5931
   97MOL   H37837050   4.826   4.251   1.206  3.0596  0.5928 -0.7716
   97MOL   H37937051   4.900   3.901   1.064  1.5372  1.3781 -0.6749
   97MOL   H38037052   4.729   3.933   1.064  1.0753 -0.5869 -1.4059
   97MOL   H38137053   4.813   3.973   1.206 -0.1914 -2.2804 -0.2577
   97MOL   H38237054   5.265   4.087   1.055 -2.1729  2.3435  0.6754
   98MOL     C137055   3.777   1.209   2.062 -0.0275 -0.0470  0.3765
   98MOL     C237056   3.695   1.337   2.052  0.1932  0.4580 -0.6742
   98MOL     O337057   3.567   1.315   1.996  0.6934  0.1317  0.4408
   98MOL     C437058   3.566   1.259   1.868 -0.0521 -0.1588  0.6995
   98MOL     C537059   3.424   1.299   1.811 -0.1642 -0.1884 -0.1343
   98MOL     C637060   3.387   1.218   1.689 -0.0208  0.0087 -0.9258
   98MOL     C737061   3.407   1.441   1.773 -0.8175 -0.0593 -0.1104
   98MOL     H837062   3.824   1.192   1.965  1.6104 -0.1275  1.1869
   98MOL     H937063   3.851   1.234   2.137  2.1884 -2.4837 -0.9324
   98MOL    H1037064   3.749   1.416   2.000 -1.6304  0.4033 -2.7186
   98MOL    H1137065   3.581   1.151   1.868 -2.4089 -0.5055  1.1275
   98MOL    H1237066   3.639   1.305   1.802 -0.1771  1.3794  1.6230
   98MOL    H1337067   3.351   1.274   1.887  0.2035 -1.6620 -0.2537
   98MOL    H1437068   3.308   1.263   1.629 -0.5881  1.5600  0.9331
   98MOL    H1537069   3.477   1.205   1.628 -0.2595 -3.2956 -0.6602
   98MOL    H1637070   3.357   1.117   1.715  0.0888  0.3086  0.3744
   98MOL    H1737071   3.481   1.474   1.699 -1.6326 -2.5945 -2.1164
   98MOL    H1837072   3.311   1.460   1.724 -0.2895 -0.9244 -1.5152
   98MOL    H1937073   3.426   1.501   1.862 -1.0912  0.2780 -0.2759
   98MOL    H2037074   3.726   1.118   2.093 -0.8128  0.3268  0.2196
   98MOL    C2137075   3.673   1.395   2.195 -0.2545 -0.2186 -0.6103
   98MOL    C2237076   3.589   1.528   2.197 -0.2474  0.0252  0.2916
   98MOL    O2337077   3.537   1.552   2.327 -0.0698 -0.1986  0.3160
   98MOL    C2437078   3.415   1.477   2.344  0.0078  0.7617  0.6708
   98MOL    C2537079   3.347   1.501   2.480 -0.2340 -1.4320 -0.0265
   98MOL    C2637080   3.458   1.503   2.592  0.4910 -0.1389  0.0057
   98MOL    C2737081   3.271   1.630   2.479 -0.3403 -0.6176  0.4628
   98MOL    H2837082   3.622   1.320   2.256  0.7786 -0.2222  0.2638
   98MOL    H2937083   3.764   1.415   2.250 -2.0086  0.8916  2.0030
   98MOL    H3037084   3.505   1.535   2.128 -0.3151  0.4806  0.4196
   98MOL    H3137085   3.436   1.371   2.343 -2.1865  0.2775  2.1262
   98MOL    H3237086   3.337   1.488   2.269 -1.1390 -2.6098  1.3005
   98MOL    H3337087   3.274   1.427   2.514  0.1144 -2.1246 -0.7516
   98MOL    H3437088   3.518   1.413   2.580 -1.1203 -1.1921 -0.4122
   98MOL    H3537089   3.417   1.501   2.693  0.5206 -1.0730  0.0034
   98MOL    H3637090   3.520   1.592   2.588  0.6968 -0.3595 -2.8721
   98MOL    H3737091   3.219   1.639   2.574  1.2835 -1.6569  1.4763
   98MOL    H3837092   3.345   1.711   2.471 -0.8338 -0.3565 -1.6758
   98MOL    H3937093   3.201   1.644   2.398  0.4954 -0.8737 -0.3095
   98MOL    C4037094   3.679   1.654   2.178 -0.6764 -0.2397  0.0537
   98MOL    C4137095   3.601   1.782   2.178 -0.7470 -0.6769  0.1504
   98MOL    O4237096   3.503   1.773   2.080 -0.0870 -0.8989 -0.2935
   98MOL    C4337097   3.373   1.800   2.128 -0.6829  0.4522 -0.2987
   98MOL    C4437098   3.280   1.804   2.008 -0.2156  0.1956  0.4100
   98MOL    C4537099   3.132   1.815   2.045 -0.4552  0.2749  1.2499
   98MOL    C4637100   3.327   1.902   1.903  0.3246  0.7493 -0.0507
   98MOL    H4737101   3.742   1.637   2.091 -1.9128  3.0258 -1.5689
   98MOL    H4837102   3.754   1.667   2.256  0.3500  0.2904 -1.0058
   98MOL    H4937103   3.570   1.779   2.282  1.0319  0.2651  0.7375
   98MOL    H5037104   3.364   1.889   2.191  2.1583  1.6924 -1.5515
   98MOL    H5137105   3.346   1.720   2.197  3.2198 -1.3000 -0.6630
   98MOL    H5237106   3.295   1.708   1.959 -1.9372  0.3364 -0.4291
   98MOL    H5337107   3.073   1.826   1.954  1.1026  0.1553  0.1916
   98MOL    H5437108   3.096   1.723   2.092  0.2308 -1.0228 -0.6678
   98MOL    H5537109   3.123   1.898   2.114  1.5669  0.7405  0.9870
   98MOL    H5637110   3.394   1.977   1.944  1.8791  0.3137 -1.7555
   98MOL    H5737111   3.253   1.950   1.838  0.7808  0.4415 -0.7988
   98MOL    H5837112   3.387   1.845   1.833 -2.4581  0.8422 -2.6301
   98MOL    C5937113   3.685   1.900   2.126  0.0431 -0.1368  0.5821
   98MOL    C6037114   3.641   2.037   2.188 -0.0759  0.4121 -0.1395
   98MOL    O6137115   3.695   2.140   2.103 -0.3757 -0.7459  0.0000
   98MOL    C6237116   3.621   2.176   1.990 -0.1604 -0.5461  0.4388
   98MOL    C6337117   3.700   2.248   1.883 -0.4843 -0.5378 -0.1344
   98MOL    C6437118   3.640   2.247   1.736 -0.1301  0.4149 -0.0467
   98MOL    C6537119   3.734   2.389   1.926 -0.3735  0.2191 -0.0873
   98MOL    H6637120   3.669   1.906   2.019 -1.1564  1.0883  0.8231
   98MOL    H6737121   3.794   1.889   2.132 -0.0387 -0.4508  1.6578
   98MOL    H6837122   3.532   2.050   2.183 -0.1656 -0.4515 -0.5829
   98MOL    H6937123   3.587   2.089   1.935  0.5912  0.5206 -1.7401
   98MOL    H7037124   3.537   2.240   2.018  0.5179  1.5005 -2.0453
   98MOL    H7137125   3.794   2.194   1.874  0.7225  1.2421  1.3071
   98MOL    H7237126   3.548   2.304   1.745 -0.8182 -0.3439 -1.8820
   98MOL    H7337127   3.620   2.146   1.699  1.3158  0.0219  0.2095
   98MOL    H7437128   3.707   2.295   1.665  1.8801 -0.0944  1.4544
   98MOL    H7537129   3.782   2.393   2.024  3.8135  2.4347 -2.1443
   98MOL    H7637130   3.805   2.433   1.857  0.8898  1.3871  1.9236
   98MOL    H7737131   3.640   2.444   1.935 -0.1449  1.0027 -2.3383
   98MOL    C7837132   3.679   2.060   2.333  0.4187 -0.1749 -0.5575
   98MOL    C7937133   3.612   2.176   2.403  0.2250  0.1482 -0.0530
   98MOL    O8037134   3.474   2.155   2.419 -0.0492 -0.2897  0.0496
   98MOL    C8137135   3.391   2.276   2.439 -1.1085 -0.0350 -0.5549
   98MOL    C8237136   3.243   2.238   2.389 -0.2513 -0.0407  0.0904
   98MOL    C8337137   3.196   2.100   2.444 -0.2926  0.0411  0.8574
   98MOL    C8437138   3.238   2.243   2.231  0.4738 -0.2622  1.0964
   98MOL    H8537139   3.787   2.076   2.333  0.5298 -0.9233 -0.6387
   98MOL    H8637140   3.640   1.972   2.385 -1.0932 -0.3307 -1.8920
   98MOL    H8737141   3.620   2.264   2.339 -0.8260  0.2437 -0.0504
   98MOL    H8837142   3.392   2.306   2.543  0.0514  1.5534 -1.0034
   98MOL    H8937143   3.432   2.365   2.391 -1.1965 -0.3198 -1.1753
   98MOL    H9037144   3.178   2.318   2.424  0.3720  0.1181  0.9040
   98MOL    H9137145   3.224   2.017   2.380 -2.2694 -1.2047  1.5581
   98MOL    H9237146   3.088   2.095   2.462 -0.0310 -2.6902  1.9791
   98MOL    H9337147   3.236   2.080   2.543 -0.9252 -0.8454  0.9430
   98MOL    H9437148   3.140   2.215   2.191 -0.5310  4.0954  0.3147
   98MOL    H9537149   3.306   2.169   2.188 -2.3843 -1.1289 -2.2265
   98MOL    H9637150   3.275   2.331   2.179  1.5233 -0.5683  1.3218
   98MOL    C9737151   3.667   2.200   2.543 -0.1977 -0.5930 -0.5786
   98MOL    C9837152   3.807   2.270   2.554 -0.2064 -0.4219 -0.5249
   98MOL    O9937153   3.836   2.353   2.444 -0.1312  0.8032 -0.4430
   98MOL   C10037154   3.761   2.470   2.451  0.1186 -1.0431  0.7424
   98MOL   C10137155   3.823   2.564   2.347  0.6743 -0.1213 -0.0777
   98MOL   C10237156   3.759   2.705   2.346 -0.3507 -0.1905  0.1795
   98MOL   C10337157   3.976   2.584   2.362 -0.1551 -0.0802  0.2728
   98MOL   H10437158   3.670   2.105   2.597  2.5192 -1.1574 -1.6672
   98MOL   H10537159   3.597   2.258   2.603  0.7117 -1.4107  1.3098
   98MOL   H10637160   3.799   2.334   2.642 -0.4294 -1.6812  0.3903
   98MOL   H10737161   3.763   2.524   2.546  1.9333  1.2171 -0.5172
   98MOL   H10837162   3.653   2.463   2.445 -0.1973  2.7081  0.8519
   98MOL   H10937163   3.819   2.530   2.244  1.5937 -1.3710  0.2854
   98MOL   H11037164   3.779   2.759   2.438 -2.1730  1.8671 -0.5587
   98MOL   H11137165   3.807   2.762   2.266 -0.7805 -0.3159 -0.1737
   98MOL   H11237166   3.651   2.695   2.331 -0.4296  1.1313 -0.2381
   98MOL   H11337167   4.002   2.661   2.289  1.2173 -0.4971  0.3148
   98MOL   H11437168   4.002   2.621   2.461 -1.5411 -0.8093  0.9259
   98MOL   H11537169   4.033   2.495   2.336 -1.4772 -0.6255 -0.8725
   98MOL   C11637170   3.928   2.173   2.584 -0.0336  0.4171  0.3704
   98MOL   C11737171   4.065   2.237   2.600 -0.4449  0.5535  0.0958
   98MOL   O11837172   4.059   2.323   2.715  0.1335 -0.4750 -0.0089
   98MOL   C11937173   4.166   2.422   2.717 -0.1045 -0.0494  0.1091
   98MOL   C12037174   4.153   2.519   2.841  0.2429  0.2660  0.1874
   98MOL   C12137175   4.299   2.570   2.870 -0.4098 -0.1001 -0.4684
   98MOL   C12237176   4.057   2.635   2.817 -0.2760 -0.3154  1.0744
   98MOL   H12337177   3.903   2.108   2.668 -1.8111  0.0349 -0.4176
   98MOL   H12437178   3.939   2.102   2.501 -0.0684  1.2109 -0.3158
   98MOL   H12537179   4.081   2.298   2.511  2.1825 -0.3813 -0.0944
   98MOL   H12637180   4.181   2.478   2.624  2.1854 -0.2864  0.3232
   98MOL   H12737181   4.259   2.370   2.740  1.2372  2.9167  1.7625
   98MOL   H12837182   4.121   2.455   2.923 -2.0368 -1.9206 -2.3056
   98MOL   H12937183   4.336   2.615   2.777 -0.6179  0.4511 -0.2899
   98MOL   H13037184   4.361   2.485   2.897 -2.1137 -0.4951  2.3706
   98MOL   H13137185   4.282   2.640   2.952 -1.1794  0.4758 -1.0983
   98MOL   H13237186   4.007   2.662   2.910  0.9908  0.1360  1.6293
   98MOL   H13337187   4.112   2.726   2.794 -0.2080 -0.2609  1.4442
   98MOL   H13437188   3.977   2.621   2.744  1.0112 -1.2753 -0.1834
   98MOL   C13537189   4.179   2.129   2.601 -0.0515  0.0050  0.0875
   98MOL   C13637190   4.191   2.039   2.475 -0.2116 -0.6415 -0.3197
   98MOL   O13737191   4.207   2.131   2.367  0.7345  0.2178  0.4894
   98MOL   C13837192   4.222   2.080   2.233  0.8256 -0.9120 -0.2596
   98MOL   C13937193   4.181   2.180   2.121  0.6328  0.0974  0.6652
   98MOL   C14037194   4.028   2.207   2.127  0.1686  0.6297  0.2015
   98MOL   C14137195   4.266   2.310   2.127 -0.7805 -0.1725 -0.3289
   98MOL   H14237196   4.278   2.174   2.612  0.3320 -0.4710 -1.2352
   98MOL   H14337197   4.174   2.072   2.693  1.8438  1.7251  1.2968
   98MOL   H14437198   4.103   1.974   2.473 -0.6894 -0.0364  0.3509
   98MOL   H14537199   4.155   1.997   2.211  0.9467 -1.3790  1.0718
   98MOL   H14637200   4.323   2.045   2.208  0.1606 -1.4367 -2.3181
   98MOL   H14737201   4.202   2.136   2.024 -0.9346  1.0997 -0.1407
   98MOL   H14837202   3.982   2.285   2.066 -3.3165 -0.8013  0.8850
   98MOL   H14937203   3.992   2.239   2.224 -1.1527  1.6695 -0.6071
   98MOL   H15037204   3.962   2.126   2.097 -3.1807  3.6812 -1.0576
   98MOL   H15137205   4.231   2.377   2.205  2.3395  1.5979 -0.3935
   98MOL   H15237206   4.371   2.299   2.152 -0.7855  0.5473  0.0029
   98MOL   H15337207   4.263   2.364   2.032  2.1241  0.3125 -0.1719
   98MOL   C15437208   4.315   1.953   2.484 -0.2197 -0.0607  0.3418
   98MOL   C15537209   4.315   1.821   2.402 -0.3654  0.3166 -0.6001
   98MOL   O15637210   4.441   1.762   2.424 -0.1420  0.0709 -0.3489
   98MOL   C15737211   4.509   1.757   2.300 -0.8876  0.2051 -0.2840
   98MOL   C15837212   4.665   1.739   2.314  1.1147  0.1462 -0.3450
   98MOL   C15937213   4.735   1.700   2.179 -0.5476  0.4546  0.0962
   98MOL   C16037214   4.732   1.866   2.372 -0.2405 -0.8859 -0.5734
   98MOL   H16137215   4.336   1.931   2.589 -1.1657 -1.8641  0.1772
   98MOL   H16237216   4.402   2.011   2.455 -1.2371  2.1133  1.5458
   98MOL   H16337217   4.296   1.844   2.298 -0.4875 -0.8175 -0.8280
   98MOL   H16437218   4.486   1.848   2.245 -1.5716 -0.0132 -0.3685
   98MOL   H16537219   4.466   1.667   2.254 -0.3799 -0.8924  1.3574
   98MOL   H16637220   4.689   1.659   2.384  0.4859  1.4419  1.3936
   98MOL   H16737221   4.688   1.612   2.135  0.8142 -2.0239  3.3274
   98MOL   H16837222   4.837   1.662   2.187 -0.4314  0.9558  1.1224
   98MOL   H16937223   4.718   1.777   2.104 -0.8032 -0.3479 -0.6654
   98MOL   H17037224   4.672   1.895   2.459 -0.4365 -0.5367 -0.8243
   98MOL   H17137225   4.836   1.844   2.396  0.1397 -0.9185 -2.1972
   98MOL   H17237226   4.727   1.951   2.304  0.3631 -1.7927 -1.7587
   98MOL   C17337227   4.203   1.723   2.454 -0.2906 -0.1626  0.1187
   98MOL   C17437228   4.208   1.576   2.403  0.1880  0.2347  0.3142
   98MOL   O17537229   4.140   1.493   2.495 -0.1134  0.1546 -0.1523
   98MOL   C17637230   4.228   1.442   2.600  0.7167  0.4190 -0.3813
   98MOL   C17737231   4.159   1.337   2.683 -0.6794 -0.2959  0.5971
   98MOL   C17837232   4.120   1.213   2.604 -0.4006  0.4323 -0.5443
   98MOL   C17937233   4.249   1.309   2.805 -0.0989 -1.1541  0.1104
   98MOL   H18037234   4.210   1.725   2.563 -0.4070  1.6480  0.1080
   98MOL   H18137235   4.101   1.755   2.434 -0.7952 -1.6942  0.1733
   98MOL   H18237236   4.307   1.537   2.378  0.5624  1.0672  0.4984
   98MOL   H18337237   4.264   1.525   2.661  0.5514 -0.0889  0.4067
   98MOL   H18437238   4.321   1.405   2.555  0.8467 -1.2896  1.2214
   98MOL   H18537239   4.071   1.391   2.718 -2.6056 -2.1863 -1.1704
   98MOL   H18637240   4.214   1.176   2.563 -0.7096  0.3175 -1.1586
   98MOL   H18737241   4.065   1.153   2.677  1.2223  0.4420  0.6959
   98MOL   H18837242   4.041   1.240   2.534  1.4403  2.0485 -2.0194
   98MOL   H18937243   4.209   1.237   2.876  0.2507  0.4071  1.9339
   98MOL   H19037244   4.276   1.401   2.856 -0.9042 -0.1436 -1.2630
   98MOL   H19137245   4.340   1.257   2.773  1.8409  3.1256 -1.8126
   98MOL   C19237246   4.135   1.564   2.267  0.2624  0.0003 -0.4970
   98MOL   C19337247   4.204   1.464   2.170 -0.0174  0.0392  0.6146
   98MOL   O19437248   4.124   1.442   2.052 -1.1656 -0.2184  0.3063
   98MOL   C19537249   4.143   1.533   1.943 -0.4085  0.1739 -0.4985
   98MOL   C19637250   4.223   1.464   1.827 -0.8861  0.7106  0.1757
   98MOL   C19737251   4.272   1.560   1.721 -0.4489 -0.3412 -0.3125
   98MOL   C19837252   4.143   1.352   1.766 -0.3407  0.0971  0.2098
   98MOL   H19937253   4.116   1.660   2.220  0.3981  0.4319  0.3331
   98MOL   H20037254   4.038   1.517   2.284 -0.5031  2.8440  3.5339
   98MOL   H20137255   4.300   1.499   2.131  0.0004  0.8216  1.3549
   98MOL   H20237256   4.191   1.621   1.983  0.3286 -0.6772  0.5218
   98MOL   H20337257   4.042   1.560   1.914 -0.2086  1.9395  0.4393
   98MOL   H20437258   4.317   1.426   1.867 -1.6029 -0.5543  0.6773
   98MOL   H20537259   4.345   1.623   1.772  0.0691 -0.6442 -0.6748
   98MOL   H20637260   4.316   1.500   1.642 -1.8700  0.3571 -1.6675
   98MOL   H20737261   4.186   1.616   1.684 -1.2773 -0.3240  1.5796
   98MOL   H20837262   4.111   1.289   1.849 -1.3129 -0.5380 -0.6381
   98MOL   H20937263   4.062   1.391   1.704 -0.5476  0.6988  0.8514
   98MOL   H21037264   4.197   1.292   1.692  0.6710  2.4460 -1.0120
   98MOL   C21137265   4.226   1.324   2.237 -0.2918  1.3780 -0.8673
   98MOL   C21237266   4.289   1.212   2.153 -0.1023 -0.0963 -0.6521
   98MOL   O21337267   4.389   1.136   2.220  0.0341 -0.5870  0.5563
   98MOL   C21437268   4.524   1.156   2.187 -1.3808 -0.2122 -0.9663
   98MOL   C21537269   4.574   1.270   2.272 -1.0460  0.2667 -0.1992
   98MOL   C21637270   4.595   1.221   2.413  0.8046 -0.1536  0.0908
   98MOL   C21737271   4.708   1.319   2.218 -0.4229 -1.0997  0.1740
   98MOL   H21837272   4.132   1.287   2.279 -0.6114  1.2111 -1.7259
   98MOL   H21937273   4.299   1.353   2.313  0.7572  1.1586 -1.7815
   98MOL   H22037274   4.340   1.257   2.068  2.1918  1.6811  1.5894
   98MOL   H22137275   4.551   1.164   2.082  0.8845  1.7304 -0.2626
   98MOL   H22237276   4.576   1.068   2.227 -3.6330 -1.5024 -0.7625
   98MOL   H22337277   4.511   1.358   2.274  0.2186  1.1706  0.6606
   98MOL   H22437278   4.603   1.306   2.481 -2.4452 -1.3286  2.0567
   98MOL   H22537279   4.508   1.169   2.454  0.4713 -0.1162 -0.5756
   98MOL   H22637280   4.676   1.149   2.423 -0.4836 -1.6773 -0.1896
   98MOL   H22737281   4.728   1.416   2.264 -0.2527  0.4113 -2.9081
   98MOL   H22837282   4.703   1.348   2.113 -1.8895  3.1104  1.2925
   98MOL   H22937283   4.782   1.241   2.233  0.7363 -0.0170  0.2162
   98MOL   C23037284   4.179   1.120   2.088 -0.0757  0.9490 -0.0783
   98MOL   C23137285   4.235   0.999   2.004 -0.9023 -0.8251  0.5689
   98MOL   O23237286   4.134   0.903   2.002 -0.4548  0.3323  0.4573
   98MOL   C23337287   4.181   0.769   2.036  0.1484  0.4837  0.1977
   98MOL   C23437288   4.076   0.659   2.007 -0.3050 -0.0180  1.1310
   98MOL   C23537289   4.064   0.622   1.862 -0.1283  0.4677 -0.3586
   98MOL   C23637290   4.106   0.530   2.085  0.1447  0.3390  0.1283
   98MOL   H23737291   4.104   1.177   2.034 -2.9684 -1.5792  1.0916
   98MOL   H23837292   4.116   1.074   2.165  3.2136 -1.0426  1.5429
   98MOL   H23937293   4.323   0.967   2.060 -0.6353 -0.2638  0.4718
   98MOL   H24037294   4.268   0.749   1.973  0.6594 -1.5260  1.4991
   98MOL   H24137295   4.217   0.760   2.138  1.7294  0.0961 -0.3776
   98MOL   H24237296   3.979   0.706   2.025 -0.7484  0.7078 -2.6635
   98MOL   H24337297   4.038   0.707   1.799  0.1899  0.8585  0.0352
   98MOL   H24437298   3.992   0.540   1.853 -0.6180  1.0029 -1.2961
   98MOL   H24537299   4.145   0.564   1.817 -1.4586 -0.5152 -1.5217
   98MOL   H24637300   4.113   0.547   2.192 -3.7565  0.6562  0.4198
   98MOL   H24737301   4.022   0.461   2.073 -0.8904  1.8109 -1.2322
   98MOL   H24837302   4.193   0.480   2.043  1.7391  1.6719  1.7728
   98MOL   C24937303   4.281   1.035   1.860  0.2646  0.6870  0.5150
   98MOL   C25037304   4.359   0.938   1.774 -0.3030  0.0487  1.1686
   98MOL   O25137305   4.378   1.005   1.651 -0.1636  0.5683  0.0051
   98MOL   C25237306   4.312   0.946   1.538  0.0910  0.2952 -0.1277
   98MOL   C25337307   4.367   1.004   1.405 -0.8783  0.2138 -0.4098
   98MOL   C25437308   4.516   0.970   1.385  0.0565  0.6651  0.0745
   98MOL   C25537309   4.332   1.150   1.376 -0.2801 -0.4831 -0.3941
   98MOL   H25637310   4.337   1.129   1.858  0.2777  0.6669 -0.0754
   98MOL   H25737311   4.197   1.060   1.795  2.7987  0.6865 -2.9016
   98MOL   H25837312   4.293   0.857   1.742  1.4691 -0.8280 -0.2950
   98MOL   H25937313   4.324   0.837   1.536  0.9035  0.2575  3.4206
   98MOL   H26037314   4.204   0.956   1.539  0.0257 -0.3548  1.5245
   98MOL   H26137315   4.318   0.953   1.322 -0.1917 -2.2766  0.6510
   98MOL   H26237316   4.570   1.017   1.468 -0.7202 -0.8507  1.4639
   98MOL   H26337317   4.564   1.018   1.299  3.4619  0.1181  1.5710
   98MOL   H26437318   4.538   0.865   1.372  0.7084  0.9185 -0.9363
   98MOL   H26537319   4.229   1.178   1.396 -0.9292 -2.0079 -1.5494
   98MOL   H26637320   4.389   1.215   1.443 -1.1090  0.8484 -0.9512
   98MOL   H26737321   4.367   1.177   1.276 -0.4028  1.2687  0.0052
   98MOL   C26837322   4.501   0.896   1.824  0.0956 -0.2048 -0.7904
   98MOL   C26937323   4.572   0.794   1.749  0.2993 -0.0279 -0.2518
   98MOL   O27037324   4.523   0.664   1.783 -0.4557 -0.7436  0.0491
   98MOL   C27137325   4.484   0.586   1.670  0.0308  0.7250  0.6774
   98MOL   C27237326   4.491   0.441   1.722 -0.0196  0.2436  0.0428
   98MOL   C27337327   4.405   0.346   1.641  0.1049 -0.0660  0.0051
   98MOL   C27437328   4.634   0.388   1.768 -0.3525  0.4453 -0.0825
   98MOL   H27537329   4.487   0.861   1.927 -2.1614  2.4416 -0.1342
   98MOL   H27637330   4.565   0.982   1.841 -0.6461  0.7130 -2.6050
   98MOL   H27737331   4.553   0.807   1.642  0.6038 -0.6451 -0.3817
   98MOL   H27837332   4.381   0.612   1.644 -0.5795 -0.3035  1.9761
   98MOL   H27937333   4.546   0.605   1.583 -2.1709 -0.2560 -1.1715
   98MOL   H28037334   4.445   0.438   1.821  0.6865 -1.2289  0.3469
   98MOL   H28137335   4.299   0.370   1.650 -0.3595 -2.7508  2.3298
   98MOL   H28237336   4.427   0.239   1.650 -1.0241 -0.3024  0.0368
   98MOL   H28337337   4.425   0.358   1.534 -2.3727 -2.7811 -0.8251
   98MOL   H28437338   4.614   0.289   1.809 -0.8051  0.3550 -0.5119
   98MOL   H28537339   4.671   0.446   1.852 -0.4202  1.0679 -0.4805
   98MOL   H28637340   4.718   0.384   1.699  0.6574 -1.7763  1.2169
   98MOL   C28737341   4.721   0.786   1.778  0.2853  0.3824 -0.2499
   98MOL   C28837342   4.796   0.921   1.741 -0.3425  0.2955  0.3182
   98MOL   O28937343   4.894   0.878   1.640 -0.8814 -0.3142 -0.1293
   98MOL   C29037344   4.843   0.878   1.504 -0.3205  0.5789 -0.7938
   98MOL   C29137345   4.963   0.876   1.409  0.1618  1.1757 -0.6728
   98MOL   C29237346   5.034   0.742   1.414 -0.9877 -0.0587  0.1634
   98MOL   C29337347   5.060   0.995   1.452  0.0871  0.4881  0.2225
   98MOL   H29437348   4.757   0.698   1.725 -0.4983 -1.1553  1.7240
   98MOL   H29537349   4.742   0.752   1.879  1.4483  2.9895  0.4358
   98MOL   H29637350   4.731   0.998   1.700  1.4164  1.4789 -0.2971
   98MOL   H29737351   4.780   0.790   1.492 -0.1522  0.4000 -0.3589
   98MOL   H29837352   4.780   0.967   1.495 -0.8391  0.5128  2.0068
   98MOL   H29937353   4.941   0.890   1.303  2.0124  1.5394 -1.0180
   98MOL   H30037354   5.096   0.739   1.503  0.0423  1.1923 -0.4867
   98MOL   H30137355   5.100   0.717   1.331  1.3417 -2.2648  2.5909
   98MOL   H30237356   4.960   0.662   1.415 -0.9345 -0.1416 -1.1717
   98MOL   H30337357   5.024   1.097   1.441  3.2619  1.6372 -0.0854
   98MOL   H30437358   5.085   0.979   1.556 -0.8111  1.0944  0.5349
   98MOL   H30537359   5.154   0.970   1.403 -0.4107 -0.0978 -0.4614
   98MOL   C30637360   4.872   0.972   1.865 -0.6864 -0.7102  0.0645
   98MOL   C30737361   4.927   1.114   1.839  0.0320 -0.4678 -0.1552
   98MOL   O30837362   4.820   1.209   1.813 -0.1691  0.5970 -0.0671
   98MOL   C30937363   4.840   1.286   1.698  0.6134  0.1603 -0.2414
   98MOL   C31037364   4.749   1.409   1.702 -0.6719  0.1862 -0.7114
   98MOL   C31137365   4.785   1.505   1.815 -0.6705 -0.0992 -0.5856
   98MOL   C31237366   4.601   1.373   1.712 -0.0861 -0.1444 -0.1832
   98MOL   H31337367   4.958   0.907   1.885  0.5608  0.6942 -0.6899
   98MOL   H31437368   4.813   0.979   1.956 -1.1988  0.3497 -0.3533
   98MOL   H31537369   4.991   1.115   1.750 -0.2436  0.4205 -0.3418
   98MOL   H31637370   4.814   1.234   1.605  3.5638 -1.4421 -0.2419
   98MOL   H31737371   4.942   1.326   1.694  0.1303  1.3790 -0.6938
   98MOL   H31837372   4.769   1.457   1.606  0.2274  3.5295  1.0451
   98MOL   H31937373   4.767   1.454   1.910 -2.7960 -1.3457 -1.6238
   98MOL   H32037374   4.713   1.585   1.797 -0.7367 -0.5470 -2.4183
   98MOL   H32137375   4.885   1.548   1.811 -0.8925  0.5229  0.4100
   98MOL   H32237376   4.570   1.300   1.636  0.0689 -2.3563  1.8062
   98MOL   H32337377   4.542   1.462   1.689 -0.4804 -0.0510  1.1340
   98MOL   H32437378   4.579   1.330   1.810 -0.1902  0.9688  0.2848
   98MOL   C32537379   4.999   1.168   1.965  0.7855  1.1137  0.2070
   98MOL   C32637380   5.142   1.115   2.006  0.1855 -0.1587  0.4846
   98MOL   O32737381   5.230   1.155   1.892  0.2962  0.4483 -0.0112
   98MOL   C32837382   5.305   1.049   1.827 -0.7908 -0.2371  0.1512
   98MOL   C32937383   5.393   1.101   1.714  0.0429  0.2235 -0.1435
   98MOL   C33037384   5.515   1.183   1.759 -0.0055  0.1053  0.3702
   98MOL   C33137385   5.438   0.992   1.623 -0.4206  0.5322  0.2025
   98MOL   H33237386   4.929   1.163   2.049  0.4709 -3.0750 -0.2082
   98MOL   H33337387   5.014   1.274   1.944 -3.6681  1.4268 -1.8898
   98MOL   H33437388   5.148   1.007   2.014  1.2486 -0.0784  0.8543
   98MOL   H33537389   5.353   0.983   1.899 -1.4238 -1.1566 -0.2614
   98MOL   H33637390   5.225   0.989   1.783 -0.6593 -0.0210 -0.3893
   98MOL   H33737391   5.325   1.164   1.657  0.4002  0.4032 -0.3714
   98MOL   H33837392   5.583   1.210   1.678 -0.1860  0.9749  0.5084
   98MOL   H33937393   5.484   1.273   1.811 -0.1883  0.2892 -0.0533
   98MOL   H34037394   5.569   1.125   1.834  1.6729  1.8865  0.5839
   98MOL   H34137395   5.495   1.035   1.541  3.1360  0.5244  2.5422
   98MOL   H34237396   5.500   0.926   1.684 -0.0305  0.5952 -0.1237
   98MOL   H34337397   5.359   0.932   1.577  1.9013 -1.0816 -1.8514
   98MOL   C34437398   5.193   1.185   2.129 -0.1366 -0.0910 -0.5559
   98MOL   C34537399   5.345   1.164   2.164 -0.2486  0.0814  0.7529
   98MOL   O34637400   5.377   1.251   2.273  0.5025  0.0719 -0.4178
   98MOL   C34737401   5.436   1.372   2.244 -0.2991 -0.0925 -0.1272
   98MOL   C34837402   5.587   1.356   2.210 -0.0738  0.4043  0.2223
   98MOL   C34937403   5.665   1.285   2.315 -0.7040  1.6366  0.0743
   98MOL   C35037404   5.652   1.492   2.193  0.1456 -0.1792  0.2390
   98MOL   H35137405   5.139   1.151   2.217  0.1642 -1.1191 -0.7643
   98MOL   H35237406   5.164   1.290   2.123 -2.6499 -0.8382 -2.1042
   98MOL   H35337407   5.413   1.182   2.081 -2.0668  0.5827 -0.6540
   98MOL   H35437408   5.429   1.432   2.335  0.7647 -0.3556  0.1401
   98MOL   H35537409   5.393   1.416   2.154  2.4693  0.4474 -1.2455
   98MOL   H35637410   5.598   1.304   2.115  2.1638  2.2026 -0.5375
   98MOL   H35737411   5.650   1.322   2.416 -2.1046  0.9990  0.1124
   98MOL   H35837412   5.772   1.277   2.295 -1.2891 -0.5280 -2.5171
   98MOL   H35937413   5.629   1.182   2.312 -1.5653  1.8480  2.0363
   98MOL   H36037414   5.761   1.490   2.184  0.1778  0.5957  0.4063
   98MOL   H36137415   5.610   1.560   2.118  1.1558  0.9009  0.6271
   98MOL   H36237416   5.653   1.545   2.288  1.3589  0.6270 -0.2061
   98MOL   C36337417   5.361   1.015   2.199 -0.8583 -0.1758  0.6375
   98MOL   C36437418   5.498   0.956   2.218  0.1397  0.3537  0.0815
   98MOL   O36537419   5.500   0.812   2.205 -0.1256 -0.0894  0.0784
   98MOL   C36637420   5.477   0.735   2.322  0.3569  0.4656  0.1654
   98MOL   C36737421   5.495   0.583   2.280  0.5009  0.3660 -0.7196
   98MOL   C36837422   5.451   0.476   2.382 -0.1087 -0.1742  0.2000
   98MOL   C36937423   5.635   0.542   2.227  0.3409  0.4044 -0.9368
   98MOL   H37037424   5.295   0.992   2.284 -0.4960 -1.1083  0.6717
   98MOL   H37137425   5.323   0.954   2.117  2.2454  1.1573 -1.8522
   98MOL   H37237426   5.523   0.984   2.320 -1.7999 -0.8814  0.9106
   98MOL   H37337427   5.545   0.770   2.400 -0.3200  0.4903  0.7548
   98MOL   H37437428   5.375   0.755   2.356  0.8651  1.5351  1.0847
   98MOL   H37537429   5.433   0.579   2.191  1.9109  3.9596 -1.9503
   98MOL   H37637430   5.525   0.466   2.461 -0.1657 -0.0454  0.2681
   98MOL   H37737431   5.449   0.386   2.319 -2.4772  0.7473 -1.1113
   98MOL   H37837432   5.351   0.496   2.421 -0.0006 -1.6190  1.2557
   98MOL   H37937433   5.714   0.542   2.303 -0.6356 -1.8043  0.1062
   98MOL   H38037434   5.671   0.608   2.148  1.1231  1.1463  0.0186
   98MOL   H38137435   5.630   0.437   2.201 -1.5651  0.0778  0.6551
   98MOL   H38237436   5.564   1.000   2.142 -1.4542  0.1989 -1.4233
   99MOL     C137437   3.385   3.194   6.399  0.3899 -0.5299 -0.4141
   99MOL     C237438   3.281   3.116   6.497 -0.1217  0.3948 -0.4569
   99MOL     O337439   3.149   3.097   6.447  0.4565 -0.2608 -0.6825
   99MOL     C437440   3.085   3.219   6.418  0.1059  0.2228 -0.2300
   99MOL     C537441   2.939   3.184   6.388 -0.3569  0.1311  0.0072
   99MOL     C637442   2.879   3.282   6.290  0.4295 -0.0002  0.0636
   99MOL     C737443   2.856   3.159   6.510  0.5484  0.5365  0.0355
   99MOL     H837444   3.352   3.297   6.389  0.9850 -0.2048  0.8812
   99MOL     H937445   3.482   3.194   6.449  1.2139  1.5847 -1.9362
   99MOL    H1037446   3.282   3.177   6.588 -1.5853 -0.9860  0.4987
   99MOL    H1137447   3.143   3.251   6.332  0.0716 -3.2565 -1.6387
   99MOL    H1237448   3.082   3.285   6.505  1.0761  0.6423 -0.5167
   99MOL    H1337449   2.925   3.096   6.325  0.8328  0.6516 -1.0058
   99MOL    H1437450   2.783   3.246   6.251 -0.3141  0.5239  1.3678
   99MOL    H1537451   2.893   3.385   6.323  2.9306  0.2422 -1.6377
   99MOL    H1637452   2.940   3.274   6.200 -0.0249  0.2571 -0.2698
   99MOL    H1737453   2.846   3.240   6.582 -0.7990 -0.4914  1.0285
   99MOL    H1837454   2.756   3.125   6.484  1.5297 -2.3210 -0.1348
   99MOL    H1937455   2.900   3.087   6.578  0.3589  0.1634 -0.2369
   99MOL    H2037456   3.399   3.153   6.299  2.4002  2.6870 -1.5069
   99MOL    C2137457   3.347   2.980   6.536  0.0446 -0.4413  0.1848
   99MOL    C2237458   3.469   2.959   6.617 -0.2823 -0.0943  0.3090
   99MOL    O2337459   3.470   3.053   6.733  0.3044  0.7219  0.2575
   99MOL    C2437460   3.588   3.133   6.744 -0.4760  0.4851  1.0814
   99MOL    C2537461   3.606   3.195   6.883  0.1047 -0.2225 -0.4791
   99MOL    C2637462   3.615   3.090   7.000 -0.1111  0.1239 -0.4016
   99MOL    C2737463   3.709   3.306   6.891 -0.4343  0.4954  0.0140
   99MOL    H2837464   3.270   2.919   6.581  0.4019 -0.0675  1.3329
   99MOL    H2937465   3.368   2.931   6.441 -2.4890 -0.4693 -0.3861
   99MOL    H3037466   3.547   2.987   6.546 -0.9041  1.2750  0.1483
   99MOL    H3137467   3.559   3.213   6.676 -0.1331  0.7039  1.1894
   99MOL    H3237468   3.675   3.081   6.706 -1.1129  2.0042 -2.6117
   99MOL    H3337469   3.516   3.254   6.903  0.5859  0.6156 -0.7565
   99MOL    H3437470   3.625   3.139   7.097  2.2951  2.2144 -1.6078
   99MOL    H3537471   3.694   3.019   6.976 -0.8014 -0.1364 -1.9579
   99MOL    H3637472   3.529   3.026   7.016  0.7220 -1.0749 -0.6605
   99MOL    H3737473   3.706   3.358   6.987 -3.3547  2.9836 -1.3627
   99MOL    H3837474   3.805   3.254   6.890 -1.5599 -1.6255  0.0326
   99MOL    H3937475   3.709   3.380   6.811  0.0182  1.0025  0.4801
   99MOL    C4037476   3.494   2.818   6.674  0.0631 -0.7608 -0.0574
   99MOL    C4137477   3.512   2.714   6.567 -0.1410 -0.1215 -0.4649
   99MOL    O4237478   3.505   2.581   6.618 -0.0617 -0.1094 -0.0645
   99MOL    C4337479   3.388   2.534   6.688 -0.4424 -0.4828 -0.0898
   99MOL    C4437480   3.381   2.385   6.710  0.0187 -0.3570  0.5081
   99MOL    C4537481   3.259   2.335   6.790 -0.2359 -0.1401 -0.0617
   99MOL    C4637482   3.412   2.311   6.574 -0.1351  0.2539  0.0107
   99MOL    H4737483   3.404   2.801   6.733  1.0630 -0.7080  1.5220
   99MOL    H4837484   3.579   2.830   6.742  0.3218  0.7958 -0.6203
   99MOL    H4937485   3.429   2.725   6.496 -0.2477 -2.5914 -0.7690
   99MOL    H5037486   3.299   2.583   6.647  0.1121  1.0985  0.5604
   99MOL    H5137487   3.397   2.584   6.784 -4.5264 -0.0176  0.1469
   99MOL    H5237488   3.469   2.383   6.774  1.4130  1.2200 -1.3207
   99MOL    H5337489   3.278   2.234   6.826  0.8033 -0.1866 -0.7212
   99MOL    H5437490   3.245   2.403   6.874  1.6224  0.9156 -0.5763
   99MOL    H5537491   3.170   2.329   6.727  1.0234 -0.2886 -1.8842
   99MOL    H5637492   3.391   2.204   6.572  0.3807  0.1614 -0.6941
   99MOL    H5737493   3.519   2.322   6.557 -0.0643 -0.5048 -0.0466
   99MOL    H5837494   3.362   2.354   6.488 -0.0556 -2.0214 -1.2112
   99MOL    C5937495   3.645   2.720   6.489  0.1957 -0.2673 -0.1836
   99MOL    C6037496   3.649   2.633   6.363  0.5336  0.4454  0.4096
   99MOL    O6137497   3.778   2.657   6.299 -0.1209  0.2321  0.2463
   99MOL    C6237498   3.850   2.541   6.275 -0.6041 -0.1987  0.4567
   99MOL    C6337499   3.966   2.574   6.184 -0.2954 -0.3590 -0.4931
   99MOL    C6437500   4.065   2.667   6.258 -0.4350  0.6053  0.5279
   99MOL    C6537501   4.037   2.446   6.149 -0.4601  0.7750 -0.2429
   99MOL    H6637502   3.725   2.698   6.560 -0.9416  2.9298  2.2168
   99MOL    H6737503   3.658   2.824   6.461  1.7382  0.1889  2.0544
   99MOL    H6837504   3.634   2.529   6.391  0.2272  0.3396 -0.1503
   99MOL    H6937505   3.877   2.497   6.371 -0.5461 -1.7179 -0.2404
   99MOL    H7037506   3.781   2.468   6.231 -1.3666 -0.0067  1.3120
   99MOL    H7137507   3.940   2.615   6.086 -2.6537 -1.1178 -0.2332
   99MOL    H7237508   4.154   2.689   6.199 -0.9619 -0.0274 -0.5242
   99MOL    H7337509   4.092   2.639   6.360 -0.1033  1.0614  0.5657
   99MOL    H7437510   4.011   2.761   6.264  1.0662  1.6900 -1.8565
   99MOL    H7537511   3.981   2.377   6.086  1.5438 -1.4220  0.3184
   99MOL    H7637512   4.117   2.467   6.077 -0.6412 -0.8866 -0.9426
   99MOL    H7737513   4.077   2.402   6.240 -0.5665  1.6311  0.2196
   99MOL    C7837514   3.556   2.680   6.250  0.4116  0.0207  0.0333
   99MOL    C7937515   3.431   2.603   6.217  0.2258 -0.5219 -0.2104
   99MOL    O8037516   3.357   2.670   6.116  0.5292  0.2578 -0.1123
   99MOL    C8137517   3.269   2.767   6.172 -0.4011  0.2185  0.2703
   99MOL    C8237518   3.212   2.872   6.079  0.0115  0.2399 -0.2109
   99MOL    C8337519   3.119   2.977   6.142  0.2209  0.2647  0.8312
   99MOL    C8437520   3.156   2.802   5.955  0.2842  1.7134  0.6713
   99MOL    H8537521   3.611   2.693   6.157 -1.0500  2.0753 -0.5848
   99MOL    H8637522   3.529   2.785   6.262 -1.8690 -0.7038  1.5743
   99MOL    H8737523   3.380   2.592   6.312  1.1479 -1.9641  0.1331
   99MOL    H8837524   3.183   2.717   6.216  0.3560  0.3143  1.9086
   99MOL    H8937525   3.323   2.816   6.253 -0.4105  0.9456 -0.1612
   99MOL    H9037526   3.300   2.928   6.047  0.6213 -1.8592 -2.3717
   99MOL    H9137527   3.171   3.011   6.232  1.3869  2.8504 -0.7576
   99MOL    H9237528   3.024   2.935   6.174  0.3196  0.0251  0.8152
   99MOL    H9337529   3.101   3.054   6.068  2.1500 -0.2575 -0.2127
   99MOL    H9437530   3.213   2.712   5.932 -1.6118  0.6125  0.1037
   99MOL    H9537531   3.150   2.875   5.874  1.8325  1.0956 -0.0184
   99MOL    H9637532   3.060   2.753   5.969  2.4170 -1.6746  4.1544
   99MOL    C9737533   3.460   2.467   6.164 -0.2468  0.7360 -0.2674
   99MOL    C9837534   3.347   2.362   6.157 -0.5716  0.4874  0.3178
   99MOL    O9937535   3.411   2.234   6.132 -0.5775  0.8454  0.1634
   99MOL   C10037536   3.460   2.159   6.246 -0.1127  0.9698 -0.2808
   99MOL   C10137537   3.584   2.067   6.219 -0.4133  0.0606  0.2207
   99MOL   C10237538   3.541   1.942   6.135 -0.2650  0.1501  0.3149
   99MOL   C10337539   3.707   2.138   6.152  0.3822 -0.5612 -0.8103
   99MOL   H10437540   3.543   2.424   6.220 -0.2535 -0.3741 -1.0972
   99MOL   H10537541   3.507   2.468   6.065  0.5803 -3.4800 -0.0030
   99MOL   H10637542   3.279   2.362   6.242 -1.2455  2.1311 -0.2007
   99MOL   H10737543   3.376   2.105   6.290  0.3526 -0.0139 -0.6053
   99MOL   H10837544   3.488   2.236   6.318 -1.5742 -1.2320  2.7649
   99MOL   H10937545   3.634   2.026   6.307  1.3161  1.6248  0.0199
   99MOL   H11037546   3.452   1.896   6.176  0.1307 -0.3704  0.6040
   99MOL   H11137547   3.520   1.973   6.033 -0.9123  3.6385  1.4524
   99MOL   H11237548   3.618   1.865   6.124 -0.8650 -0.3477 -0.4606
   99MOL   H11337549   3.780   2.067   6.113  1.4421  0.1468 -0.1542
   99MOL   H11437550   3.668   2.206   6.076 -0.2116  0.5393  0.4520
   99MOL   H11537551   3.755   2.213   6.215 -0.1095  2.9213 -4.3742
   99MOL   C11637552   3.255   2.377   6.035  0.2481 -0.0883  0.0753
   99MOL   C11737553   3.115   2.322   6.036  0.3987  0.2917 -0.6364
   99MOL   O11837554   3.055   2.399   6.138  0.0736 -0.0117 -0.6371
   99MOL   C11937555   2.956   2.334   6.226 -0.1942 -0.0920 -0.0576
   99MOL   C12037556   2.923   2.414   6.343  0.5514 -0.6822 -0.4145
   99MOL   C12137557   2.811   2.358   6.432  0.4437 -0.1196 -0.0246
   99MOL   C12237558   3.061   2.453   6.414 -1.1664 -0.9327 -0.8717
   99MOL   H12337559   3.244   2.485   6.023 -1.8183 -0.3821 -0.8574
   99MOL   H12437560   3.309   2.352   5.944  1.4289  1.8346  0.2124
   99MOL   H12537561   3.117   2.218   6.068 -0.0040 -0.0069 -1.5670
   99MOL   H12637562   2.978   2.232   6.259  0.3755  0.0887  0.1298
   99MOL   H12737563   2.868   2.324   6.163  0.1126 -2.0737 -0.1904
   99MOL   H12837564   2.878   2.507   6.309  0.4610 -0.4638  0.2776
   99MOL   H12937565   2.814   2.405   6.530  2.9174 -1.4646  0.6017
   99MOL   H13037566   2.815   2.251   6.454 -0.1848 -0.4416 -1.3923
   99MOL   H13137567   2.713   2.375   6.387  0.6683  0.9959 -0.0889
   99MOL   H13237568   3.106   2.363   6.455  0.4810 -0.1706 -0.9775
   99MOL   H13337569   3.130   2.507   6.349 -0.1026  2.3118  2.7434
   99MOL   H13437570   3.037   2.520   6.496 -0.5065 -0.1890 -1.2750
   99MOL   C13537571   3.021   2.342   5.913  0.1581 -0.1426 -0.1332
   99MOL   C13637572   3.058   2.247   5.800 -0.6950  0.1884 -0.1365
   99MOL   O13737573   3.042   2.118   5.843 -0.5307  0.4679 -0.1183
   99MOL   C13837574   3.139   2.016   5.818  0.7502  0.3559  0.4883
   99MOL   C13937575   3.099   1.889   5.888  0.4355 -0.8277  0.2921
   99MOL   C14037576   3.184   1.772   5.847 -0.4328 -0.2790  0.0642
   99MOL   C14137577   3.090   1.915   6.039  0.1868 -0.5001  0.4344
   99MOL   H14237578   2.927   2.301   5.949  0.3387 -0.3712  0.0776
   99MOL   H14337579   2.999   2.443   5.878 -0.0557 -0.4439 -0.8733
   99MOL   H14437580   3.161   2.259   5.767 -0.1062 -1.1645  1.1668
   99MOL   H14537581   3.228   2.054   5.869 -1.4593  0.0461  4.7790
   99MOL   H14637582   3.154   1.991   5.713  1.3048 -1.1272  0.9113
   99MOL   H14737583   2.997   1.870   5.854  0.1547  0.5781  0.3199
   99MOL   H14837584   3.197   1.764   5.739  0.2437  0.6182  0.0719
   99MOL   H14937585   3.138   1.686   5.895  0.4054  0.9508  3.1911
   99MOL   H15037586   3.282   1.778   5.896  0.3688  1.6543 -1.7119
   99MOL   H15137587   3.020   1.992   6.070  1.9683  1.7196 -0.9167
   99MOL   H15237588   3.059   1.830   6.100  0.6899 -0.9235  0.1009
   99MOL   H15337589   3.185   1.944   6.084  0.6949  0.1908 -1.0678
   99MOL   C15437590   2.980   2.263   5.666  0.0279  0.8493  0.2017
   99MOL   C15537591   3.008   2.398   5.587 -0.5236  0.5941  0.5584
   99MOL   O15637592   3.145   2.400   5.557  0.2918 -0.0915 -0.1051
   99MOL   C15737593   3.203   2.531   5.569  0.2655  0.1091 -0.4385
   99MOL   C15837594   3.345   2.504   5.605  0.7672 -0.1496 -0.3224
   99MOL   C15937595   3.420   2.414   5.503 -0.0820  0.0452  0.3622
   99MOL   C16037596   3.416   2.625   5.658 -0.2693 -0.7541 -1.0609
   99MOL   H16137597   2.876   2.252   5.698 -0.1304  2.3341  0.2486
   99MOL   H16237598   2.993   2.178   5.600  0.4292 -1.0024  2.5732
   99MOL   H16337599   2.978   2.475   5.658 -1.9718 -0.9601  1.6704
   99MOL   H16437600   3.162   2.581   5.657  1.4437 -2.1033  1.4399
   99MOL   H16537601   3.196   2.599   5.484  1.2675 -0.4768 -0.9955
   99MOL   H16637602   3.329   2.444   5.695 -0.8588 -0.2542 -0.6560
   99MOL   H16737603   3.381   2.314   5.480 -1.4045  0.4930  0.6301
   99MOL   H16837604   3.511   2.378   5.551 -0.8958 -3.3157 -0.4472
   99MOL   H16937605   3.440   2.461   5.407 -3.4810 -1.5692 -1.2179
   99MOL   H17037606   3.502   2.594   5.716 -1.0562 -2.2743 -0.6623
   99MOL   H17137607   3.448   2.689   5.576 -0.3742 -0.2473 -0.7063
   99MOL   H17237608   3.358   2.677   5.733  0.8054  0.9916 -1.4162
   99MOL   C17337609   2.924   2.420   5.453  0.2764  0.1969 -0.1775
   99MOL   C17437610   2.775   2.410   5.479 -0.4113  0.7816 -0.5293
   99MOL   O17537611   2.745   2.533   5.552 -0.5884  0.3247  0.2452
   99MOL   C17637612   2.628   2.536   5.638 -0.0268 -0.0679 -0.7141
   99MOL   C17737613   2.637   2.670   5.722 -0.3146 -0.0211  0.2136
   99MOL   C17837614   2.732   2.651   5.839 -0.4863 -0.6358  0.1372
   99MOL   C17937615   2.652   2.800   5.640 -0.5982  0.0887  0.0673
   99MOL   H18037616   2.955   2.513   5.405 -1.4152  0.3858 -0.9430
   99MOL   H18137617   2.947   2.339   5.384  2.1671 -0.0797  0.7391
   99MOL   H18237618   2.742   2.332   5.547 -0.1970  1.9602  0.9577
   99MOL   H18337619   2.600   2.451   5.700 -0.7755 -0.2192 -1.2487
   99MOL   H18437620   2.541   2.548   5.573 -1.6896 -1.2159  1.2196
   99MOL   H18537621   2.537   2.678   5.766  0.3851  1.1065  1.6354
   99MOL   H18637622   2.825   2.613   5.795  0.0026  0.1368  0.4889
   99MOL   H18737623   2.749   2.743   5.895  0.1071 -1.1296  0.7751
   99MOL   H18837624   2.690   2.571   5.899  0.7463 -1.8483 -0.5768
   99MOL   H18937625   2.562   2.822   5.583 -1.3217  1.4693  1.6585
   99MOL   H19037626   2.741   2.801   5.578 -0.8934  1.9603 -0.3590
   99MOL   H19137627   2.655   2.889   5.704 -3.6849  1.0015 -0.9639
   99MOL   C19237628   2.687   2.412   5.351  0.4082 -0.5882 -0.2265
   99MOL   C19337629   2.661   2.280   5.269  0.1524  0.1396 -0.5556
   99MOL   O19437630   2.616   2.180   5.357 -0.0266  0.7546 -0.6456
   99MOL   C19537631   2.516   2.094   5.303 -0.2800  0.6131 -0.3419
   99MOL   C19637632   2.511   1.969   5.386  0.2335  0.1309  0.3609
   99MOL   C19737633   2.425   1.859   5.323 -0.4250  0.4385 -0.0223
   99MOL   C19837634   2.474   1.997   5.535 -0.1209  0.2975  0.7697
   99MOL   H19937635   2.735   2.479   5.279 -1.5387 -0.1021 -1.1163
   99MOL   H20037636   2.591   2.458   5.375  0.4780  0.9011 -2.5963
   99MOL   H20137637   2.580   2.305   5.201 -0.8245 -0.5283  0.3547
   99MOL   H20237638   2.543   2.065   5.202  2.6722  1.1590  0.2373
   99MOL   H20337639   2.416   2.138   5.307  0.7215  3.0907 -1.5850
   99MOL   H20437640   2.614   1.934   5.376  0.3236  0.6624 -0.7209
   99MOL   H20537641   2.466   1.759   5.335 -0.2483  0.3231 -1.5543
   99MOL   H20637642   2.327   1.852   5.370  0.3564 -2.3655  1.3028
   99MOL   H20737643   2.412   1.886   5.218  0.8237  0.2464 -0.2293
   99MOL   H20837644   2.555   2.055   5.581 -1.2328  2.5401 -0.0009
   99MOL   H20937645   2.387   2.062   5.523 -0.0492  0.3698  0.6419
   99MOL   H21037646   2.466   1.912   5.602  0.1854 -1.5885 -1.5324
   99MOL   C21137647   2.793   2.224   5.196  0.0747  0.3986 -0.0237
   99MOL   C21237648   2.770   2.181   5.060 -0.2382  0.5287  0.3765
   99MOL   O21337649   2.739   2.296   4.986 -0.4995  0.0721  0.0202
   99MOL   C21437650   2.667   2.286   4.870 -0.0698  0.0470 -0.4461
   99MOL   C21537651   2.650   2.425   4.818  0.5792  0.0858 -0.0831
   99MOL   C21637652   2.583   2.422   4.683  0.1016 -0.3213  0.4906
   99MOL   C21737653   2.567   2.514   4.924  0.0195  0.1513 -0.3533
   99MOL   H21837654   2.848   2.161   5.265 -0.2360 -1.1303 -1.1622
   99MOL   H21937655   2.853   2.314   5.184 -3.2346  2.6883 -0.3280
   99MOL   H22037656   2.685   2.113   5.056 -0.4820  0.6594  2.6034
   99MOL   H22137657   2.567   2.254   4.901 -0.4035  0.9102 -0.5916
   99MOL   H22237658   2.718   2.220   4.800  2.1962 -0.0657  1.2568
   99MOL   H22337659   2.749   2.468   4.801  1.4329 -1.7728 -0.0501
   99MOL   H22437660   2.599   2.514   4.627 -1.5297  0.1289  0.7634
   99MOL   H22537661   2.611   2.345   4.610 -3.0898 -1.8499  0.8086
   99MOL   H22637662   2.475   2.422   4.699  0.0030  2.1356  0.0592
   99MOL   H22737663   2.630   2.533   5.011  0.8153  3.3321 -1.5490
   99MOL   H22837664   2.497   2.449   4.976  1.8344  0.0737  2.1040
   99MOL   H22937665   2.533   2.610   4.886 -2.1355 -0.6572 -0.5068
   99MOL   C23037666   2.894   2.116   4.995  0.0385  0.6434 -0.1193
   99MOL   C23137667   2.921   1.964   5.032 -0.9884  0.2576  0.1155
   99MOL   O23237668   2.808   1.890   4.998 -0.1356 -0.3150  0.7572
   99MOL   C23337669   2.776   1.782   5.078 -0.1267 -0.0878  0.3818
   99MOL   C23437670   2.633   1.719   5.034  0.5431 -0.1958 -0.2028
   99MOL   C23537671   2.628   1.686   4.886  0.0477  0.1310 -0.5095
   99MOL   C23637672   2.594   1.587   5.112 -0.1497  0.2537 -0.7658
   99MOL   H23737673   2.982   2.179   5.009  0.7624 -0.7558  1.9350
   99MOL   H23837674   2.887   2.111   4.887  1.1762 -1.2875 -0.1201
   99MOL   H23937675   2.930   1.955   5.140 -1.0611 -1.7840 -0.0338
   99MOL   H24037676   2.848   1.700   5.066  0.9218  1.2067 -2.5362
   99MOL   H24137677   2.760   1.822   5.178 -1.0081  1.3391 -0.3260
   99MOL   H24237678   2.559   1.794   5.063 -0.4515 -1.6627  1.1491
   99MOL   H24337679   2.713   1.624   4.856  0.7552  0.5678  0.5759
   99MOL   H24437680   2.635   1.778   4.829 -1.6386  0.3566 -0.3645
   99MOL   H24537681   2.534   1.639   4.856  0.2013  0.5952 -1.7530
   99MOL   H24637682   2.610   1.585   5.220 -3.3713  0.3942 -0.2328
   99MOL   H24737683   2.498   1.547   5.080 -0.3616  0.4891 -0.4157
   99MOL   H24837684   2.654   1.509   5.064 -1.7188 -0.6999 -1.1901
   99MOL   C24937685   3.047   1.893   4.972 -0.6095  0.4847  0.6156
   99MOL   C25037686   3.179   1.960   5.013 -0.6184  0.1312 -0.2060
   99MOL   O25137687   3.274   1.887   5.086 -0.0304 -0.5703 -0.1500
   99MOL   C25237688   3.233   1.858   5.218 -0.5979 -0.2707  0.1319
   99MOL   C25337689   3.368   1.834   5.295  1.0487 -0.6987 -0.2759
   99MOL   C25437690   3.337   1.770   5.431  0.0054  0.9221  0.2943
   99MOL   C25537691   3.452   1.973   5.309  0.0188 -0.4164 -0.2379
   99MOL   H25637692   3.026   1.884   4.865  1.4280  0.7019  0.1776
   99MOL   H25737693   3.040   1.793   5.015 -1.9625  0.2238 -0.1885
   99MOL   H25837694   3.153   2.050   5.070  1.3876  0.4241  0.2895
   99MOL   H25937695   3.180   1.934   5.276 -0.9216 -1.6534  1.7004
   99MOL   H26037696   3.176   1.767   5.231  0.4069 -0.7645  1.1577
   99MOL   H26137697   3.432   1.766   5.239 -0.4040  0.5486 -3.5504
   99MOL   H26237698   3.429   1.758   5.489  0.5244 -1.5380 -0.9357
   99MOL   H26337699   3.300   1.670   5.406 -0.8729  1.4258 -0.4501
   99MOL   H26437700   3.258   1.826   5.482  0.9491  2.2498  0.3048
   99MOL   H26537701   3.477   2.007   5.208  0.9549 -0.5522 -0.0575
   99MOL   H26637702   3.391   2.054   5.349  1.0909 -0.0135  0.6271
   99MOL   H26737703   3.549   1.963   5.359 -0.3325 -0.2376  0.4838
   99MOL   C26837704   3.262   2.005   4.884  0.1936  0.3184 -0.0690
   99MOL   C26937705   3.355   2.121   4.908  0.3779  0.3884 -0.5255
   99MOL   O27037706   3.288   2.224   4.976 -0.4762  0.5714 -0.2745
   99MOL   C27137707   3.366   2.301   5.068 -0.1391  0.3469  0.3219
   99MOL   C27237708   3.252   2.359   5.158 -0.4542  0.2666 -0.0252
   99MOL   C27337709   3.168   2.466   5.100 -0.1655 -0.3844  0.5192
   99MOL   C27437710   3.173   2.263   5.234 -0.2926  0.0267 -0.0395
   99MOL   H27537711   3.190   2.058   4.821  0.4323 -0.0177 -0.6279
   99MOL   H27637712   3.310   1.917   4.840  1.5259  1.1862 -0.3618
   99MOL   H27737713   3.430   2.085   4.978 -0.2033  1.4606  0.6710
   99MOL   H27837714   3.443   2.251   5.126  0.3331  0.4206 -0.2475
   99MOL   H27937715   3.413   2.390   5.026 -1.4548  0.8017 -0.2267
   99MOL   H28037716   3.312   2.408   5.235  2.2609 -3.1288  0.1644
   99MOL   H28137717   3.098   2.438   5.021  0.4424 -2.4313  0.6833
   99MOL   H28237718   3.244   2.532   5.058  0.8027 -1.5331  0.4274
   99MOL   H28337719   3.107   2.516   5.175 -2.1521  0.0676 -1.3378
   99MOL   H28437720   3.234   2.187   5.281 -1.9509 -3.5522 -3.3623
   99MOL   H28537721   3.086   2.227   5.178 -1.2184  0.5794  1.0099
   99MOL   H28637722   3.136   2.317   5.321  1.0267 -0.3308  0.7516
   99MOL   C28737723   3.442   2.182   4.786 -0.9792  0.8590  0.2721
   99MOL   C28837724   3.356   2.215   4.659 -0.7563 -0.2197 -0.5350
   99MOL   O28937725   3.436   2.298   4.569  0.1427  0.0615 -0.8039
   99MOL   C29037726   3.510   2.214   4.482  0.2269 -0.0151  0.2200
   99MOL   C29137727   3.639   2.297   4.427 -0.4154  0.4168  0.7870
   99MOL   C29237728   3.710   2.208   4.323 -0.3232  0.5241 -0.1439
   99MOL   C29337729   3.724   2.361   4.544 -0.1548  0.6851 -0.2020
   99MOL   H29437730   3.504   2.102   4.747  1.2010  2.0017  1.2917
   99MOL   H29537731   3.494   2.266   4.831 -1.2098  0.4729  1.2957
   99MOL   H29637732   3.324   2.120   4.617  0.4579  0.2086 -2.5086
   99MOL   H29737733   3.557   2.126   4.525 -0.4203  0.3830  1.7484
   99MOL   H29837734   3.443   2.189   4.399  0.4815  0.1890 -0.0496
   99MOL   H29937735   3.591   2.381   4.377 -3.2969 -0.9084  1.2366
   99MOL   H30037736   3.633   2.180   4.251  1.0507 -3.6410 -0.1169
   99MOL   H30137737   3.749   2.116   4.365 -1.6085 -0.5374 -1.2161
   99MOL   H30237738   3.785   2.256   4.260 -0.1361 -0.2674 -0.5311
   99MOL   H30337739   3.796   2.431   4.502  0.2930  0.5139  0.2859
   99MOL   H30437740   3.659   2.413   4.614 -0.1098  1.0374 -0.4219
   99MOL   H30537741   3.772   2.286   4.607  0.7940  0.3207 -1.3495
   99MOL   C30637742   3.235   2.299   4.684 -1.2343  0.2992  0.1874
   99MOL   C30737743   3.129   2.294   4.570  0.3661  0.2388 -0.3549
   99MOL   O30837744   3.082   2.162   4.580 -0.2279 -0.1643 -0.4703
   99MOL   C30937745   3.034   2.111   4.454 -0.7124  0.2873 -0.1654
   99MOL   C31037746   2.984   1.966   4.489  0.2687  0.2450 -0.4738
   99MOL   C31137747   2.983   1.860   4.376  0.4729  1.1905 -0.0131
   99MOL   C31237748   2.856   1.977   4.584  0.4642 -0.0037  0.8235
   99MOL   H31337749   3.274   2.401   4.690 -1.2185  0.2799  0.4181
   99MOL   H31437750   3.177   2.281   4.775  0.1733  0.0416  1.0448
   99MOL   H31537751   3.187   2.312   4.480  0.8890  0.1400 -0.0394
   99MOL   H31637752   3.111   2.113   4.376 -1.4552  0.7873 -0.9025
   99MOL   H31737753   2.948   2.173   4.429 -0.4599 -0.5364 -3.2704
   99MOL   H31837754   3.069   1.929   4.547  0.8292  1.5791 -0.4239
   99MOL   H31937755   2.995   1.763   4.423  0.0744  1.0564 -0.1917
   99MOL   H32037756   3.072   1.865   4.314  1.3566 -0.4622  1.0866
   99MOL   H32137757   2.892   1.868   4.316  2.0133 -2.2117 -2.9562
   99MOL   H32237758   2.864   2.059   4.656 -2.3317 -0.3769  1.6154
   99MOL   H32337759   2.811   1.889   4.629 -1.0248  0.0672 -0.4969
   99MOL   H32437760   2.783   2.020   4.515  1.0466  1.2239  0.9535
   99MOL   C32537761   3.011   2.390   4.599 -0.2246 -0.0785  0.3398
   99MOL   C32637762   3.020   2.526   4.532  0.2213 -0.2534 -0.0630
   99MOL   O32737763   2.887   2.583   4.546 -0.2775  0.9092  0.4639
   99MOL   C32837764   2.851   2.680   4.448  0.0734  0.3616  0.8584
   99MOL   C32937765   2.722   2.757   4.490 -0.2403  0.0639 -0.1571
   99MOL   C33037766   2.740   2.835   4.621  0.3107 -0.1169 -0.3511
   99MOL   C33137767   2.672   2.843   4.380  0.3031  0.1877  0.1994
   99MOL   H33237768   2.995   2.410   4.705  0.9278  2.2129  0.1136
   99MOL   H33337769   2.920   2.338   4.570  0.1087 -1.8131  2.3428
   99MOL   H33437770   3.052   2.505   4.430 -0.2269 -1.4223  0.0285
   99MOL   H33537771   2.933   2.750   4.428  0.3461 -0.1255  0.2387
   99MOL   H33637772   2.840   2.630   4.352 -1.9117 -0.2734  1.4055
   99MOL   H33737773   2.642   2.684   4.505 -0.0057 -0.5069 -1.6364
   99MOL   H33837774   2.818   2.910   4.621  0.1141  0.1148 -2.6625
   99MOL   H33937775   2.661   2.908   4.638  1.5676  0.8551  1.3833
   99MOL   H34037776   2.762   2.786   4.716  0.7646 -1.5944 -1.1898
   99MOL   H34137777   2.648   2.791   4.287 -1.6178  1.5112 -0.0852
   99MOL   H34237778   2.595   2.912   4.413  0.7737  0.9704 -0.3381
   99MOL   H34337779   2.754   2.900   4.338  0.4046  3.1520  4.1257
   99MOL   C34437780   3.125   2.619   4.583 -1.0254 -0.9167  0.4532
   99MOL   C34537781   3.130   2.651   4.735  0.0559 -0.2120 -0.3204
   99MOL   O34637782   3.242   2.745   4.757 -0.3458  0.5681  0.3825
   99MOL   C34737783   3.381   2.686   4.760 -0.2419 -0.5048 -0.1842
   99MOL   C34837784   3.479   2.794   4.819  0.6429  0.2232 -0.0364
   99MOL   C34937785   3.460   2.935   4.763 -0.5642  0.8704  0.9077
   99MOL   C35037786   3.622   2.747   4.807  0.2574 -0.0938  0.2210
   99MOL   H35137787   3.128   2.719   4.541 -1.7939 -0.6814  0.9341
   99MOL   H35237788   3.219   2.581   4.544 -1.4401 -0.6361 -0.8370
   99MOL   H35337789   3.148   2.556   4.786 -2.5655 -0.5124  0.0862
   99MOL   H35437790   3.410   2.667   4.656 -1.8462 -0.3608 -0.6763
   99MOL   H35537791   3.385   2.595   4.821 -1.1099  0.0523  0.7187
   99MOL   H35637792   3.437   2.803   4.919  0.4573  1.3642 -0.2042
   99MOL   H35737793   3.355   2.964   4.754 -0.5506  0.4095 -0.8709
   99MOL   H35837794   3.501   2.944   4.662  2.0185  0.5960  1.9023
   99MOL   H35937795   3.504   3.008   4.831 -0.9056  2.3019 -0.3575
   99MOL   H36037796   3.638   2.645   4.842 -0.5811  0.4823  2.3444
   99MOL   H36137797   3.648   2.747   4.701  0.4599 -2.6536  0.2464
   99MOL   H36237798   3.685   2.807   4.873  0.9492  1.4184 -1.7728
   99MOL   C36337799   3.007   2.717   4.791  0.6213 -0.5580  0.1996
   99MOL   C36437800   3.024   2.757   4.937 -0.3241 -0.6638 -0.1956
   99MOL   O36537801   2.918   2.844   4.990 -0.7369  0.5811 -0.0119
   99MOL   C36637802   2.844   2.786   5.099 -0.1873  0.3709 -0.1150
   99MOL   C36737803   2.752   2.893   5.157 -0.1582  0.7303  1.0969
   99MOL   C36837804   2.652   2.946   5.056  0.2277 -0.1492  0.2688
   99MOL   C36937805   2.834   3.005   5.219 -0.4585 -0.3754  0.2199
   99MOL   H37037806   2.977   2.804   4.732  0.5967 -0.7623 -0.0838
   99MOL   H37137807   2.925   2.647   4.777  0.8581 -0.6109 -0.9357
   99MOL   H37237808   3.118   2.807   4.963  0.1600 -1.9524  0.5408
   99MOL   H37337809   2.795   2.694   5.068  2.2363 -0.6779 -0.9959
   99MOL   H37437810   2.908   2.755   5.183  0.5181 -0.8593 -1.0873
   99MOL   H37537811   2.690   2.851   5.237  0.8801 -1.1306  0.9595
   99MOL   H37637812   2.694   2.981   4.961 -0.9982 -4.1786 -1.8805
   99MOL   H37737813   2.589   3.023   5.099  0.1033 -0.7674  1.2049
   99MOL   H37837814   2.580   2.872   5.021 -0.8233  0.5700  0.8943
   99MOL   H37937815   2.765   3.085   5.246 -0.5869 -0.3007 -0.3165
   99MOL   H38037816   2.910   3.051   5.155 -0.6531 -0.2369  0.0859
   99MOL   H38137817   2.885   2.957   5.303  2.2186  0.3692 -0.9134
   99MOL   H38237818   3.025   2.659   4.983 -0.9039 -0.3585  0.4765
  100MOL     C137819   2.282   5.574   1.778 -0.4487 -0.3536  0.0989
  100MOL     C237820   2.277   5.653   1.647 -0.3085 -0.1515 -0.1370
  100MOL     O337821   2.332   5.573   1.538  0.3912 -0.2728  0.1582
  100MOL     C437822   2.474   5.554   1.534  0.2146 -0.0457  0.0719
  100MOL     C537823   2.509   5.493   1.404 -0.0879  0.0794 -0.4523
  100MOL     C637824   2.641   5.424   1.408 -0.3816  0.2818  0.4882
  100MOL     C737825   2.520   5.602   1.293  0.2144 -0.6636  0.6245
  100MOL     H837826   2.253   5.642   1.858  1.0363  0.1085  0.2517
  100MOL     H937827   2.230   5.478   1.775 -2.0798  0.5435 -0.7752
  100MOL    H1037828   2.331   5.745   1.665  0.1770 -0.1004 -1.7929
  100MOL    H1137829   2.483   5.483   1.616  1.5927  1.1974  1.0339
  100MOL    H1237830   2.541   5.637   1.557  0.7887 -0.6162  0.4628
  100MOL    H1337831   2.429   5.422   1.381 -1.5608  1.7204 -0.4792
  100MOL    H1437832   2.671   5.374   1.316 -0.2462  1.6779 -0.2332
  100MOL    H1537833   2.719   5.499   1.423 -2.1726  1.8325  2.3445
  100MOL    H1637834   2.643   5.351   1.490 -0.1422 -0.1227  0.1283
  100MOL    H1737835   2.416   5.635   1.282  0.0036 -2.2448 -2.5806
  100MOL    H1837836   2.590   5.681   1.320  0.9290 -1.0022 -0.2178
  100MOL    H1937837   2.551   5.551   1.202 -0.5990 -2.5673  1.3882
  100MOL    H2037838   2.389   5.571   1.801 -0.6792  0.7590  1.3958
  100MOL    C2137839   2.137   5.688   1.593  0.5680  0.2714  0.3296
  100MOL    C2237840   2.131   5.801   1.490  0.2235  0.2040 -0.0543
  100MOL    O2337841   2.051   5.765   1.374 -0.6087 -0.5578  0.4817
  100MOL    C2437842   2.092   5.652   1.292 -0.2842  0.1141  0.5547
  100MOL    C2537843   1.979   5.623   1.189 -0.7909  0.1691  0.0665
  100MOL    C2637844   2.031   5.531   1.073 -0.3581 -0.3013 -0.4007
  100MOL    C2737845   1.861   5.557   1.259  0.1323  0.4735  0.2713
  100MOL    H2837846   2.084   5.596   1.566 -2.6143  0.7881  4.3164
  100MOL    H2937847   2.083   5.718   1.683 -1.5564  0.3020 -0.9179
  100MOL    H3037848   2.230   5.816   1.447  0.1055 -1.2475 -0.9012
  100MOL    H3137849   2.120   5.557   1.338 -0.7399  0.3618  1.3494
  100MOL    H3237850   2.183   5.691   1.247 -1.1924  0.7311 -0.7632
  100MOL    H3337851   1.944   5.721   1.155  1.8798  1.3447  0.5991
  100MOL    H3437852   2.125   5.481   1.097 -0.2700 -0.5588 -1.2558
  100MOL    H3537853   2.038   5.586   0.979 -0.1095  0.6101  0.1447
  100MOL    H3637854   1.953   5.456   1.058  0.6822 -1.6205  0.6567
  100MOL    H3737855   1.900   5.475   1.318  2.6338  1.5175  0.1125
  100MOL    H3837856   1.817   5.625   1.332 -0.8468  0.4725 -0.3077
  100MOL    H3937857   1.785   5.522   1.189  0.2567 -0.1014  0.4207
  100MOL    C4037858   2.067   5.931   1.557 -0.2673  0.7565  0.3282
  100MOL    C4137859   2.143   6.002   1.676  0.0834 -0.3151  0.9716
  100MOL    O4237860   2.068   6.119   1.708 -1.3524  0.7804 -0.0527
  100MOL    C4337861   1.964   6.104   1.800 -0.0813 -0.4543  0.4468
  100MOL    C4437862   1.903   6.247   1.817  0.4628 -0.1538 -0.1494
  100MOL    C4537863   1.835   6.292   1.684  0.5588 -0.9724  0.1412
  100MOL    C4637864   1.793   6.259   1.928  0.5402 -0.0641 -0.1322
  100MOL    H4737865   1.979   5.900   1.613 -0.0375  0.4136  0.5057
  100MOL    H4837866   2.050   6.006   1.480  1.9663  0.9903  0.0351
  100MOL    H4937867   2.161   5.934   1.759  0.4579 -1.4071  0.0064
  100MOL    H5037868   1.998   6.069   1.897  2.6768  2.2961  0.5665
  100MOL    H5137869   1.897   6.028   1.760 -0.1615 -1.4376  2.4220
  100MOL    H5237870   1.977   6.325   1.839 -0.4866  0.6162  0.3365
  100MOL    H5337871   1.738   6.244   1.678  0.8788 -1.8090  1.4376
  100MOL    H5437872   1.833   6.401   1.693 -1.2833 -1.0359  0.6366
  100MOL    H5537873   1.888   6.268   1.592 -0.0009  1.4292 -0.8549
  100MOL    H5637874   1.840   6.245   2.026  0.1597 -1.1275 -0.0860
  100MOL    H5737875   1.728   6.172   1.933  0.1067  0.0604 -2.9636
  100MOL    H5837876   1.730   6.348   1.928 -0.1278 -0.5306 -0.3227
  100MOL    C5937877   2.280   6.047   1.618 -0.1967  0.3963 -0.0863
  100MOL    C6037878   2.367   6.113   1.732  0.0358 -0.7161  0.7359
  100MOL    O6137879   2.468   6.197   1.666  0.3242  0.2592 -0.1131
  100MOL    C6237880   2.432   6.334   1.662  1.0409 -0.3470  0.2866
  100MOL    C6337881   2.541   6.423   1.602 -0.5978  0.0763  0.2607
  100MOL    C6437882   2.499   6.569   1.597  0.4432 -0.5037  0.3666
  100MOL    C6537883   2.664   6.408   1.692  0.2222 -0.0254  0.3680
  100MOL    H6637884   2.262   6.103   1.526 -0.2180  0.4686 -0.0387
  100MOL    H6737885   2.341   5.962   1.589  0.2949 -0.2902  2.8321
  100MOL    H6837886   2.304   6.164   1.805 -1.5142 -2.7657  0.8581
  100MOL    H6937887   2.342   6.347   1.603  0.3685 -1.8622  0.9438
  100MOL    H7037888   2.409   6.371   1.762  0.6046 -0.4428  0.2206
  100MOL    H7137889   2.576   6.393   1.504  0.8224 -3.9330  1.8861
  100MOL    H7237890   2.580   6.639   1.577 -1.1806  1.2688 -0.0536
  100MOL    H7337891   2.455   6.598   1.692 -2.9352 -0.5594 -1.1014
  100MOL    H7437892   2.426   6.593   1.520  0.8114  1.4431  0.6120
  100MOL    H7537893   2.641   6.434   1.795  1.4830  3.1789 -0.1054
  100MOL    H7637894   2.685   6.301   1.681  0.1913  0.0180 -0.1455
  100MOL    H7737895   2.753   6.467   1.672 -0.6611  1.4630  0.7556
  100MOL    C7837896   2.440   6.020   1.826 -0.5746  0.4048  0.0337
  100MOL    C7937897   2.507   6.094   1.944  0.4736 -0.4289 -0.1659
  100MOL    O8037898   2.400   6.116   2.044 -0.3338 -0.1844 -0.2575
  100MOL    C8137899   2.425   6.228   2.131 -0.0762 -0.7067 -0.0122
  100MOL    C8237900   2.283   6.270   2.168  0.6963  0.5051 -1.2582
  100MOL    C8337901   2.219   6.160   2.255  0.6079  0.7193 -0.5801
  100MOL    C8437902   2.195   6.327   2.053  1.3526  0.3831  0.1452
  100MOL    H8537903   2.510   5.983   1.751 -2.9354 -1.5929 -1.2466
  100MOL    H8637904   2.386   5.932   1.859  1.4930 -0.6571  0.6637
  100MOL    H8737905   2.552   6.186   1.908  1.9561 -1.6294 -1.4462
  100MOL    H8837906   2.497   6.199   2.208 -0.1926  0.3146  0.4869
  100MOL    H8937907   2.471   6.312   2.078 -1.5243  1.2583  1.7676
  100MOL    H9037908   2.289   6.352   2.239  0.5599  1.4659 -2.3425
  100MOL    H9137909   2.197   6.068   2.201 -1.2176 -0.5497  2.1901
  100MOL    H9237910   2.129   6.188   2.310 -0.0699 -1.3966 -0.5657
  100MOL    H9337911   2.284   6.138   2.339  0.7198  1.8296 -0.3746
  100MOL    H9437912   2.190   6.266   1.963 -0.5790 -1.6679  1.5786
  100MOL    H9537913   2.232   6.420   2.011 -1.7229  1.2565 -0.7629
  100MOL    H9637914   2.089   6.334   2.081  0.8976  0.0956 -1.4565
  100MOL    C9737915   2.618   6.016   2.023  0.0654 -0.3594  0.1991
  100MOL    C9837916   2.759   6.007   1.957 -0.3580 -0.0702  0.0531
  100MOL    O9937917   2.764   5.904   1.850 -0.1874  0.0088 -0.0809
  100MOL   C10037918   2.847   5.938   1.736  0.0726 -0.0016  0.6545
  100MOL   C10137919   2.784   5.893   1.599  0.1251  0.0394  0.0144
  100MOL   C10237920   2.867   5.958   1.483 -0.1397  0.6925  0.4673
  100MOL   C10337921   2.777   5.740   1.582 -0.4639 -0.8214  0.3593
  100MOL   H10437922   2.577   5.915   2.037 -1.0798  0.1130  0.3450
  100MOL   H10537923   2.626   6.057   2.123  0.0925 -0.2657  0.1587
  100MOL   H10637924   2.783   6.106   1.919 -1.1541 -0.4470 -1.4756
  100MOL   H10737925   2.950   5.904   1.741 -0.5531 -2.9597 -3.5395
  100MOL   H10837926   2.845   6.047   1.731 -2.6804 -0.0140  0.3720
  100MOL   H10937927   2.678   5.918   1.594  0.0770 -0.3297 -0.8206
  100MOL   H11037928   2.972   5.930   1.477  0.4857  2.3250  2.8596
  100MOL   H11137929   2.822   5.934   1.386 -0.8431 -0.0092  0.9604
  100MOL   H11237930   2.857   6.066   1.490 -0.8710  0.7690 -1.4871
  100MOL   H11337931   2.729   5.698   1.670 -0.1656 -0.0293  0.9145
  100MOL   H11437932   2.717   5.712   1.496  0.7794  0.7620 -1.0639
  100MOL   H11537933   2.877   5.701   1.566  0.1509  1.0318 -0.4685
  100MOL   C11637934   2.859   5.965   2.069  0.2907  0.8823  0.7988
  100MOL   C11737935   2.980   6.061   2.063  0.0565  0.9802  0.7482
  100MOL   O11837936   2.945   6.189   2.116  0.4550  0.4552 -1.0036
  100MOL   C11937937   2.945   6.300   2.028  0.5772  0.2461  0.0843
  100MOL   C12037938   2.919   6.416   2.125  0.0458 -0.2344 -0.0895
  100MOL   C12137939   2.943   6.553   2.052 -0.2322  0.1501  0.4977
  100MOL   C12237940   2.771   6.407   2.179  0.1842 -0.8858  0.2344
  100MOL   H12337941   2.804   5.962   2.163 -0.5840  0.7456  0.2897
  100MOL   H12437942   2.880   5.860   2.051 -2.1618  0.5569 -0.4254
  100MOL   H12537943   3.011   6.066   1.958 -2.3824 -0.4275 -0.0762
  100MOL   H12637944   2.867   6.298   1.952 -0.8343 -1.6538  1.5267
  100MOL   H12737945   3.044   6.315   1.986 -0.0575 -2.6719 -2.7176
  100MOL   H12837946   2.983   6.411   2.213 -0.7035  2.9088  0.6995
  100MOL   H12937947   2.859   6.569   1.984  0.1601  0.7210  0.1494
  100MOL   H13037948   3.043   6.566   2.012  0.0175 -0.0039  1.0705
  100MOL   H13137949   2.931   6.635   2.123  0.5183  0.5627  0.1519
  100MOL   H13237950   2.740   6.312   2.224  1.7147 -1.3042  0.4420
  100MOL   H13337951   2.762   6.473   2.265 -1.5816 -1.1917  0.3118
  100MOL   H13437952   2.703   6.436   2.099  2.4911  0.4976 -1.2646
  100MOL   C13537953   3.092   5.996   2.147 -0.4053  0.2302 -1.2046
  100MOL   C13637954   3.231   6.075   2.143  0.6787  0.3649  0.5858
  100MOL   O13737955   3.255   6.115   2.007  0.6719 -0.7485 -0.5526
  100MOL   C13837956   3.309   6.016   1.917  0.2692  0.0312  0.1003
  100MOL   C13937957   3.337   6.072   1.772  0.3419 -0.3793 -0.6226
  100MOL   C14037958   3.205   6.100   1.699  0.0974 -0.2511  0.0721
  100MOL   C14137959   3.419   6.204   1.789 -0.0719 -0.5261 -0.2173
  100MOL   H14237960   3.071   5.991   2.254  1.1883  1.9357 -0.7884
  100MOL   H14337961   3.113   5.897   2.108  0.0244  1.0905 -3.1910
  100MOL   H14437962   3.298   5.997   2.179  0.8506 -0.3804 -1.2943
  100MOL   H14537963   3.237   5.934   1.918 -0.1582  0.4234  2.0894
  100MOL   H14637964   3.403   5.974   1.954  0.1156 -0.5963 -0.2008
  100MOL   H14737965   3.399   6.004   1.713  0.8267 -1.0588  0.6548
  100MOL   H14837966   3.123   6.140   1.759 -1.9653  0.3475 -3.0082
  100MOL   H14937967   3.167   6.004   1.665  1.2497 -0.6075 -0.2222
  100MOL   H15037968   3.209   6.165   1.612 -0.2818 -1.1192 -0.6028
  100MOL   H15137969   3.370   6.293   1.830 -0.0059  0.8941 -3.0662
  100MOL   H15237970   3.496   6.187   1.864  1.5174  0.2780 -1.6311
  100MOL   H15337971   3.457   6.229   1.690 -2.4624 -0.2497 -1.0944
  100MOL   C15437972   3.247   6.192   2.241  0.4392  0.3533 -0.1741
  100MOL   C15537973   3.392   6.231   2.274 -0.2682 -0.3244  0.1748
  100MOL   O15637974   3.427   6.365   2.245  0.4237  0.9139 -0.6299
  100MOL   C15737975   3.449   6.388   2.108  0.8927 -0.6854 -0.5747
  100MOL   C15837976   3.527   6.526   2.104  0.2726  0.4677  0.4765
  100MOL   C15937977   3.668   6.502   2.146 -0.0843  0.1816 -0.4566
  100MOL   C16037978   3.524   6.604   1.970  0.3095 -0.1625 -0.0153
  100MOL   H16137979   3.190   6.168   2.331 -0.1324  0.1226 -0.5947
  100MOL   H16237980   3.192   6.277   2.200 -0.4149 -1.2513 -2.4924
  100MOL   H16337981   3.452   6.158   2.218 -1.4306 -0.0825 -1.4094
  100MOL   H16437982   3.353   6.394   2.057 -0.3675  1.6829  1.9283
  100MOL   H16537983   3.504   6.312   2.053  0.3565 -1.1799 -0.4246
  100MOL   H16637984   3.481   6.602   2.166 -0.0665 -0.8882  1.9081
  100MOL   H16737985   3.722   6.595   2.165  0.3045  0.0837 -1.0574
  100MOL   H16837986   3.721   6.459   2.061  1.1079  0.8030 -0.0439
  100MOL   H16937987   3.669   6.433   2.231 -1.1430 -0.6360 -1.0958
  100MOL   H17037988   3.581   6.697   1.970  0.3373 -0.1721  1.0296
  100MOL   H17137989   3.574   6.554   1.886 -0.8073  1.4905 -1.7131
  100MOL   H17237990   3.429   6.640   1.933 -0.0575 -0.1636  0.9198
  100MOL   C17337991   3.418   6.205   2.423 -0.0051  0.5009 -0.5686
  100MOL   C17437992   3.429   6.056   2.466 -0.0813  0.3732  0.3448
  100MOL   O17537993   3.522   5.987   2.383  0.1682 -0.1878 -0.2637
  100MOL   C17637994   3.479   5.848   2.353  0.7768 -1.2141  0.0723
  100MOL   C17737995   3.582   5.766   2.291  0.0492  0.5329  0.4439
  100MOL   C17837996   3.707   5.767   2.377 -0.2761 -0.5084 -0.2993
  100MOL   C17937997   3.528   5.627   2.260 -0.0931  0.4656 -0.1174
  100MOL   H18037998   3.518   6.238   2.452 -0.7007  1.9520  0.2331
  100MOL   H18137999   3.351   6.251   2.495  1.7968 -2.3441  3.0442
  100MOL   H18238000   3.336   6.001   2.449 -0.5296  0.4053  2.4605
  100MOL   H18338001   3.385   5.850   2.297  1.6921 -0.9199 -1.4923
  100MOL   H18438002   3.450   5.806   2.450 -0.1084  0.9113  0.7521
  100MOL   H18538003   3.591   5.815   2.194  0.1845 -0.8461 -0.2546
  100MOL   H18638004   3.703   5.740   2.482 -0.4010 -1.5030 -0.5605
  100MOL   H18738005   3.785   5.700   2.339 -1.9145 -1.5685 -1.8673
  100MOL   H18838006   3.748   5.868   2.372  0.1489 -0.5576  1.6888
  100MOL   H18938007   3.526   5.580   2.358 -2.7361  0.9974  0.1057
  100MOL   H19038008   3.604   5.576   2.200  1.7542  0.0191  2.5171
  100MOL   H19138009   3.433   5.625   2.206 -0.3784 -2.4767  0.4236
  100MOL   C19238010   3.466   6.032   2.607  0.2647  0.0955  0.3445
  100MOL   C19338011   3.390   6.097   2.717 -0.1464  0.3605 -0.4080
  100MOL   O19438012   3.435   6.048   2.840  0.3681  0.2441  0.2890
  100MOL   C19538013   3.541   6.124   2.890  0.3465  0.7740  0.0401
  100MOL   C19638014   3.622   6.067   3.005 -0.1390 -0.0677 -1.0273
  100MOL   C19738015   3.691   5.932   2.970 -0.6307 -0.3275  0.2478
  100MOL   C19838016   3.538   6.056   3.134 -0.2682 -0.3614  0.2486
  100MOL   H19938017   3.574   6.041   2.610  0.0253  3.3403  0.2672
  100MOL   H20038018   3.452   5.927   2.636 -0.4960  0.7185  2.3777
  100MOL   H20138019   3.391   6.206   2.708  0.9108  0.4478  0.6532
  100MOL   H20238020   3.502   6.222   2.916  1.1142  1.0322  0.2461
  100MOL   H20338021   3.616   6.149   2.815  1.5110 -4.1125 -0.6118
  100MOL   H20438022   3.698   6.138   3.038  2.1008 -1.7838 -2.3276
  100MOL   H20538023   3.729   5.895   3.065 -0.8377  0.9967  0.8613
  100MOL   H20638024   3.614   5.860   2.944  0.1041 -1.5213  1.3058
  100MOL   H20738025   3.760   5.947   2.887 -1.7528  0.8290 -0.5032
  100MOL   H20838026   3.454   5.988   3.122 -0.8162  0.4089 -0.3739
  100MOL   H20938027   3.598   6.017   3.216 -0.1150 -3.2033 -1.1449
  100MOL   H21038028   3.495   6.151   3.165 -1.8065 -0.3416 -1.8363
  100MOL   C21138029   3.239   6.064   2.727 -0.5280  0.7834  1.0240
  100MOL   C21238030   3.151   6.161   2.799  0.5809  0.1880  0.7989
  100MOL   O21338031   3.020   6.113   2.769  0.0956 -0.2315 -0.3593
  100MOL   C21438032   2.958   6.140   2.643 -0.2164  0.4113 -0.2045
  100MOL   C21538033   2.842   6.038   2.610 -0.1905  0.2399 -0.0703
  100MOL   C21638034   2.722   6.074   2.698  0.3032  0.2225 -0.3852
  100MOL   C21738035   2.806   6.050   2.460  0.2125  0.3688 -0.0806
  100MOL   H21838036   3.218   5.967   2.772  2.5370 -0.6371 -0.4938
  100MOL   H21938037   3.201   6.049   2.626  0.8015 -0.9898  0.7792
  100MOL   H22038038   3.161   6.262   2.760  0.2976 -1.4124 -3.6422
  100MOL   H22138039   3.027   6.153   2.559  0.4115 -0.4228  0.1805
  100MOL   H22238040   2.927   6.244   2.650 -2.3498 -0.1290 -1.3754
  100MOL   H22338041   2.864   5.935   2.641  1.1673  0.4232 -0.3732
  100MOL   H22438042   2.757   6.081   2.801  0.5156 -1.1041 -0.3631
  100MOL   H22538043   2.692   6.175   2.668 -0.2557  0.7940  2.0267
  100MOL   H22638044   2.639   6.004   2.690 -2.1582  2.7993  1.3819
  100MOL   H22738045   2.728   6.126   2.449  1.5471  1.7506 -0.2349
  100MOL   H22838046   2.766   5.960   2.414  1.0446 -0.0671  0.0370
  100MOL   H22938047   2.893   6.072   2.398  2.0772  2.9386  3.2363
  100MOL   C23038048   3.181   6.165   2.948 -0.4888  0.3161 -0.4287
  100MOL   C23138049   3.106   6.279   3.014  0.1004 -0.4008  0.6916
  100MOL   O23238050   3.106   6.256   3.156 -0.1587 -0.3800  0.2478
  100MOL   C23338051   2.995   6.198   3.220 -0.3348  0.1925 -0.1670
  100MOL   C23438052   3.042   6.156   3.361  0.3371 -0.4871  0.0894
  100MOL   C23538053   2.925   6.139   3.463 -0.3732  0.8811 -0.0286
  100MOL   C23638054   3.123   6.026   3.352  0.0245  0.3309 -0.7067
  100MOL   H23738055   3.289   6.160   2.962 -0.5917  1.0150  0.7519
  100MOL   H23838056   3.144   6.073   2.995  0.3078 -0.8224 -1.9975
  100MOL   H23938057   3.004   6.287   2.977 -0.3727  0.2431  2.1001
  100MOL   H24038058   2.921   6.274   3.244  0.4341  0.8481  0.1508
  100MOL   H24138059   2.957   6.115   3.161 -2.3502  1.7674 -1.1161
  100MOL   H24238060   3.103   6.237   3.402 -0.0890 -0.2086  0.1766
  100MOL   H24338061   2.878   6.232   3.494 -0.5030  0.1420  2.0290
  100MOL   H24438062   2.960   6.089   3.553 -2.1716  1.8454  1.2446
  100MOL   H24538063   2.848   6.072   3.424 -0.9023  0.7688  1.2054
  100MOL   H24638064   3.215   6.059   3.303  0.5590 -0.5864 -0.3247
  100MOL   H24738065   3.144   5.979   3.448 -0.9783 -2.1563 -1.6605
  100MOL   H24838066   3.075   5.949   3.292  0.8950 -1.4144  0.7987
  100MOL   C24938067   3.183   6.415   2.996  0.8263  0.0449 -0.0655
  100MOL   C25038068   3.084   6.539   2.975  0.7919 -0.3548  0.0886
  100MOL   O25138069   3.155   6.662   2.987  0.5182  0.1518  0.2596
  100MOL   C25238070   3.191   6.694   3.117 -0.1722  0.1710 -0.3821
  100MOL   C25338071   3.271   6.830   3.124  0.0390  0.2691 -0.0742
  100MOL   C25438072   3.414   6.829   3.077  0.2766  0.3711 -0.3722
  100MOL   C25538073   3.248   6.889   3.261 -0.0849 -0.3911  0.1480
  100MOL   H25638074   3.261   6.425   2.920  1.3071 -2.0040  0.1266
  100MOL   H25738075   3.237   6.436   3.088  2.2527  1.5787 -1.2104
  100MOL   H25838076   3.005   6.538   3.050  0.8332  3.5187  0.2628
  100MOL   H25938077   3.097   6.703   3.171 -0.9208  1.8163 -1.9155
  100MOL   H26038078   3.255   6.625   3.172 -0.4425  0.6119  0.5017
  100MOL   H26138079   3.218   6.893   3.052  1.4631 -0.9665 -2.2725
  100MOL   H26238080   3.418   6.825   2.968 -1.5847 -1.6608 -0.4011
  100MOL   H26338081   3.474   6.746   3.114  0.2852 -0.0476 -1.3016
  100MOL   H26438082   3.470   6.920   3.097  1.5911 -0.3449 -0.7301
  100MOL   H26538083   3.269   6.817   3.340  0.5686 -0.0382  0.3016
  100MOL   H26638084   3.307   6.978   3.280  0.9015 -1.4181  1.9344
  100MOL   H26738085   3.144   6.918   3.274  0.0726  1.3229 -1.9900
  100MOL   C26838086   3.030   6.541   2.825  0.0915 -0.3096  0.3147
  100MOL   C26938087   2.900   6.620   2.806 -0.1721  0.3454 -0.7406
  100MOL   O27038088   2.852   6.578   2.685 -0.9210 -0.1091  0.5285
  100MOL   C27138089   2.720   6.517   2.677  0.1622 -0.7686  0.2777
  100MOL   C27238090   2.666   6.517   2.530  0.5802 -0.1089  0.5023
  100MOL   C27338091   2.516   6.498   2.527 -0.3174  0.0570 -0.3511
  100MOL   C27438092   2.699   6.651   2.457 -0.2844  0.0175  0.4353
  100MOL   H27538093   3.024   6.437   2.791  0.8524  0.3322 -1.8050
  100MOL   H27638094   3.113   6.579   2.766 -0.1472  0.4320  0.4607
  100MOL   H27738095   2.841   6.590   2.893  0.4025 -1.4574 -0.9411
  100MOL   H27838096   2.719   6.417   2.720  1.4365  0.4293  3.2164
  100MOL   H27938097   2.657   6.572   2.747  1.6468  1.7086 -0.2875
  100MOL   H28038098   2.709   6.431   2.479 -2.3895 -0.4472 -1.5148
  100MOL   H28138099   2.480   6.401   2.563  0.1829 -0.1468 -0.3942
  100MOL   H28238100   2.469   6.524   2.431  1.6599 -2.9418 -2.2431
  100MOL   H28338101   2.477   6.560   2.607 -0.1056  0.2568 -0.4047
  100MOL   H28438102   2.669   6.746   2.500  0.4617  0.5913 -0.2914
  100MOL   H28538103   2.650   6.651   2.359 -2.1563  0.1012  1.3551
  100MOL   H28638104   2.805   6.665   2.434 -0.0948 -0.2379  1.1407
  100MOL   C28738105   2.916   6.773   2.814  0.9831 -0.7430 -0.1836
  100MOL   C28838106   2.782   6.853   2.814  0.2641 -0.1199  0.1119
  100MOL   O28938107   2.814   6.996   2.819 -1.0653  0.2959 -0.6157
  100MOL   C29038108   2.815   7.070   2.701  0.3896 -0.1669  0.1802
  100MOL   C29138109   2.880   7.211   2.708  0.2030 -0.4030 -0.6404
  100MOL   C29238110   2.804   7.296   2.817 -0.3432  0.0280  0.1837
  100MOL   C29338111   2.857   7.277   2.571 -0.4726  0.4423 -0.6987
  100MOL   H29438112   2.982   6.813   2.737 -2.2466  1.0159 -2.1544
  100MOL   H29538113   2.972   6.804   2.903 -2.2291  1.6194  1.1017
  100MOL   H29638114   2.713   6.842   2.730 -0.2525 -0.3000  0.5580
  100MOL   H29738115   2.851   7.027   2.607 -0.8771  1.7408 -1.2241
  100MOL   H29838116   2.714   7.097   2.671  0.5872 -0.5851 -0.8730
  100MOL   H29938117   2.987   7.213   2.731  0.3786 -1.0597 -1.3692
  100MOL   H30038118   2.849   7.252   2.906  0.8918  0.8054 -0.0553
  100MOL   H30138119   2.696   7.287   2.824 -0.4138  0.0885 -0.6993
  100MOL   H30238120   2.837   7.400   2.822 -1.1329  0.2626  0.4957
  100MOL   H30338121   2.751   7.267   2.548 -1.4772  2.7396  2.4565
  100MOL   H30438122   2.871   7.385   2.583 -0.2172  0.4375 -0.9461
  100MOL   H30538123   2.927   7.235   2.499  1.2266  2.2649 -0.1828
  100MOL   C30638124   2.696   6.816   2.937  0.1492  0.2896 -0.5161
  100MOL   C30738125   2.594   6.914   2.987 -0.0822  0.1643  0.1596
  100MOL   O30838126   2.496   6.907   2.888 -0.5643 -0.0724  0.0113
  100MOL   C30938127   2.443   7.031   2.842  0.2150  0.2414  0.4698
  100MOL   C31038128   2.344   7.008   2.726 -0.3028  0.1911 -0.0734
  100MOL   C31138129   2.221   6.932   2.783  0.2736  0.3755 -0.2955
  100MOL   C31238130   2.417   6.932   2.607  0.3170  0.2951  0.0606
  100MOL   H31338131   2.765   6.795   3.019 -0.8002  0.7872  0.4201
  100MOL   H31438132   2.641   6.724   2.917 -1.8581  1.6411 -1.3465
  100MOL   H31538133   2.629   7.018   2.989 -0.6717  0.3379  1.5352
  100MOL   H31638134   2.523   7.097   2.808  0.1416  0.0494 -0.0850
  100MOL   H31738135   2.390   7.092   2.914 -1.9193  0.8716 -1.5950
  100MOL   H31838136   2.301   7.100   2.686 -2.9513 -2.1912 -3.0033
  100MOL   H31938137   2.244   6.830   2.815  1.8286  1.2741  1.5167
  100MOL   H32038138   2.149   6.921   2.702  1.1129 -2.2614 -0.7316
  100MOL   H32138139   2.178   6.985   2.867  1.6467  0.3447  0.4383
  100MOL   H32238140   2.491   6.994   2.557  1.4431  0.7945  2.2921
  100MOL   H32338141   2.343   6.902   2.532  1.4714 -0.2688 -0.8533
  100MOL   H32438142   2.445   6.836   2.650  0.7030  1.0980  1.6363
  100MOL   C32538143   2.527   6.892   3.128 -1.1777  0.4537 -0.7038
  100MOL   C32638144   2.632   6.895   3.243  0.3548  0.7949 -0.9958
  100MOL   O32738145   2.690   7.023   3.251  0.0711  0.4594  0.2988
  100MOL   C32838146   2.830   7.026   3.268 -0.2875  0.5292  0.1221
  100MOL   C32938147   2.876   7.160   3.318 -0.2333 -0.5250 -0.2665
  100MOL   C33038148   2.911   7.163   3.469  0.0434  0.4352 -0.0146
  100MOL   C33138149   2.992   7.210   3.238 -0.5483 -0.1712 -0.8265
  100MOL   H33238150   2.481   6.793   3.121  0.1670 -0.5091  3.0447
  100MOL   H33338151   2.447   6.965   3.126 -1.1466  0.4814 -0.9820
  100MOL   H33438152   2.714   6.824   3.232  1.1514  1.1642  2.0959
  100MOL   H33538153   2.852   6.955   3.348  0.1058  1.0015  0.4346
  100MOL   H33638154   2.895   6.999   3.185 -0.7958 -1.0555  0.2081
  100MOL   H33738155   2.795   7.233   3.309  1.4974  1.4617 -0.0851
  100MOL   H33838156   2.943   7.257   3.515 -1.3686  1.3080 -0.7924
  100MOL   H33938157   2.825   7.139   3.531 -1.6932  0.9953 -2.1147
  100MOL   H34038158   2.985   7.083   3.476 -0.1740  0.1995 -0.3867
  100MOL   H34138159   3.023   7.307   3.275  4.7145 -2.3859  1.0448
  100MOL   H34238160   3.081   7.148   3.244 -0.0378  0.3661 -2.5304
  100MOL   H34338161   2.952   7.217   3.137 -1.2423  0.9605 -0.4836
  100MOL   C34438162   2.564   6.881   3.384  0.3194 -0.3183  0.4178
  100MOL   C34538163   2.505   6.739   3.413 -0.1330  0.2636  0.5878
  100MOL   O34638164   2.605   6.641   3.380 -0.6516  0.2269 -0.4769
  100MOL   C34738165   2.547   6.522   3.331  0.0307  0.5628  0.1344
  100MOL   C34838166   2.667   6.425   3.284 -0.0445 -0.6888 -0.1946
  100MOL   C34938167   2.722   6.484   3.152  0.0414  0.8980  0.0249
  100MOL   C35038168   2.604   6.290   3.272 -0.0750  0.7628  0.0634
  100MOL   H35138169   2.497   6.965   3.405 -0.1756 -0.7089  0.4003
  100MOL   H35238170   2.640   6.904   3.458  2.0725  0.9547 -1.7301
  100MOL   H35338171   2.418   6.717   3.351 -1.1206  1.0343  1.6974
  100MOL   H35438172   2.482   6.532   3.245 -1.0109 -0.5629  0.7743
  100MOL   H35538173   2.500   6.469   3.414  0.3577  0.6142  0.3526
  100MOL   H35638174   2.741   6.420   3.364  0.8341  0.0450 -0.9446
  100MOL   H35738175   2.649   6.521   3.081 -1.6576 -0.8099  0.8472
  100MOL   H35838176   2.784   6.402   3.115 -0.1168 -0.9160  3.5489
  100MOL   H35938177   2.794   6.560   3.183  1.3423 -0.6621  0.9311
  100MOL   H36038178   2.505   6.290   3.227  0.0336  1.3018 -0.1789
  100MOL   H36138179   2.665   6.228   3.205  0.0250  0.2154  0.6533
  100MOL   H36238180   2.594   6.247   3.372 -1.9175  0.6491 -0.1547
  100MOL   C36338181   2.458   6.714   3.559  0.6867  0.0313 -0.3461
  100MOL   C36438182   2.355   6.814   3.608  0.4579  0.0779 -0.1608
  100MOL   O36538183   2.308   6.760   3.735 -0.3559 -0.5233 -0.2219
  100MOL   C36638184   2.220   6.849   3.798 -0.9157  0.5052  0.1055
  100MOL   C36738185   2.182   6.782   3.933 -0.1109  0.0257 -0.1575
  100MOL   C36838186   2.105   6.656   3.909  0.1912  0.8011 -0.6088
  100MOL   C36938187   2.097   6.882   4.023  0.1869 -0.4295 -0.3064
  100MOL   H37038188   2.413   6.615   3.571 -0.8744  0.9128  1.1975
  100MOL   H37138189   2.545   6.718   3.624 -0.6379  1.4931  1.3712
  100MOL   H37238190   2.272   6.847   3.545  0.5248  1.1567  0.3033
  100MOL   H37338191   2.266   6.947   3.814  0.8927 -0.1164 -1.0898
  100MOL   H37438192   2.127   6.868   3.744 -1.4601 -2.4662 -0.1035
  100MOL   H37538193   2.271   6.757   3.990 -0.2741  0.2029  0.1772
  100MOL   H37638194   2.171   6.591   3.851 -0.2107 -0.2872  0.1528
  100MOL   H37738195   2.017   6.674   3.848  0.0558  0.6114 -0.4671
  100MOL   H37838196   2.076   6.609   4.002  1.3098  0.3687 -0.4742
  100MOL   H37938197   2.007   6.915   3.970  1.3036  1.2750 -1.2075
  100MOL   H38038198   2.154   6.972   4.049 -2.2085  0.2358  2.8542
  100MOL   H38138199   2.074   6.842   4.121  0.5168  0.9822  0.3550
  100MOL   H38238200   2.406   6.910   3.611  0.6898 -0.0633  0.3345
  101MOL     C138201   7.678   6.375   4.602 -0.6084 -0.6006 -0.2597
  101MOL     C238202   7.809   6.374   4.670 -0.4290 -0.0251 -0.3156
  101MOL     O338203   0.071   6.455   4.599 -0.7212  0.3792  0.3993
  101MOL     C438204   0.146   6.395   4.498  0.5874 -0.1948  0.5995
  101MOL     C538205   0.245   6.498   4.440  0.6686  1.1065 -0.3079
  101MOL     C638206   0.171   6.606   4.364  0.4835  0.1643  0.9089
  101MOL     C738207   0.346   6.427   4.355 -0.6916 -0.2075  0.1489
  101MOL     H838208   7.698   6.304   4.521  0.8996  1.4338 -1.7188
  101MOL     H938209   7.596   6.343   4.665 -1.2377  1.1951 -0.1433
  101MOL    H1038210   0.013   6.269   4.681 -0.6423 -0.0840 -0.3301
  101MOL    H1138211   0.084   6.349   4.421  1.4105 -0.1496 -0.0994
  101MOL    H1238212   0.211   6.319   4.541  1.7238  0.0205 -0.7050
  101MOL    H1338213   0.301   6.542   4.523 -2.6614  0.7738  2.2218
  101MOL    H1438214   0.106   6.551   4.297  1.0215  0.0236  0.4992
  101MOL    H1538215   0.105   6.662   4.430 -0.4531 -0.9110  0.8968
  101MOL    H1638216   0.233   6.671   4.302 -3.3740  1.7912 -1.3613
  101MOL    H1738217   0.403   6.353   4.412  2.8001  2.2448 -0.0480
  101MOL    H1838218   0.289   6.368   4.282 -0.1481 -1.0180  0.3694
  101MOL    H1938219   0.419   6.494   4.310 -1.7363 -1.2929 -3.3594
  101MOL    H2038220   7.659   6.473   4.559 -0.9153 -0.8493 -0.7067
  101MOL    C2138221   7.811   6.429   4.818  0.0153  0.4838  0.2789
  101MOL    C2238222   0.131   6.415   4.885 -0.0806 -0.9448  0.1482
  101MOL    O2338223   0.130   6.479   5.016 -0.1550 -0.7808 -0.4405
  101MOL    C2438224   0.185   6.611   5.022  0.3458  0.5920  0.8348
  101MOL    C2538225   0.148   6.686   5.149  0.9007 -0.4492  0.1256
  101MOL    C2638226   0.213   6.830   5.156 -0.3715 -0.0796  0.0620
  101MOL    C2738227   7.823   6.694   5.167  0.3279  0.1793 -0.3682
  101MOL    H2838228   7.771   6.530   4.815 -2.7739 -0.6200 -1.1673
  101MOL    H2938229   7.740   6.373   4.878  0.6592 -1.3044 -0.5765
  101MOL    H3038230   0.193   6.467   4.813  0.2725  0.5083  1.4614
  101MOL    H3138231   0.142   6.672   4.941  3.6644 -0.6934 -2.0242
  101MOL    H3238232   0.292   6.619   5.004  0.3585 -1.3403 -0.0749
  101MOL    H3338233   0.190   6.633   5.235 -1.4245 -0.2344  1.4150
  101MOL    H3438234   0.183   6.878   5.063 -0.6109  1.1790  0.7844
  101MOL    H3538235   0.322   6.831   5.144 -0.1134 -0.8586  2.1784
  101MOL    H3638236   0.179   6.890   5.240 -2.1079  0.1423 -0.7837
  101MOL    H3738237   7.773   6.606   5.125 -1.0171 -0.0985  1.7388
  101MOL    H3838238   7.805   6.693   5.274  3.4665  2.1706  0.2435
  101MOL    H3938239   7.793   6.792   5.128 -0.9664  0.6499  1.7280
  101MOL    C4038240   0.179   6.275   4.914 -1.1519  0.3022 -0.1516
  101MOL    C4138241   0.326   6.278   4.978 -0.3997  0.1652 -0.0681
  101MOL    O4238242   0.413   6.328   4.875  0.0991 -0.3605 -0.0173
  101MOL    C4338243   0.544   6.369   4.915  0.2729 -0.0932 -0.4723
  101MOL    C4438244   0.588   6.458   4.805  0.5957 -0.0187  0.1441
  101MOL    C4538245   0.724   6.524   4.839 -0.7400  0.1093  0.1170
  101MOL    C4638246   0.612   6.384   4.673 -0.0546  0.5978 -0.5517
  101MOL    H4738247   0.170   6.196   4.840 -1.0412 -0.9865  1.1887
  101MOL    H4838248   0.113   6.232   4.990 -1.1879  0.2312 -0.2224
  101MOL    H4938249   0.327   6.341   5.066  1.4739  3.0801 -2.1084
  101MOL    H5038250   0.605   6.278   4.916 -1.1647 -1.0562  2.2761
  101MOL    H5138251   0.546   6.426   5.007  0.2814  0.3223 -0.7272
  101MOL    H5238252   0.515   6.537   4.791  1.0246  0.1387 -1.1902
  101MOL    H5338253   0.757   6.600   4.768  1.2706 -0.8719 -0.0155
  101MOL    H5438254   0.715   6.584   4.929 -0.2633 -0.1867  0.3642
  101MOL    H5538255   0.800   6.446   4.845  0.3696  0.9319 -2.2775
  101MOL    H5638256   0.687   6.308   4.696 -0.7640 -0.8609 -2.8583
  101MOL    H5738257   0.657   6.458   4.607  2.9036 -1.5778 -1.0685
  101MOL    H5838258   0.526   6.335   4.627 -0.4497  1.6757 -0.9622
  101MOL    C5938259   0.369   6.129   5.015  0.5339 -0.7572 -0.1925
  101MOL    C6038260   0.339   6.087   5.154 -0.0130  0.3097 -0.1700
  101MOL    O6138261   0.448   6.144   5.226  0.5787 -0.7894  0.0762
  101MOL    C6238262   0.401   6.190   5.351  0.3925  0.1048  0.2603
  101MOL    C6338263   0.509   6.270   5.427  0.0115  0.3232  0.1212
  101MOL    C6438264   0.582   6.362   5.331 -0.4066  0.7417  0.3287
  101MOL    C6538265   0.454   6.331   5.555  0.4532 -0.0946 -0.0447
  101MOL    H6638266   0.476   6.132   4.995  0.2054  1.5827 -1.9012
  101MOL    H6738267   0.324   6.058   4.945 -2.5603  0.9606 -0.0436
  101MOL    H6838268   0.240   6.127   5.175  0.0270 -1.1300  3.1089
  101MOL    H6938269   0.324   6.262   5.328  0.4888 -0.7845 -3.0962
  101MOL    H7038270   0.369   6.103   5.409 -0.8708  0.6221  0.3395
  101MOL    H7138271   0.579   6.196   5.465  0.9978  0.6626 -1.0032
  101MOL    H7238272   0.673   6.401   5.376  0.4119 -0.6056 -0.1329
  101MOL    H7338273   0.515   6.442   5.299 -1.6990 -0.4197  0.0798
  101MOL    H7438274   0.611   6.315   5.237  0.4062  1.6614  0.1135
  101MOL    H7538275   0.407   6.249   5.610  0.9518  0.4586  1.2151
  101MOL    H7638276   0.538   6.383   5.600  0.9380  0.1322 -1.2054
  101MOL    H7738277   0.387   6.416   5.548  3.1672  2.0255 -0.9759
  101MOL    C7838278   0.325   5.933   5.173  0.4398 -0.0918  0.4791
  101MOL    C7938279   0.436   5.835   5.129 -0.5639  0.6530  0.6121
  101MOL    O8038280   0.443   5.816   4.983  0.5939 -0.6894  0.2397
  101MOL    C8138281   0.351   5.734   4.924  0.2616 -0.1108  0.2156
  101MOL    C8238282   0.344   5.771   4.776 -0.3892 -0.1741 -0.7804
  101MOL    C8338283   0.232   5.700   4.705 -0.6382  0.3301 -0.3448
  101MOL    C8438284   0.486   5.751   4.714  0.0063 -0.3845  0.7592
  101MOL    H8538285   0.230   5.896   5.134  0.1060  0.4711  0.7370
  101MOL    H8638286   0.308   5.926   5.281 -1.4202  2.2764  0.3889
  101MOL    H8738287   0.426   5.739   5.179 -1.3060 -0.9690 -2.5400
  101MOL    H8838288   0.397   5.636   4.928 -0.7284 -0.6591 -1.3731
  101MOL    H8938289   0.257   5.736   4.979 -0.8568  0.6190 -1.6646
  101MOL    H9038290   0.315   5.876   4.772 -0.6946 -0.2027  0.3502
  101MOL    H9138291   0.136   5.731   4.745  1.0147  0.9584  3.3642
  101MOL    H9238292   0.252   5.593   4.709 -0.2509  0.4298  0.4126
  101MOL    H9338293   0.245   5.716   4.598  0.1150 -1.8439 -0.5889
  101MOL    H9438294   0.489   5.797   4.616  0.8100  5.2859  3.2326
  101MOL    H9538295   0.508   5.645   4.702 -0.8193 -0.3969 -0.7470
  101MOL    H9638296   0.561   5.803   4.773  0.8316  1.7760 -2.1281
  101MOL    C9738297   0.575   5.879   5.174 -0.0981 -0.3449  0.2629
  101MOL    C9838298   0.684   5.776   5.138 -0.5131  0.5556  0.3196
  101MOL    O9938299   0.658   5.668   5.214  0.5153  0.1916 -0.4430
  101MOL   C10038300   0.621   5.544   5.144  0.4084 -0.9461  0.7867
  101MOL   C10138301   0.688   5.413   5.197  0.0076 -0.4329 -0.1440
  101MOL   C10238302   0.832   5.394   5.144 -0.7300 -0.5883 -0.2268
  101MOL   C10338303   0.665   5.402   5.351 -0.4297  0.2054  0.2398
  101MOL   H10438304   0.570   5.904   5.280  0.3665  0.6449  0.0543
  101MOL   H10538305   0.610   5.971   5.127 -0.2322 -0.2848  0.2784
  101MOL   H10638306   0.691   5.753   5.032  0.0747 -0.6017  0.5963
  101MOL   H10738307   0.656   5.553   5.042 -0.0488  1.4834  0.8128
  101MOL   H10838308   0.513   5.526   5.150 -0.1339  1.3012 -1.2987
  101MOL   H10938309   0.623   5.335   5.159 -0.4003 -0.5253  0.7338
  101MOL   H11038310   0.840   5.380   5.037 -2.7162 -0.9837 -0.3414
  101MOL   H11138311   0.896   5.476   5.177  0.7534 -2.1655  0.9153
  101MOL   H11238312   0.883   5.313   5.196 -0.2769  0.5994  1.2140
  101MOL   H11338313   0.559   5.408   5.375 -1.1018 -2.8859 -1.6192
  101MOL   H11438314   0.700   5.310   5.398 -3.0251  0.0834  2.0256
  101MOL   H11538315   0.714   5.480   5.408  0.1814  0.9187 -1.2497
  101MOL   C11638316   0.823   5.831   5.175  0.2738 -0.2893 -0.1076
  101MOL   C11738317   0.936   5.777   5.089 -0.0596  0.2186 -0.5490
  101MOL   O11838318   0.941   5.831   4.962  0.1684  0.9732 -0.1076
  101MOL   C11938319   0.994   5.745   4.864  0.0801  0.2260  0.3622
  101MOL   C12038320   0.996   5.826   4.727  1.0935  0.4530  0.1770
  101MOL   C12138321   1.079   5.762   4.616 -0.7164 -0.1078 -0.1042
  101MOL   C12238322   0.851   5.858   4.685  0.3601  0.1109 -0.5925
  101MOL   H12338323   0.841   5.938   5.163  0.4448 -0.1823  1.0344
  101MOL   H12438324   0.829   5.804   5.281 -0.9578  0.3667  0.1359
  101MOL   H12538325   0.923   5.669   5.090  0.4504  0.1496 -0.8265
  101MOL   H12638326   0.923   5.666   4.842 -0.2172  0.8012 -0.7799
  101MOL   H12738327   1.089   5.698   4.888 -0.4368 -1.0704 -0.0934
  101MOL   H12838328   1.044   5.923   4.736  1.2389  0.4058 -0.0648
  101MOL   H12938329   1.093   5.831   4.534  2.1488 -0.4509  0.0698
  101MOL   H13038330   1.036   5.669   4.578 -0.8397 -0.5340  1.0397
  101MOL   H13138331   1.174   5.742   4.665 -0.3300  2.8620  0.4227
  101MOL   H13238332   0.786   5.771   4.691 -0.3625  0.6044 -1.2156
  101MOL   H13338333   0.822   5.929   4.763 -2.2244 -1.4355 -0.1170
  101MOL   H13438334   0.848   5.906   4.587  1.2997  0.9032 -0.2534
  101MOL   C13538335   1.073   5.815   5.148  0.3487  0.7453 -0.3588
  101MOL   C13638336   1.125   5.720   5.256 -0.8073 -0.0822 -0.5640
  101MOL   O13738337   1.220   5.651   5.173 -0.0104  0.6441  0.6331
  101MOL   C13838338   1.252   5.516   5.210  0.2272  0.1097 -0.0184
  101MOL   C13938339   1.358   5.473   5.108 -0.2615 -0.0834 -0.0437
  101MOL   C14038340   1.334   5.501   4.958  0.5840  0.2290  0.4495
  101MOL   C14138341   1.494   5.539   5.155 -0.4277 -0.0061  0.0449
  101MOL   H14238342   1.146   5.825   5.068  1.6036 -4.0624  0.0744
  101MOL   H14338343   1.063   5.918   5.183 -1.8552  0.9420 -1.4551
  101MOL   H14438344   1.047   5.664   5.308  0.1416 -2.1747 -1.3905
  101MOL   H14538345   1.162   5.454   5.207  1.9217 -2.5910  2.3271
  101MOL   H14638346   1.292   5.517   5.311 -0.5318  3.1336  0.2846
  101MOL   H14738347   1.367   5.365   5.114 -1.1471 -0.1897 -0.5761
  101MOL   H14838348   1.402   5.438   4.900  1.5532  0.3222  1.4489
  101MOL   H14938349   1.344   5.605   4.928 -0.1918 -0.0850 -0.9056
  101MOL   H15038350   1.235   5.467   4.931  0.2035 -0.1684  2.2323
  101MOL   H15138351   1.581   5.517   5.092  1.0184 -0.6844  2.2043
  101MOL   H15238352   1.493   5.648   5.161  1.0205  0.0295 -0.0297
  101MOL   H15338353   1.522   5.505   5.255 -0.7843  0.0941  0.1788
  101MOL   C15438354   1.206   5.800   5.358  0.1701 -0.2770  0.1103
  101MOL   C15538355   1.135   5.901   5.453  0.3736  0.3733  0.3299
  101MOL   O15638356   1.114   5.838   5.581 -0.0790  0.2123 -0.2360
  101MOL   C15738357   0.983   5.779   5.599 -0.2376 -1.0409 -0.0346
  101MOL   C15838358   0.995   5.693   5.730 -0.0568 -0.1270 -0.2464
  101MOL   C15938359   1.036   5.772   5.857  0.5353  0.1092  0.2693
  101MOL   C16038360   0.874   5.606   5.762  0.1819  0.2506 -0.0488
  101MOL   H16138361   1.294   5.844   5.311 -0.0017  0.9034  0.8889
  101MOL   H16238362   1.247   5.723   5.423 -0.5807 -2.7092 -2.1858
  101MOL   H16338363   1.043   5.938   5.409  2.0043  0.5830 -3.1071
  101MOL   H16438364   0.950   5.737   5.504 -1.2877 -1.4741  0.5196
  101MOL   H16538365   0.906   5.852   5.626  1.5317  0.7435  0.2872
  101MOL   H16638366   1.070   5.618   5.702  0.3389 -0.0632  0.6436
  101MOL   H16738367   1.123   5.836   5.841  0.7520  0.1012  1.4314
  101MOL   H16838368   1.061   5.705   5.938  0.8277 -0.2408 -0.1089
  101MOL   H16938369   0.957   5.842   5.885  1.5231  1.3725 -0.0157
  101MOL   H17038370   0.880   5.548   5.854  2.4328  1.6539  0.7537
  101MOL   H17138371   0.795   5.680   5.774  0.5304  0.6379 -0.1214
  101MOL   H17238372   0.857   5.548   5.672 -0.5703  3.6381 -2.1795
  101MOL   C17338373   1.230   6.027   5.469  0.2944 -0.5156  0.1507
  101MOL   C17438374   1.223   6.108   5.344 -0.5823 -0.7973  0.2406
  101MOL   O17538375   1.109   6.182   5.354  0.8423 -0.7524  0.3139
  101MOL   C17638376   1.054   6.218   5.232 -0.4530  0.5784 -0.1725
  101MOL   C17738377   0.984   6.357   5.244  0.9350 -0.1542 -0.1195
  101MOL   C17838378   1.074   6.465   5.296 -0.2600  0.3873  0.2037
  101MOL   C17938379   0.909   6.383   5.116  0.1541 -0.3922  0.0800
  101MOL   H18038380   1.193   6.081   5.557  0.1898 -0.9220  0.3591
  101MOL   H18138381   1.328   5.983   5.489  0.4839 -0.1425  0.0444
  101MOL   H18238382   1.237   6.047   5.254  1.9388 -0.1001  0.1252
  101MOL   H18338383   0.978   6.145   5.204  0.1888 -0.1914  0.0877
  101MOL   H18438384   1.129   6.237   5.156 -0.6230  1.6179 -0.0944
  101MOL   H18538385   0.908   6.342   5.321  1.1997  0.9269  0.3529
  101MOL   H18638386   1.139   6.435   5.378 -0.0533  0.4220  0.0518
  101MOL   H18738387   1.153   6.506   5.232  0.3041  2.0237  1.8919
  101MOL   H18838388   1.010   6.543   5.338  0.1452 -0.4325  2.4070
  101MOL   H18938389   0.862   6.294   5.073  2.2934 -0.7208 -1.6976
  101MOL   H19038390   0.977   6.425   5.042 -0.6783  2.9131  1.1417
  101MOL   H19138391   0.832   6.460   5.120  1.0092  0.4372  0.5314
  101MOL   C19238392   1.343   6.209   5.339  0.6755  0.4517 -0.6993
  101MOL   C19338393   1.488   6.156   5.326  0.5873 -0.1065 -0.3477
  101MOL   O19438394   1.527   6.092   5.448  0.1253 -0.1016 -0.0778
  101MOL   C19538395   1.604   5.975   5.426 -0.4099  0.0472 -0.0439
  101MOL   C19638396   1.678   5.952   5.564 -0.6140 -0.1546 -0.0833
  101MOL   C19738397   1.762   6.071   5.607 -0.0841  0.5728  0.4452
  101MOL   C19838398   1.757   5.824   5.563 -0.4380  0.1688 -0.1157
  101MOL   H19938399   1.338   6.274   5.426  2.3124  0.7862 -0.8430
  101MOL   H20038400   1.327   6.267   5.248 -1.4788 -0.4062 -0.9194
  101MOL   H20138401   1.483   6.086   5.243 -2.1122 -0.5823  0.1759
  101MOL   H20238402   1.679   6.000   5.352 -2.8638  0.9285 -2.2932
  101MOL   H20338403   1.546   5.888   5.395  2.8421 -1.5370 -1.9053
  101MOL   H20438404   1.603   5.940   5.643 -0.6397  1.0382  0.0807
  101MOL   H20538405   1.803   6.064   5.707 -1.1308  1.7062  0.9644
  101MOL   H20638406   1.846   6.090   5.540  1.6673 -0.5875  2.2768
  101MOL   H20738407   1.697   6.159   5.606  0.0320  0.6593 -1.5598
  101MOL   H20838408   1.707   5.734   5.526  0.6537 -0.2123 -0.6847
  101MOL   H20938409   1.846   5.841   5.503 -0.3981  0.5766  0.0582
  101MOL   H21038410   1.802   5.809   5.662  0.6016  1.5019 -0.3741
  101MOL   C21138411   1.588   6.270   5.283  1.0347 -0.5622  0.1652
  101MOL   C21238412   1.684   6.229   5.168 -0.1393  0.4223 -0.9313
  101MOL   O21338413   1.598   6.217   5.051 -0.3271  0.5164  0.2532
  101MOL   C21438414   1.664   6.165   4.937  0.0918  1.0791 -0.1482
  101MOL   C21538415   1.597   6.036   4.882 -0.3234  0.5693  0.4705
  101MOL   C21638416   1.634   5.901   4.953  0.4625 -0.7107  0.0558
  101MOL   C21738417   1.444   6.049   4.886 -0.1992 -0.0303 -0.4246
  101MOL   H21838418   1.639   6.304   5.373  0.0115  0.9787  0.1772
  101MOL   H21938419   1.535   6.355   5.240  2.5328  0.3815  0.1577
  101MOL   H22038420   1.734   6.133   5.183 -2.1577 -0.4003  0.7058
  101MOL   H22138421   1.767   6.139   4.960  0.7845  0.9697 -3.0845
  101MOL   H22238422   1.657   6.231   4.850 -1.8109  1.7492  0.4884
  101MOL   H22338423   1.643   6.016   4.785 -1.9443 -1.3205  0.0541
  101MOL   H22438424   1.590   5.816   4.901  1.7924 -0.7111 -1.1147
  101MOL   H22538425   1.741   5.880   4.947  0.4728 -0.8369  0.7032
  101MOL   H22638426   1.589   5.904   5.052  0.2024  0.2794 -0.0870
  101MOL   H22738427   1.421   6.040   4.992  0.7362 -3.1033 -0.4381
  101MOL   H22838428   1.392   5.974   4.826  0.2678  0.8626 -1.9712
  101MOL   H22938429   1.404   6.148   4.862  2.9817  1.7669  1.3361
  101MOL   C23038430   1.784   6.344   5.133  0.6658  0.2998 -0.6135
  101MOL   C23138431   1.893   6.353   5.238  0.3072 -0.1215  0.1465
  101MOL   O23238432   1.994   6.260   5.195 -0.1139 -0.0986  0.2209
  101MOL   C23338433   2.072   6.202   5.302  0.1209 -0.8393  0.0772
  101MOL   C23438434   2.093   6.050   5.268 -0.7463  0.6807 -0.0067
  101MOL   C23538435   1.970   5.965   5.270  0.5974  0.3563 -0.1993
  101MOL   C23638436   2.184   6.020   5.146  0.3649  0.7238 -0.1836
  101MOL   H23738437   1.720   6.432   5.130 -1.1703 -0.9655  0.4028
  101MOL   H23838438   1.833   6.335   5.036  1.1684 -2.5383 -0.1370
  101MOL   H23938439   1.843   6.325   5.331 -1.7893  0.8957 -0.6342
  101MOL   H24038440   2.163   6.260   5.312 -0.4411  0.0848 -0.1514
  101MOL   H24138441   2.026   6.204   5.400 -1.6349  0.0535 -0.7458
  101MOL   H24238442   2.157   6.006   5.344 -1.3154  0.7184  0.5042
  101MOL   H24338443   1.907   5.992   5.185 -0.8079 -1.8988  0.0582
  101MOL   H24438444   1.907   5.983   5.357 -0.2120  1.8185 -1.0730
  101MOL   H24538445   1.985   5.857   5.268 -1.1918  0.0518  1.0889
  101MOL   H24638446   2.291   6.041   5.159  0.3022  0.7496  0.3157
  101MOL   H24738447   2.177   5.911   5.139  2.0159  0.3191  3.3069
  101MOL   H24838448   2.143   6.072   5.060  1.1126  0.5052 -0.6790
  101MOL   C24938449   1.960   6.486   5.239 -0.3240 -0.1502  0.1368
  101MOL   C25038450   1.888   6.597   5.318 -0.3938 -1.1627 -0.6048
  101MOL   O25138451   1.936   6.618   5.450 -0.2369 -0.1954 -0.2231
  101MOL   C25238452   1.910   6.512   5.539  0.3962 -0.2555  0.4263
  101MOL   C25338453   1.946   6.555   5.679 -0.1443  0.6655 -0.1016
  101MOL   C25438454   1.929   6.438   5.775  0.9319  0.0936 -1.0797
  101MOL   C25538455   1.873   6.679   5.728  0.1401  0.7526  0.2883
  101MOL   H25638456   1.980   6.512   5.135 -2.0860  1.5260  0.1924
  101MOL   H25738457   2.061   6.481   5.280 -0.6554  0.7403  1.0817
  101MOL   H25838458   1.781   6.574   5.320 -0.6944  0.3000  1.8395
  101MOL   H25938459   1.805   6.481   5.533 -0.2843  2.1961 -0.8830
  101MOL   H26038460   1.967   6.422   5.516 -0.1279 -0.1226 -1.4989
  101MOL   H26138461   2.053   6.573   5.691 -0.1971 -0.3992  2.3066
  101MOL   H26238462   1.970   6.464   5.873 -1.6505 -1.2640  0.3998
  101MOL   H26338463   1.977   6.344   5.748  1.5156  0.6249 -1.9374
  101MOL   H26438464   1.825   6.411   5.790  0.9629  0.5046 -0.1235
  101MOL   H26538465   1.919   6.772   5.692  2.0529  1.3516  4.0055
  101MOL   H26638466   1.767   6.685   5.703  0.6987  0.9777 -2.1894
  101MOL   H26738467   1.875   6.683   5.837  0.1739  0.2192  0.3085
  101MOL   C26838468   1.887   6.736   5.250  0.3191 -0.4880 -0.7258
  101MOL   C26938469   1.823   6.845   5.340  0.5874  0.1267  0.1443
  101MOL   O27038470   1.685   6.822   5.339  0.1345  0.1189  0.4368
  101MOL   C27138471   1.628   6.798   5.466 -1.0640 -0.4041  0.4809
  101MOL   C27238472   1.479   6.778   5.433  0.3051  0.2783 -0.1936
  101MOL   C27338473   1.451   6.695   5.307 -0.3462  0.6003 -0.2605
  101MOL   C27438474   1.414   6.703   5.551 -0.1580  0.2392  0.0062
  101MOL   H27538475   1.832   6.715   5.158  0.3656 -0.3006 -0.7976
  101MOL   H27638476   1.992   6.761   5.239  0.2733  0.2565  0.4700
  101MOL   H27738477   1.866   6.838   5.440  0.1675 -0.6351  0.2795
  101MOL   H27838478   1.679   6.707   5.499  2.5261  1.6522  0.8175
  101MOL   H27938479   1.649   6.878   5.537  1.6204 -0.2204 -0.4520
  101MOL   H28038480   1.437   6.877   5.414  1.3282  0.3832 -2.0303
  101MOL   H28138481   1.515   6.607   5.311 -0.0765  0.8644  1.5356
  101MOL   H28238482   1.476   6.751   5.217 -2.3349  1.1044 -0.5364
  101MOL   H28338483   1.344   6.676   5.307 -0.9151  3.5086 -1.8362
  101MOL   H28438484   1.462   6.606   5.562 -1.4409 -0.5313 -1.0309
  101MOL   H28538485   1.310   6.685   5.521 -0.5960  0.8740  1.1054
  101MOL   H28638486   1.415   6.756   5.646  0.8402 -0.8145  0.5977
  101MOL   C28738487   1.848   6.983   5.282 -0.0065 -0.5057 -0.1065
  101MOL   C28838488   1.788   7.102   5.364  0.1396 -0.4490 -0.2299
  101MOL   O28938489   1.823   7.221   5.296 -0.2541 -0.2930 -0.2459
  101MOL   C29038490   1.706   7.277   5.229 -0.7364  0.4748  0.4962
  101MOL   C29138491   1.748   7.399   5.156  0.0729 -0.1245  0.3467
  101MOL   C29238492   1.784   7.514   5.245 -0.0010 -0.4103 -0.0172
  101MOL   C29338493   1.626   7.436   5.071  0.2501 -0.4461 -0.1340
  101MOL   H29438494   1.805   6.993   5.183  1.2209 -1.4900 -0.7548
  101MOL   H29538495   1.954   7.006   5.269 -0.4173  0.4262 -1.9133
  101MOL   H29638496   1.680   7.089   5.366  0.1114 -0.1431  0.9066
  101MOL   H29738497   1.661   7.203   5.163  1.7268 -1.2312  0.6750
  101MOL   H29838498   1.633   7.309   5.303  0.8130  1.4387  1.6574
  101MOL   H29938499   1.823   7.374   5.081 -2.7009 -0.6563 -2.3624
  101MOL   H30038500   1.874   7.509   5.307 -0.4375  0.5451  0.7077
  101MOL   H30138501   1.705   7.519   5.320  1.1735  0.1146  1.2233
  101MOL   H30238502   1.779   7.606   5.187  0.6886 -1.3089 -1.5076
  101MOL   H30338503   1.604   7.368   4.989 -4.7326 -1.1567  1.6072
  101MOL   H30438504   1.536   7.436   5.132  0.2042  1.4888 -0.1778
  101MOL   H30538505   1.634   7.540   5.039 -0.9049 -0.9180 -1.9997
  101MOL   C30638506   1.837   7.137   5.511  0.3905  0.7048  0.4524
  101MOL   C30738507   1.994   7.161   5.533 -0.3062 -0.1038 -0.0513
  101MOL   O30838508   2.011   7.244   5.646  0.2705 -0.6855  0.6795
  101MOL   C30938509   1.988   7.384   5.619  0.0259  0.2888  0.3378
  101MOL   C31038510   2.072   7.464   5.720 -0.3578 -0.2300 -0.6729
  101MOL   C31138511   2.225   7.434   5.731 -0.4722  0.1075 -0.0175
  101MOL   C31238512   2.000   7.456   5.855  0.0841 -0.3990 -0.2335
  101MOL   H31338513   1.797   7.064   5.581  1.4834 -1.3455 -1.0008
  101MOL   H31438514   1.785   7.223   5.553  1.7236  1.3053  0.9259
  101MOL   H31538515   2.051   7.199   5.449 -0.6165  1.0552  0.2524
  101MOL   H31638516   1.883   7.416   5.622  0.3195  1.6337 -2.0532
  101MOL   H31738517   2.012   7.414   5.517 -2.5511  1.7724  0.1068
  101MOL   H31838518   2.055   7.569   5.698  2.9838  0.6515  0.7461
  101MOL   H31938519   2.276   7.458   5.638 -0.5904 -0.7883 -0.3186
  101MOL   H32038520   2.248   7.332   5.760  0.8144  0.2680 -0.4389
  101MOL   H32138521   2.280   7.483   5.811  0.8390 -0.5029 -0.5315
  101MOL   H32238522   1.985   7.350   5.869 -1.6579 -0.0563  0.6115
  101MOL   H32338523   1.899   7.495   5.866  0.5310  1.0403 -1.0525
  101MOL   H32438524   2.065   7.498   5.933 -0.2400  2.4626 -1.4131
  101MOL   C32538525   2.071   7.031   5.548  0.1668  0.6918  0.2340
  101MOL   C32638526   2.224   7.059   5.542 -0.4653 -0.4919 -0.0449
  101MOL   O32738527   2.274   6.956   5.624 -0.1185  0.6341 -0.4238
  101MOL   C32838528   2.324   6.998   5.754 -0.4696 -0.3541 -0.1507
  101MOL   C32938529   2.392   6.881   5.837  0.5161 -0.1282  0.0985
  101MOL   C33038530   2.286   6.780   5.882  0.0880 -0.0207  0.2916
  101MOL   C33138531   2.511   6.825   5.754 -0.7430  0.3117 -0.2144
  101MOL   H33238532   2.054   6.957   5.469  0.9913  0.6111  0.1306
  101MOL   H33338533   2.044   6.980   5.641  3.0340 -1.5556 -0.0782
  101MOL   H33438534   2.243   7.155   5.590 -1.3879 -0.0467 -0.5579
  101MOL   H33538535   2.404   7.069   5.734 -1.7136  1.8893  2.4886
  101MOL   H33638536   2.243   7.040   5.813 -0.1709 -1.1912  0.8715
  101MOL   H33738537   2.429   6.935   5.924 -1.1543 -1.4945  1.7089
  101MOL   H33838538   2.221   6.757   5.798  1.1254 -0.6414 -0.3517
  101MOL   H33938539   2.321   6.687   5.925  0.5644  0.1989  0.3900
  101MOL   H34038540   2.234   6.817   5.970  1.0247  1.3057  0.3053
  101MOL   H34138541   2.566   6.749   5.808 -0.6273  0.0623 -0.6846
  101MOL   H34238542   2.493   6.787   5.654 -1.4015 -0.6758  0.2707
  101MOL   H34338543   2.583   6.906   5.746 -1.0439  0.5064 -1.0199
  101MOL   C34438544   2.280   7.040   5.398  0.4758  0.7569  0.6556
  101MOL   C34538545   2.416   7.095   5.347  0.1575  0.3408  0.6500
  101MOL   O34638546   2.426   7.095   5.204 -0.5123 -0.5852  0.3174
  101MOL   C34738547   2.442   6.966   5.144 -0.1780 -0.6202  0.1032
  101MOL   C34838548   2.504   6.988   5.003  0.0007  0.7284 -0.2048
  101MOL   C34938549   2.532   6.854   4.942 -0.2327 -0.4439 -0.7924
  101MOL   C35038550   2.639   7.054   5.011  0.2881  0.4446 -0.9564
  101MOL   H35138551   2.206   7.081   5.330  1.5406 -1.6557 -2.0614
  101MOL   H35238552   2.284   6.933   5.378  1.3221  1.1327 -1.2757
  101MOL   H35338553   2.488   7.028   5.395  0.0498 -0.6672 -0.5688
  101MOL   H35438554   2.344   6.917   5.140 -0.9792  0.9856 -0.3856
  101MOL   H35538555   2.509   6.912   5.210  1.5409  3.1565  1.5525
  101MOL   H35638556   2.430   7.048   4.949 -1.6402 -2.1833 -1.3348
  101MOL   H35738557   2.446   6.787   4.955 -1.1673  0.3308 -2.8575
  101MOL   H35838558   2.628   6.813   4.976 -0.6853  0.3454  1.5229
  101MOL   H35938559   2.545   6.855   4.834 -3.0544 -2.0614 -1.1960
  101MOL   H36038560   2.641   7.158   5.044  0.0836 -0.0090  0.5160
  101MOL   H36138561   2.703   7.002   5.083 -0.2432  0.5613 -0.3948
  101MOL   H36238562   2.687   7.059   4.913  4.5572 -3.3828  0.7332
  101MOL   C36338563   2.451   7.237   5.388 -0.1563 -0.7687 -0.3936
  101MOL   C36438564   2.604   7.265   5.391  0.4986 -0.1642 -0.2348
  101MOL   O36538565   2.624   7.405   5.408  0.1281 -0.0008  0.1927
  101MOL   C36638566   2.756   7.449   5.389 -0.3653 -0.3177  0.0373
  101MOL   C36738567   2.767   7.577   5.479  0.4176  0.0274  0.5374
  101MOL   C36838568   2.762   7.535   5.631 -0.0334 -0.0730  0.0884
  101MOL   C36938569   2.659   7.686   5.445 -0.4298 -0.4171 -0.3160
  101MOL   H37038570   2.400   7.310   5.325  0.3615  0.0594  0.1349
  101MOL   H37138571   2.427   7.259   5.492 -1.0555 -0.5684 -0.6418
  101MOL   H37238572   2.654   7.239   5.297 -1.0587 -1.7065 -0.6724
  101MOL   H37338573   2.820   7.376   5.439  0.0125 -0.3759 -0.5368
  101MOL   H37438574   2.768   7.463   5.282 -2.0254  0.6013 -0.0483
  101MOL   H37538575   2.861   7.628   5.458  0.1582  0.9925  1.6362
  101MOL   H37638576   2.829   7.453   5.657  1.7433  1.2201 -0.3347
  101MOL   H37738577   2.664   7.512   5.672  0.3218 -2.3501 -0.2290
  101MOL   H37838578   2.793   7.621   5.690 -2.0601  0.8887 -0.1980
  101MOL   H37938579   2.649   7.697   5.337 -0.0435  1.2031 -0.1969
  101MOL   H38038580   2.694   7.779   5.491  0.3811 -1.3651  1.0079
  101MOL   H38138581   2.561   7.657   5.482 -0.4988  0.9948  0.6544
  101MOL   H38238582   2.657   7.216   5.472  1.8950  1.5645 -0.0990
  102MOL     C138583   6.987   2.358   5.312  0.3379  0.0428  0.6620
  102MOL     C238584   6.931   2.320   5.174 -0.6478 -0.4182 -0.0613
  102MOL     O338585   6.857   2.435   5.132 -0.2473  0.2514  0.2700
  102MOL     C438586   6.750   2.416   5.044  0.2351  0.4874  0.1058
  102MOL     C538587   6.717   2.558   4.991 -0.1475 -0.6439 -0.4995
  102MOL     C638588   6.825   2.609   4.894  0.8508  0.0092 -0.1269
  102MOL     C738589   6.687   2.666   5.097  0.6898  0.0015 -0.2176
  102MOL     H838590   6.911   2.408   5.372 -0.4861 -0.2345 -0.1567
  102MOL     H938591   7.007   2.268   5.371  1.8855  0.4466  0.7756
  102MOL    H1038592   6.857   2.242   5.189 -0.1037 -0.8704  0.2918
  102MOL    H1138593   6.666   2.362   5.089 -1.3952  2.7787 -0.0857
  102MOL    H1238594   6.782   2.351   4.963  0.4644  3.1811 -2.0404
  102MOL    H1338595   6.633   2.548   4.923  0.8564  1.2092 -2.0681
  102MOL    H1438596   6.847   2.526   4.826  0.9040 -0.0415 -0.0472
  102MOL    H1538597   6.795   2.695   4.835  1.1770  0.5571  0.5044
  102MOL    H1638598   6.923   2.626   4.937  0.7590 -1.3279  0.6609
  102MOL    H1738599   6.762   2.670   5.176 -0.1700 -2.8602  0.7984
  102MOL    H1838600   6.665   2.767   5.063  0.3546 -0.0907 -0.2799
  102MOL    H1938601   6.594   2.633   5.142  0.9144  0.4237  0.5690
  102MOL    H2038602   7.074   2.422   5.323  0.5031  0.1461 -1.1838
  102MOL    C2138603   7.033   2.286   5.071  0.1946 -0.8151  0.1599
  102MOL    C2238604   7.149   2.202   5.126  0.0922 -0.0460 -0.2251
  102MOL    O2338605   7.088   2.088   5.185  0.1817 -0.3178  0.3143
  102MOL    C2438606   7.170   2.031   5.291  0.0286 -0.8455 -0.9965
  102MOL    C2538607   7.104   1.904   5.346  0.3293 -0.2899 -1.1715
  102MOL    C2638608   7.202   1.823   5.432 -0.1544  0.4246  0.0895
  102MOL    C2738609   6.974   1.933   5.411  0.4915  0.1631  0.2128
  102MOL    H2838610   6.991   2.233   4.986 -1.0638 -3.3290  2.2538
  102MOL    H2938611   7.065   2.383   5.033 -0.4266 -1.3385 -1.7633
  102MOL    H3038612   7.208   2.260   5.198 -1.1129 -1.5921  2.0865
  102MOL    H3138613   7.193   2.103   5.370  0.3657 -0.8608 -1.0788
  102MOL    H3238614   7.263   2.013   5.236 -0.1797  1.6838 -2.2671
  102MOL    H3338615   7.090   1.839   5.259  0.7961 -1.3373 -0.4657
  102MOL    H3438616   7.166   1.723   5.453  1.1843 -0.2478 -0.6994
  102MOL    H3538617   7.209   1.879   5.525 -0.4193  0.0730  0.3186
  102MOL    H3638618   7.301   1.820   5.386 -0.3614 -1.5389 -0.2464
  102MOL    H3738619   6.923   1.997   5.339  2.2636  0.5502 -0.7368
  102MOL    H3838620   6.900   1.853   5.411  0.4031  0.2323 -0.8958
  102MOL    H3938621   6.979   1.992   5.503  1.8769  0.1650  0.1499
  102MOL    C4038622   7.249   2.160   5.020  0.1590 -0.5413 -0.5626
  102MOL    C4138623   7.306   2.281   4.927 -0.5007  0.4783 -0.2777
  102MOL    O4238624   7.410   2.229   4.844  0.3614 -0.2392 -0.9023
  102MOL    C4338625   7.365   2.189   4.721 -0.0950 -0.0381  0.0001
  102MOL    C4438626   7.473   2.099   4.660 -0.1902 -0.2661 -0.0267
  102MOL    C4538627   7.601   2.175   4.635 -0.4235 -0.8254 -0.2256
  102MOL    C4638628   7.496   1.969   4.736  0.5638  0.9462 -0.1248
  102MOL    H4738629   7.199   2.093   4.949  0.1126 -0.0164 -1.0310
  102MOL    H4838630   7.334   2.108   5.064 -0.2652 -0.1026  0.7822
  102MOL    H4938631   7.229   2.330   4.868 -0.1448  1.8910  0.4118
  102MOL    H5038632   7.358   2.281   4.663  1.5556  0.5016  0.6225
  102MOL    H5138633   7.270   2.137   4.726 -0.6960  0.5589 -3.8340
  102MOL    H5238634   7.443   2.079   4.557  1.3121  2.8624 -1.1181
  102MOL    H5338635   7.671   2.122   4.570  1.2191  0.1919  0.6911
  102MOL    H5438636   7.571   2.270   4.589  0.3603 -0.5990 -0.2761
  102MOL    H5538637   7.659   2.200   4.724  0.6765  2.7467 -1.8266
  102MOL    H5638638   7.571   1.911   4.683  0.5838  0.5158  0.3722
  102MOL    H5738639   7.411   1.905   4.759 -0.9710  2.0642 -2.5687
  102MOL    H5838640   7.526   1.998   4.837 -0.3757 -1.4766  0.8941
  102MOL    C5938641   7.364   2.406   5.006 -0.4252  0.0724 -0.2314
  102MOL    C6038642   7.360   2.531   4.922 -0.1696 -0.1457  0.2809
  102MOL    O6138643   7.437   2.631   5.001  0.3693 -0.4394 -0.2226
  102MOL    C6238644   7.573   2.623   4.988 -0.0402  0.5259  0.9583
  102MOL    C6338645   7.630   2.736   5.079 -0.4498 -0.4218  0.3834
  102MOL    C6438646   7.639   2.676   5.217  0.3962 -0.6281 -0.9576
  102MOL    C6538647   7.763   2.792   5.028 -0.1643 -0.0530  0.0358
  102MOL    H6638648   7.460   2.387   5.053 -0.9402  0.4003  0.9917
  102MOL    H6738649   7.295   2.427   5.089  0.5398  1.6777  0.1833
  102MOL    H6838650   7.415   2.498   4.834 -0.4675  1.0171 -0.3579
  102MOL    H6938651   7.616   2.524   5.009 -0.4315  0.3915  1.1268
  102MOL    H7038652   7.583   2.631   4.880 -1.5901 -2.1114  0.5664
  102MOL    H7138653   7.561   2.820   5.079 -1.4722 -1.2349 -1.9643
  102MOL    H7238654   7.663   2.745   5.297  1.0723 -0.4931 -1.2731
  102MOL    H7338655   7.718   2.601   5.221  1.1237  0.1817  0.1684
  102MOL    H7438656   7.540   2.635   5.237  0.0181  1.0965  0.8240
  102MOL    H7538657   7.803   2.860   5.104 -2.1775 -0.9662  1.9665
  102MOL    H7638658   0.013   2.712   5.023  0.0209  0.0643  0.8499
  102MOL    H7738659   7.759   2.847   4.935 -1.4816 -0.2266 -0.0182
  102MOL    C7838660   7.226   2.603   4.903 -0.7838  0.5877  0.2770
  102MOL    C7938661   7.238   2.707   4.784  0.5876 -0.9303 -0.2131
  102MOL    O8038662   7.153   2.672   4.673  0.2453 -0.1861  0.1492
  102MOL    C8138663   7.188   2.563   4.590  0.3563  0.0634 -1.3076
  102MOL    C8238664   7.103   2.569   4.463 -0.2303  0.8806  0.8603
  102MOL    C8338665   7.092   2.440   4.385 -0.1805 -0.1163  0.0140
  102MOL    C8438666   7.144   2.693   4.374 -0.0749 -0.0943 -0.1207
  102MOL    H8538667   7.183   2.634   4.998 -1.4390  1.0466 -0.1644
  102MOL    H8638668   7.148   2.530   4.878 -0.5981  0.1954  0.8314
  102MOL    H8738669   7.344   2.718   4.760  0.3734  1.6894 -0.0476
  102MOL    H8838670   7.291   2.569   4.556  0.8185 -3.0009 -0.5261
  102MOL    H8938671   7.170   2.469   4.642  1.0258  0.9627  0.6240
  102MOL    H9038672   7.003   2.577   4.504 -0.3653  0.8997  0.5313
  102MOL    H9138673   7.161   2.432   4.302  0.1518 -0.7759  0.3537
  102MOL    H9238674   6.996   2.431   4.334  0.1864  1.5026 -0.9759
  102MOL    H9338675   7.101   2.358   4.457  0.0904  0.5179  0.7135
  102MOL    H9438676   7.186   2.766   4.443  0.6813 -0.3124 -0.3504
  102MOL    H9538677   7.062   2.729   4.312 -1.6473 -1.4343  1.1154
  102MOL    H9638678   7.228   2.672   4.308  0.1850  0.7686 -0.0649
  102MOL    C9738679   7.197   2.847   4.821  1.0571  0.1593  0.4113
  102MOL    C9838680   7.224   2.957   4.707 -0.2770  0.0423 -0.7874
  102MOL    O9938681   7.260   3.076   4.772 -0.1439 -0.5605 -0.3735
  102MOL   C10038682   7.402   3.092   4.768 -0.2278  0.3720  0.4408
  102MOL   C10138683   7.450   3.139   4.903 -0.0079 -0.3120 -0.3119
  102MOL   C10238684   7.605   3.143   4.912  0.3149 -0.5580  0.1542
  102MOL   C10338685   7.391   3.282   4.934  0.2403 -0.0396 -0.0613
  102MOL   H10438686   7.256   2.871   4.910  0.6541 -1.1528  1.0428
  102MOL   H10538687   7.091   2.845   4.846  0.6504 -1.8620 -1.2997
  102MOL   H10638688   7.299   2.920   4.638  0.3557 -2.8059  1.3671
  102MOL   H10738689   7.418   3.164   4.687 -2.1390  0.2892 -0.0348
  102MOL   H10838690   7.453   2.997   4.754 -2.5721 -1.0190  1.0912
  102MOL   H10938691   7.409   3.071   4.978 -0.2307  0.8435  0.6451
  102MOL   H11038692   7.660   3.049   4.913  0.3889 -0.5181 -0.0596
  102MOL   H11138693   7.643   3.184   4.818 -1.1324 -1.4280 -0.8280
  102MOL   H11238694   7.655   3.189   4.998 -0.1268  1.3497 -0.5693
  102MOL   H11338695   7.283   3.285   4.930  0.1931 -1.0621  0.4137
  102MOL   H11438696   7.433   3.316   5.028  1.4197  1.6899 -1.1937
  102MOL   H11538697   7.430   3.355   4.862  1.0309  0.9206  1.3141
  102MOL   C11638698   7.087   2.988   4.634  0.0300 -0.4015 -0.7122
  102MOL   C11738699   7.093   3.086   4.521  0.8444  0.4177 -0.3485
  102MOL   O11838700   7.160   3.009   4.418  0.4122  0.0162  0.3356
  102MOL   C11938701   7.258   3.078   4.343  0.2107 -0.2012 -0.8326
  102MOL   C12038702   7.322   2.979   4.239 -0.2666  0.6945  0.4120
  102MOL   C12138703   7.221   2.950   4.133 -0.4822 -0.0447 -0.0313
  102MOL   C12238704   7.458   3.029   4.179  0.0060 -0.2030  0.1893
  102MOL   H12338705   7.044   2.893   4.603 -1.7564  0.3122 -0.4862
  102MOL   H12438706   7.011   3.025   4.703  0.3473 -0.4932 -0.3135
  102MOL   H12538707   7.146   3.176   4.555  1.3478  1.1304 -2.8622
  102MOL   H12638708   7.322   3.130   4.415 -3.2158  1.3495  1.1967
  102MOL   H12738709   7.208   3.157   4.288  0.8002  0.3043 -0.6586
  102MOL   H12838710   7.336   2.884   4.290 -0.5512  1.1474  1.3413
  102MOL   H12938711   7.120   2.934   4.169 -1.3276 -0.2784 -2.4053
  102MOL   H13038712   7.250   2.871   4.064  0.2286  1.0432 -1.0106
  102MOL   H13138713   7.209   3.039   4.070 -1.1104 -0.3478 -0.3406
  102MOL   H13238714   7.446   3.116   4.115  1.0741  0.4270  0.8434
  102MOL   H13338715   7.532   3.066   4.249  1.3103 -2.7195  0.2083
  102MOL   H13438716   7.501   2.953   4.113  0.0478  1.6685 -2.0014
  102MOL   C13538717   6.956   3.132   4.472 -0.6262  0.1683 -0.7614
  102MOL   C13638718   6.880   3.226   4.558  0.2101  0.2734 -0.6386
  102MOL   O13738719   6.941   3.354   4.546  0.1405  0.4928 -0.3736
  102MOL   C13838720   6.987   3.404   4.675 -1.0188  0.2257 -0.0327
  102MOL   C13938721   7.022   3.549   4.671  0.4094  0.6950 -0.6897
  102MOL   C14038722   7.061   3.614   4.801  0.2259 -1.1524  0.4177
  102MOL   C14138723   7.129   3.568   4.562  0.1061 -0.2660  0.1298
  102MOL   H14238724   6.969   3.174   4.372  0.4557  1.6349 -0.0402
  102MOL   H14338725   6.909   3.035   4.458  0.6169 -0.0117 -4.1152
  102MOL   H14438726   6.869   3.195   4.662 -0.0604 -0.4177 -0.8668
  102MOL   H14538727   7.076   3.365   4.726  0.2246  0.4317 -2.0058
  102MOL   H14638728   6.905   3.390   4.745 -0.9559 -1.8654 -0.3361
  102MOL   H14738729   6.940   3.608   4.631 -0.2699  0.5367  0.4723
  102MOL   H14838730   7.150   3.570   4.844  1.9477  1.1181 -0.7176
  102MOL   H14938731   6.977   3.634   4.868  0.9493 -1.8404  1.5457
  102MOL   H15038732   7.091   3.718   4.785  0.0585 -1.0195  0.9712
  102MOL   H15138733   7.102   3.543   4.460 -1.6034  0.6558  0.3334
  102MOL   H15238734   7.148   3.674   4.545 -0.5960  0.1833  2.0062
  102MOL   H15338735   7.228   3.530   4.586  0.0542 -0.5237 -0.0632
  102MOL   C15438736   6.738   3.240   4.502 -0.4101  0.6881  0.2572
  102MOL   C15538737   6.634   3.324   4.584  0.1882 -0.5091  0.6838
  102MOL   O15638738   6.598   3.276   4.718 -0.2924  0.3497  0.6072
  102MOL   C15738739   6.546   3.141   4.703 -0.7229  0.6904  0.7931
  102MOL   C15838740   6.468   3.099   4.826 -0.0137  0.2162  0.4123
  102MOL   C15938741   6.332   3.167   4.828  0.4598  0.4343 -0.5640
  102MOL   C16038742   6.457   2.943   4.840 -0.2276 -0.3881 -0.3214
  102MOL   H16138743   6.694   3.143   4.476 -1.7865  1.3009  0.2371
  102MOL   H16238744   6.753   3.282   4.403 -1.1216 -2.7160 -1.3859
  102MOL   H16338745   6.542   3.307   4.528  0.0056 -0.2352  0.8977
  102MOL   H16438746   6.635   3.078   4.704 -0.4012  1.1528  2.1707
  102MOL   H16538747   6.488   3.118   4.614  0.8771  1.6714 -0.5135
  102MOL   H16638748   6.532   3.142   4.903  0.2163 -0.4093  0.5732
  102MOL   H16738749   6.277   3.142   4.919  1.5144  0.8574  0.2130
  102MOL   H16838750   6.278   3.133   4.741 -0.3039 -1.9788  0.8073
  102MOL   H16938751   6.339   3.276   4.819  0.4885  0.3470 -1.5621
  102MOL   H17038752   6.555   2.912   4.875 -1.3616 -1.3684  2.1317
  102MOL   H17138753   6.380   2.915   4.913 -1.4491  0.9575 -1.0487
  102MOL   H17238754   6.433   2.895   4.746  1.2513  1.0316 -1.4483
  102MOL   C17338755   6.654   3.478   4.586 -0.1026  0.7643  0.3244
  102MOL   C17438756   6.539   3.553   4.644 -0.7757  0.0302 -0.1320
  102MOL   O17538757   6.582   3.653   4.731  0.5287 -0.2975  0.4047
  102MOL   C17638758   6.622   3.610   4.861 -0.2416  0.5426  0.4995
  102MOL   C17738759   6.639   3.727   4.960  0.0846  0.0086  0.1726
  102MOL   C17838760   6.505   3.802   4.984 -0.0472  0.6515  0.1118
  102MOL   C17938761   6.708   3.669   5.088 -0.1903  0.1438 -0.0042
  102MOL   H18038762   6.738   3.499   4.652 -1.4567  0.5579  2.1464
  102MOL   H18138763   6.677   3.511   4.485  0.6895  0.4781  0.4141
  102MOL   H18238764   6.470   3.490   4.700 -0.1652  0.7591  1.4450
  102MOL   H18338765   6.722   3.566   4.861 -0.4995 -0.0459  0.3778
  102MOL   H18438766   6.559   3.531   4.903 -1.7261  1.7426  0.5531
  102MOL   H18538767   6.717   3.793   4.922 -1.9175  2.0771 -0.4626
  102MOL   H18638768   6.517   3.891   5.046 -0.3387  1.2147 -0.6253
  102MOL   H18738769   6.466   3.840   4.889  1.4439  2.9287  0.3675
  102MOL   H18838770   6.433   3.729   5.020 -0.9897  1.2859 -0.4460
  102MOL   H18938771   6.713   3.731   5.177  3.6744  0.1134 -0.1224
  102MOL   H19038772   6.810   3.634   5.070 -0.0326  0.3972  0.4190
  102MOL   H19138773   6.652   3.589   5.137 -1.1649 -1.1495 -3.0352
  102MOL   C19238774   6.448   3.621   4.549  0.5282 -0.2625 -0.3735
  102MOL   C19338775   6.375   3.535   4.445  0.6367  0.5843 -0.0365
  102MOL   O19438776   6.299   3.616   4.352 -0.3916 -0.5253 -0.2242
  102MOL   C19538777   6.378   3.700   4.273  0.2259 -0.2951  0.5034
  102MOL   C19638778   6.285   3.759   4.170  0.4152  0.4233  0.5362
  102MOL   C19738779   6.251   3.653   4.065  0.4346 -0.3677  0.5169
  102MOL   C19838780   6.326   3.887   4.099  1.0261  0.9023  0.0844
  102MOL   H19938781   6.503   3.702   4.501  1.2884  1.6185  3.4813
  102MOL   H20038782   6.379   3.672   4.616 -2.7390 -3.5372 -1.1262
  102MOL   H20138783   6.457   3.483   4.395  1.8344  4.7065 -2.5785
  102MOL   H20238784   6.455   3.635   4.232  0.8761  0.9735 -0.3021
  102MOL   H20338785   6.418   3.779   4.336  1.2878 -0.0527 -0.4713
  102MOL   H20438786   6.192   3.787   4.219 -1.6494  0.0142 -3.0232
  102MOL   H20538787   6.215   3.561   4.110  1.1469 -1.2002 -0.5836
  102MOL   H20638788   6.176   3.686   3.992 -1.4866 -0.2303  2.5157
  102MOL   H20738789   6.339   3.620   4.010  0.1074 -0.1796 -0.1343
  102MOL   H20838790   6.252   3.910   4.022 -1.2457 -0.8377  1.6731
  102MOL   H20938791   6.317   3.956   4.183  1.7531  1.1444 -0.0317
  102MOL   H21038792   6.425   3.877   4.055  0.0347 -3.2203 -1.3869
  102MOL   C21138793   6.275   3.428   4.495  0.0426  0.3911 -0.4924
  102MOL   C21238794   6.213   3.344   4.389  0.0252 -0.3327  0.5023
  102MOL   O21338795   6.316   3.263   4.337 -0.7168 -0.1783  0.0893
  102MOL   C21438796   6.301   3.219   4.208 -0.0304 -0.1615 -0.1683
  102MOL   C21538797   6.408   3.109   4.180  0.2701 -0.1206  0.4203
  102MOL   C21638798   6.553   3.159   4.191  0.5403  0.2958 -0.4785
  102MOL   C21738799   6.371   2.983   4.263  0.0862 -0.1750 -0.0759
  102MOL   H21838800   6.200   3.488   4.547  2.0450  1.3623  1.3655
  102MOL   H21938801   6.320   3.375   4.579  2.0249  2.3466 -0.2578
  102MOL   H22038802   6.159   3.412   4.323  0.5126 -1.6578 -1.3130
  102MOL   H22138803   6.314   3.307   4.145 -1.3620  0.5282  0.5275
  102MOL   H22238804   6.203   3.173   4.193 -0.9538  0.0823  4.4038
  102MOL   H22338805   6.390   3.081   4.076  1.5849  0.4507  0.0382
  102MOL   H22438806   6.623   3.081   4.160  2.7265  1.8528  0.4746
  102MOL   H22538807   6.558   3.251   4.133 -0.0600  0.3049 -0.5246
  102MOL   H22638808   6.567   3.185   4.296 -4.2624  0.7251  0.1857
  102MOL   H22738809   6.306   2.999   4.349  0.1156 -1.0859  0.1156
  102MOL   H22838810   6.455   2.917   4.281  1.3984  1.9202  1.6367
  102MOL   H22938811   6.306   2.920   4.202 -1.3293  0.0995  1.0856
  102MOL   C23038812   6.102   3.254   4.453  0.9506  0.4733  0.2024
  102MOL   C23138813   5.973   3.323   4.512 -0.7153  0.0713  0.8085
  102MOL   O23238814   5.898   3.357   4.394 -0.8627  0.1066  0.1976
  102MOL   C23338815   5.788   3.454   4.426  0.4339 -1.0522 -0.4174
  102MOL   C23438816   5.754   3.498   4.281  1.1436  0.5076 -0.9997
  102MOL   C23538817   5.624   3.575   4.265  0.0819  0.3138  0.0388
  102MOL   C23638818   5.876   3.569   4.220 -0.3787  0.5041  0.4031
  102MOL   H23738819   6.159   3.210   4.535  0.4412  1.2855  1.0093
  102MOL   H23838820   6.071   3.164   4.400  0.8343  0.3249  0.5252
  102MOL   H23938821   5.996   3.414   4.567 -3.2549  0.2229  1.6612
  102MOL   H24038822   5.710   3.405   4.485 -1.6507  0.4321 -1.9093
  102MOL   H24138823   5.811   3.549   4.475  2.0221 -0.8885 -1.4406
  102MOL   H24238824   5.737   3.406   4.225  0.3904  0.6728 -1.0397
  102MOL   H24338825   5.628   3.653   4.341  0.0384 -1.0081  1.4111
  102MOL   H24438826   5.536   3.513   4.282 -0.6309  0.6999 -2.1201
  102MOL   H24538827   5.627   3.613   4.163  1.0760 -1.5913 -0.6640
  102MOL   H24638828   5.839   3.611   4.126 -2.1428 -2.7555 -0.4077
  102MOL   H24738829   5.904   3.650   4.288 -0.5677  1.9165 -1.1521
  102MOL   H24838830   5.966   3.510   4.202 -1.1117  0.2439 -2.6474
  102MOL   C24938831   5.896   3.231   4.604 -0.0970  0.9246  0.6306
  102MOL   C25038832   5.946   3.223   4.748  0.1928 -0.2043  0.0296
  102MOL   O25138833   5.921   3.352   4.804 -0.3184  0.5398  0.0713
  102MOL   C25238834   6.017   3.419   4.878 -0.3919  0.9479 -0.1904
  102MOL   C25338835   6.001   3.572   4.852 -0.3263  0.3543 -0.1494
  102MOL   C25438836   6.119   3.643   4.918  0.2830  0.2985  0.3966
  102MOL   C25538837   5.859   3.638   4.877 -0.0982 -0.6608 -0.0836
  102MOL   H25638838   5.872   3.134   4.560 -2.6782  1.2899  1.1335
  102MOL   H25738839   5.797   3.275   4.612 -0.4475 -0.0096  1.7085
  102MOL   H25838840   6.052   3.198   4.744  0.6450  1.9155 -2.5087
  102MOL   H25938841   6.002   3.398   4.984  0.2756  2.5981  0.2435
  102MOL   H26038842   6.114   3.386   4.841 -2.3112 -3.7584 -1.3166
  102MOL   H26138843   6.026   3.580   4.746  1.2141 -0.5560  0.1189
  102MOL   H26238844   6.093   3.650   5.024 -0.6859 -1.7717  0.3278
  102MOL   H26338845   6.099   3.748   4.897 -0.3596  0.6937  2.8288
  102MOL   H26438846   6.218   3.616   4.882 -0.0530 -0.0602 -0.2654
  102MOL   H26538847   5.818   3.606   4.973 -1.3043 -0.1207 -0.4025
  102MOL   H26638848   5.857   3.747   4.872  2.6855 -0.6022 -0.3618
  102MOL   H26738849   5.779   3.605   4.810  0.4466 -0.9065 -0.6171
  102MOL   C26838850   5.874   3.120   4.838  0.3303 -0.1789  0.5843
  102MOL   C26938851   5.958   2.985   4.833  0.0765  0.3122 -0.8262
  102MOL   O27038852   5.931   2.926   4.711  0.1481  0.4338  0.2959
  102MOL   C27138853   6.034   2.856   4.636  0.2468 -0.1160  0.0747
  102MOL   C27238854   5.977   2.764   4.520 -0.6659 -0.6617 -0.1208
  102MOL   C27338855   5.899   2.856   4.430 -0.1819 -0.1789 -1.1687
  102MOL   C27438856   6.101   2.700   4.450 -0.2946 -0.1326  0.5169
  102MOL   H27538857   5.774   3.089   4.808 -1.2141  0.3250  4.8854
  102MOL   H27638858   5.861   3.165   4.937  0.1878  5.4023 -1.8094
  102MOL   H27738859   6.064   3.003   4.850  0.7445 -2.3364 -1.9217
  102MOL   H27838860   6.083   2.941   4.588 -0.4406  0.4056  0.2879
  102MOL   H27938861   6.104   2.805   4.702  0.2153  1.5414  1.4220
  102MOL   H28038862   5.911   2.684   4.553  0.0987 -0.3252  2.3138
  102MOL   H28138863   5.797   2.870   4.468  0.1367  0.2204 -0.4426
  102MOL   H28238864   5.889   2.818   4.328 -1.2495 -0.1652 -1.0802
  102MOL   H28338865   5.942   2.955   4.417 -2.0441  0.8082 -0.1215
  102MOL   H28438866   6.149   2.625   4.512  0.6068  0.0916  0.0998
  102MOL   H28538867   6.177   2.777   4.439 -1.0563  0.4267 -1.0087
  102MOL   H28638868   6.089   2.659   4.350 -0.8398 -0.7784  0.8428
  102MOL   C28738869   5.907   2.891   4.947  0.4663  0.7062  0.8965
  102MOL   C28838870   6.000   2.777   4.999 -0.2522  0.7856  0.0404
  102MOL   O28938871   5.934   2.696   5.087  0.1962 -0.2885  0.0744
  102MOL   C29038872   5.873   2.578   5.046 -0.4970  0.0542  0.2055
  102MOL   C29138873   5.823   2.504   5.176  0.4459  0.1959  0.2482
  102MOL   C29238874   5.818   2.353   5.135 -0.1774 -0.6512  0.6351
  102MOL   C29338875   5.692   2.557   5.229 -0.1253 -0.1592 -0.3309
  102MOL   H29438876   5.822   2.832   4.913  2.0656 -0.8103 -0.6440
  102MOL   H29538877   5.872   2.948   5.032  2.0478  1.3921  1.1131
  102MOL   H29638878   6.032   2.713   4.917  0.2087 -0.0884  0.8969
  102MOL   H29738879   5.786   2.595   4.982  0.5251  1.8506 -0.7369
  102MOL   H29838880   5.952   2.524   4.994  0.5844  2.3043 -0.5380
  102MOL   H29938881   5.898   2.503   5.256  0.8606  1.5029 -0.1121
  102MOL   H30038882   5.780   2.325   5.037  0.1589  0.4529  0.1895
  102MOL   H30138883   5.763   2.301   5.214 -1.1078  0.3773  0.6723
  102MOL   H30238884   5.923   2.325   5.145 -0.2331 -0.6928  1.1120
  102MOL   H30338885   5.667   2.515   5.327  1.7631 -1.4026 -0.3588
  102MOL   H30438886   5.685   2.666   5.237 -1.0949 -0.3168  1.0370
  102MOL   H30538887   5.611   2.527   5.162 -1.0108  0.8762  0.2554
  102MOL   C30638888   6.112   2.829   5.085  0.4015  0.2783 -0.8265
  102MOL   C30738889   6.210   2.719   5.146 -0.1446  0.3390  0.3287
  102MOL   O30838890   6.249   2.639   5.035  0.0524 -0.0449  0.7220
  102MOL   C30938891   6.254   2.499   5.070  0.7084 -0.7108  0.1916
  102MOL   C31038892   6.323   2.409   4.967  0.3625 -0.1248 -0.4346
  102MOL   C31138893   6.258   2.429   4.829  0.1574 -0.1034  0.1008
  102MOL   C31238894   6.345   2.266   5.016  0.0152  0.7086  0.1713
  102MOL   H31338895   6.073   2.884   5.171 -0.8830 -0.5388 -0.8668
  102MOL   H31438896   6.169   2.893   5.018  2.3203  2.2717  2.6067
  102MOL   H31538897   6.156   2.653   5.214  1.3438  0.2549  1.4245
  102MOL   H31638898   6.152   2.464   5.086 -0.2202  1.9791  0.5793
  102MOL   H31738899   6.306   2.486   5.165  0.6196 -0.1362  0.3247
  102MOL   H31838900   6.425   2.446   4.951 -0.3168  1.3199 -1.5007
  102MOL   H31938901   6.256   2.534   4.799 -0.6449  0.5596  2.3343
  102MOL   H32038902   6.154   2.400   4.813  0.0699  1.1380 -1.6247
  102MOL   H32138903   6.324   2.385   4.755  1.4116  2.0410 -0.0960
  102MOL   H32238904   6.394   2.254   5.112  1.1950 -3.9920 -0.8622
  102MOL   H32338905   6.409   2.208   4.949  1.2782  1.7252  0.4804
  102MOL   H32438906   6.252   2.211   5.033  1.0265 -0.5310  1.7390
  102MOL   C32538907   6.329   2.769   5.224 -0.6800  0.8122  0.0525
  102MOL   C32638908   6.296   2.851   5.353 -0.6861  0.0366  0.4462
  102MOL   O32738909   6.223   2.771   5.454  0.2518  0.4099  0.0184
  102MOL   C32838910   6.097   2.832   5.487 -0.0927  0.4215  0.4511
  102MOL   C32938911   6.028   2.774   5.614 -0.3917 -0.0832  0.0296
  102MOL   C33038912   6.092   2.793   5.750 -0.8387  0.5119 -0.0821
  102MOL   C33138913   5.875   2.785   5.623  0.2836 -0.0153 -0.0020
  102MOL   H33238914   6.392   2.819   5.151 -1.7645  1.5302 -0.3965
  102MOL   H33338915   6.393   2.684   5.248  1.3741  2.1915 -0.3846
  102MOL   H33438916   6.226   2.931   5.330 -1.9839 -1.0417  0.5790
  102MOL   H33538917   6.108   2.939   5.504  2.0568  0.7495 -2.5432
  102MOL   H33638918   6.024   2.814   5.408  0.6171 -1.1651  0.1359
  102MOL   H33738919   6.044   2.666   5.606 -0.0958  0.0691 -1.5960
  102MOL   H33838920   6.201   2.791   5.749 -0.8516 -3.3432 -1.0873
  102MOL   H33938921   6.055   2.886   5.793  1.4133  0.5605  1.8675
  102MOL   H34038922   6.056   2.718   5.820  0.8291 -0.8625 -0.6624
  102MOL   H34138923   5.825   2.776   5.526 -1.8250 -0.1797  1.0772
  102MOL   H34238924   5.834   2.698   5.675 -1.2664  0.4181 -0.4512
  102MOL   H34338925   5.843   2.876   5.673  0.1947  0.5904 -1.1389
  102MOL   C34438926   6.430   2.896   5.414 -0.7400  0.4274 -0.2509
  102MOL   C34538927   6.504   3.014   5.342 -0.2359  0.1683  0.1250
  102MOL   O34638928   6.424   3.128   5.357  0.4805 -0.1824  0.1439
  102MOL   C34738929   6.367   3.191   5.243  0.3011  0.0989 -0.4390
  102MOL   C34838930   6.282   3.311   5.298 -0.1941  0.4115  0.3161
  102MOL   C34938931   6.201   3.374   5.181  0.5630  0.8362 -0.1973
  102MOL   C35038932   6.364   3.423   5.376 -0.4276  0.2649 -0.2578
  102MOL   H35138933   6.483   2.804   5.436 -1.2147 -0.3981 -2.4862
  102MOL   H35238934   6.417   2.926   5.519  0.4633 -0.6445  0.2132
  102MOL   H35338935   6.529   2.985   5.240  0.8485  1.2749  0.0640
  102MOL   H35438936   6.299   3.112   5.212 -1.0341 -1.1304  5.0334
  102MOL   H35538937   6.436   3.216   5.163  1.9475 -1.8088  0.3466
  102MOL   H35638938   6.221   3.266   5.376  1.0908 -1.5119  0.2546
  102MOL   H35738939   6.272   3.398   5.101 -0.1652 -0.8780 -1.3802
  102MOL   H35838940   6.147   3.461   5.217  0.0653  1.3592 -2.1446
  102MOL   H35938941   6.121   3.314   5.139 -0.3123  0.9337  1.2917
  102MOL   H36038942   6.302   3.504   5.415 -0.7942  0.1693 -0.6330
  102MOL   H36138943   6.437   3.384   5.447 -1.7465 -1.9322 -0.0650
  102MOL   H36238944   6.427   3.475   5.303 -0.7330  0.0585 -0.6698
  102MOL   C36338945   6.628   3.055   5.415 -0.3863  0.9755  0.0137
  102MOL   C36438946   6.711   3.150   5.331  0.4287 -0.3722  0.4143
  102MOL   O36538947   6.750   3.092   5.201  0.8643 -0.2929 -0.2466
  102MOL   C36638948   6.767   3.188   5.102 -0.5788  0.8341 -0.2782
  102MOL   C36738949   6.872   3.130   4.997  0.5266 -0.7315  0.3634
  102MOL   C36838950   6.842   2.986   4.961  0.1676  0.3218  0.1578
  102MOL   C36938951   7.016   3.135   5.046 -0.1673 -0.5982 -0.4066
  102MOL   H37038952   6.600   3.108   5.506  0.2490 -0.2625  0.9437
  102MOL   H37138953   6.683   2.965   5.442 -2.3914 -0.4724 -0.6412
  102MOL   H37238954   6.805   3.174   5.380  1.9031  0.0518 -2.5082
  102MOL   H37338955   6.682   3.230   5.049 -1.3031  0.1488  0.3313
  102MOL   H37438956   6.814   3.275   5.148  2.3770 -0.3556 -0.8875
  102MOL   H37538957   6.866   3.200   4.914 -0.2892  2.2735  2.8620
  102MOL   H37638958   6.738   2.964   4.939  0.0280 -1.2868  2.1955
  102MOL   H37738959   6.869   2.901   5.024  0.1845 -0.0318 -0.3201
  102MOL   H37838960   6.894   2.955   4.870  1.5219 -1.9497  1.6319
  102MOL   H37938961   7.041   3.232   5.088 -0.4118 -0.1832 -1.1979
  102MOL   H38038962   7.094   3.113   4.973  1.5545  1.0243  0.9151
  102MOL   H38138963   7.020   3.069   5.132  0.8314  2.3193  1.8374
  102MOL   H38238964   6.645   3.232   5.302 -1.8199 -2.5687 -0.8692
  103MOL     C138965   4.183   4.129   0.468  0.4182 -0.4504 -0.0971
  103MOL     C238966   4.305   4.063   0.409  0.3799 -0.0976  0.2201
  103MOL     O338967   4.412   4.151   0.422  0.1932 -0.1675  0.2069
  103MOL     C438968   4.449   4.246   0.319 -1.0679 -0.1205 -0.5061
  103MOL     C538969   4.535   4.356   0.389  0.2241 -0.3448 -0.0136
  103MOL     C638970   4.543   4.457   0.275  0.5629  0.0028  0.0781
  103MOL     C738971   4.662   4.301   0.451 -0.2883 -0.3383  0.6410
  103MOL     H838972   4.098   4.071   0.433  0.8128 -0.7115 -0.6220
  103MOL     H938973   4.185   4.126   0.577 -1.6574  0.2611 -0.0178
  103MOL    H1038974   4.279   4.030   0.308 -0.3403  0.9832  0.0449
  103MOL    H1138975   4.355   4.292   0.289 -0.9866 -0.6116 -1.5013
  103MOL    H1238976   4.498   4.195   0.237  0.1750  0.1786  0.0323
  103MOL    H1338977   4.484   4.395   0.477 -1.3649 -2.6146  0.1320
  103MOL    H1438978   4.444   4.494   0.248  1.3363  1.1504 -1.2779
  103MOL    H1538979   4.607   4.543   0.293  0.0739 -0.1738  2.8975
  103MOL    H1638980   4.583   4.408   0.186 -0.9609 -0.4852 -0.3567
  103MOL    H1738981   4.730   4.282   0.367 -1.0994 -2.2557  0.3959
  103MOL    H1838982   4.720   4.368   0.515 -2.2791  0.8656  1.2134
  103MOL    H1938983   4.641   4.219   0.520 -2.3782 -0.1185  0.2871
  103MOL    H2038984   4.175   4.232   0.432 -1.0697 -0.8325 -0.8581
  103MOL    C2138985   4.345   3.934   0.479  0.3694  0.6011  0.8382
  103MOL    C2238986   4.447   3.838   0.419 -0.1732 -0.4039 -0.4676
  103MOL    O2338987   4.482   3.737   0.518  0.2187 -0.5795 -0.4318
  103MOL    C2438988   4.579   3.784   0.623  0.0336 -0.1665  0.5722
  103MOL    C2538989   4.611   3.672   0.721  0.2270 -0.2515 -0.1922
  103MOL    C2638990   4.490   3.625   0.810 -0.3894  0.0892  0.3209
  103MOL    C2738991   4.653   3.551   0.643  0.6933  0.0300  0.3957
  103MOL    H2838992   4.375   3.963   0.579 -1.4870 -0.1322  1.6377
  103MOL    H2938993   4.258   3.869   0.492  0.6063  0.3075  0.9504
  103MOL    H3038994   4.533   3.896   0.385  0.5829 -1.6578 -0.7369
  103MOL    H3138995   4.535   3.861   0.686  0.7546 -1.0422  2.1829
  103MOL    H3238996   4.665   3.832   0.576  0.8368 -2.7504 -0.7155
  103MOL    H3338997   4.691   3.701   0.790 -1.1201  0.8999  0.8983
  103MOL    H3438998   4.493   3.526   0.855 -1.6925  1.1012  2.7507
  103MOL    H3538999   4.393   3.636   0.760  0.7040  1.7412 -1.5098
  103MOL    H3639000   4.484   3.695   0.893 -0.4635 -0.6653  0.9519
  103MOL    H3739001   4.709   3.490   0.714 -1.4660 -1.1434  1.1405
  103MOL    H3839002   4.569   3.485   0.620 -1.2180  2.0785  1.4032
  103MOL    H3939003   4.714   3.572   0.555  1.5313 -1.2332  0.6539
  103MOL    C4039004   4.395   3.762   0.291 -0.3808 -0.1307 -0.6098
  103MOL    C4139005   4.504   3.689   0.203 -0.3401 -0.4406 -0.6048
  103MOL    O4239006   4.593   3.778   0.136  1.0281 -0.0444  0.4276
  103MOL    C4339007   4.725   3.764   0.178  0.1604  0.4922  0.5540
  103MOL    C4439008   4.812   3.892   0.139 -0.3076  0.4056 -0.2035
  103MOL    C4539009   4.821   3.908   7.806 -0.1498  0.5431  0.3994
  103MOL    C4639010   4.760   4.017   0.207  0.1108 -0.1610  0.0337
  103MOL    H4739011   4.346   3.835   0.226 -1.7328  0.5070  1.1061
  103MOL    H4839012   4.311   3.698   0.316  0.0520 -0.4579  0.0180
  103MOL    H4939013   4.551   3.618   0.271 -1.8296 -2.0782 -1.2407
  103MOL    H5039014   4.770   3.673   0.138  3.4040  0.8503  3.1680
  103MOL    H5139015   4.722   3.760   0.287 -4.4884  0.7069  0.5040
  103MOL    H5239016   4.904   3.878   0.197  1.1542  0.1225 -2.5193
  103MOL    H5339017   4.722   3.917   7.762 -0.0515 -2.1244 -0.4521
  103MOL    H5439018   4.881   3.994   7.778  0.2031  0.5556  1.1770
  103MOL    H5539019   4.874   3.826   7.757 -0.9041 -0.2668  0.9259
  103MOL    H5639020   4.827   4.103   0.214 -1.2935  0.9500 -0.0020
  103MOL    H5739021   4.740   3.988   0.310  1.9436 -2.4624 -0.2039
  103MOL    H5839022   4.659   4.040   0.175  0.0830 -0.8446 -0.3870
  103MOL    C5939023   4.442   3.604   0.084  0.3416  0.8831  0.3802
  103MOL    C6039024   4.538   3.521   7.820 -0.1377 -0.4488 -0.7753
  103MOL    O6139025   4.468   3.458   7.710 -0.4850  0.3387 -0.1788
  103MOL    C6239026   4.455   3.539   7.594 -0.5443  0.1218 -0.2976
  103MOL    C6339027   4.422   3.456   7.469  0.8316  0.1057  0.6258
  103MOL    C6439028   4.546   3.384   7.418 -1.0238 -0.5562 -0.1251
  103MOL    C6539029   4.305   3.355   7.488 -0.4023  0.2917 -0.1073
  103MOL    H6639030   4.384   3.671   0.021 -1.9022 -2.6429 -1.4505
  103MOL    H6739031   4.369   3.534   0.124  0.3582 -0.1388 -1.3065
  103MOL    H6839032   4.610   3.586   7.771  0.4285  0.6764  1.4900
  103MOL    H6939033   4.368   3.599   7.620 -0.3700 -1.1293  3.5268
  103MOL    H7039034   4.540   3.604   7.572  0.6983 -0.9748  1.1052
  103MOL    H7139035   4.386   3.528   7.395 -0.0199 -0.8295  0.1126
  103MOL    H7239036   4.633   3.450   7.431 -3.0435  2.2248 -0.3518
  103MOL    H7339037   4.528   3.359   7.314 -1.0297  1.7532 -0.7065
  103MOL    H7439038   4.578   3.293   7.469 -0.5347 -0.1672  0.2729
  103MOL    H7539039   4.268   3.302   7.400  0.9754 -0.2045 -0.4036
  103MOL    H7639040   4.318   3.283   7.570  2.2164 -0.4707 -1.1363
  103MOL    H7739041   4.213   3.410   7.506 -0.5206  0.2121 -0.4676
  103MOL    C7839042   4.603   3.410   0.080  0.5041 -0.5069 -0.3447
  103MOL    C7939043   4.709   3.322   0.008 -0.4835  1.1259 -0.6781
  103MOL    O8039044   4.831   3.396   7.816  0.1623  0.3777 -0.4333
  103MOL    C8139045   4.939   3.351   7.735  0.6329 -0.2406 -0.2898
  103MOL    C8239046   4.931   3.407   7.591  0.0255  0.0653  0.6630
  103MOL    C8339047   5.042   3.330   7.504 -0.2864 -0.5112  0.2529
  103MOL    C8439048   4.928   3.561   7.588  0.4433 -0.2589 -0.0111
  103MOL    H8539049   4.520   3.357   0.127 -0.5241  1.0571 -0.3598
  103MOL    H8639050   4.646   3.464   0.165 -0.5268 -0.4729  0.1631
  103MOL    H8739051   4.682   3.295   7.730  2.4859 -0.7064 -1.0702
  103MOL    H8839052   5.034   3.377   7.782 -0.2186 -0.0311  1.3622
  103MOL    H8939053   4.936   3.242   7.739 -1.0227 -0.2737 -2.0130
  103MOL    H9039054   4.841   3.359   7.552  0.7308  0.4177 -1.4723
  103MOL    H9139055   5.059   3.228   7.540  0.1212 -0.6382 -0.2883
  103MOL    H9239056   5.141   3.372   7.521  0.4266 -1.1373 -2.0978
  103MOL    H9339057   5.005   3.331   7.401 -1.7768  2.0622  0.7764
  103MOL    H9439058   4.893   3.587   7.488  2.0976  0.1548 -0.5013
  103MOL    H9539059   5.030   3.597   7.606  1.0276 -0.8220 -2.0364
  103MOL    H9639060   4.855   3.607   7.654  0.3308 -0.7219  0.1836
  103MOL    C9739061   4.733   3.189   0.080  0.2755  0.2563 -0.3779
  103MOL    C9839062   4.762   3.192   0.229 -0.0573  0.2935 -1.1562
  103MOL    O9939063   4.894   3.234   0.249  0.1080 -0.4128  1.1340
  103MOL   C10039064   4.908   3.369   0.300 -1.0113  0.2255 -1.3580
  103MOL   C10139065   5.040   3.370   0.371 -0.4156  1.2666 -0.3158
  103MOL   C10239066   5.096   3.506   0.410 -0.8139  0.3779  0.0447
  103MOL   C10339067   5.037   3.282   0.502 -0.0085 -0.0846 -0.6980
  103MOL   H10439068   4.800   3.121   0.027  1.0259  1.3109 -0.8120
  103MOL   H10539069   4.633   3.148   0.072  0.5666 -0.6187  0.4036
  103MOL   H10639070   4.696   3.260   0.284  0.1948 -1.2367  1.0923
  103MOL   H10739071   4.827   3.383   0.372 -0.7602  1.9769 -1.3891
  103MOL   H10839072   4.882   3.435   0.218 -2.0973 -0.6739 -1.7461
  103MOL   H10939073   5.107   3.326   0.298 -0.1743  1.8720 -0.4632
  103MOL   H11039074   5.041   3.561   0.486 -1.7975 -2.4817  1.4864
  103MOL   H11139075   5.195   3.485   0.450 -1.0110  0.0320  0.3529
  103MOL   H11239076   5.104   3.565   0.318  0.4873 -0.3648 -0.3269
  103MOL   H11339077   5.139   3.281   0.541 -0.5665  1.8533  0.9016
  103MOL   H11439078   4.974   3.328   0.578  2.1410  2.6785 -0.5032
  103MOL   H11539079   5.007   3.179   0.486  0.8580 -0.3160 -0.8615
  103MOL   C11639080   4.753   3.056   0.297  0.1018  0.0536  0.2627
  103MOL   C11739081   4.608   3.004   0.335 -0.2026 -0.5756 -0.5714
  103MOL   O11839082   4.524   2.997   0.224  0.0476  0.0825 -0.3024
  103MOL   C11939083   4.413   3.088   0.237 -0.1195 -0.1339 -0.3548
  103MOL   C12039084   4.342   3.081   0.100  0.4676  0.3885 -0.1826
  103MOL   C12139085   4.260   2.954   0.082 -0.0768  0.2077  0.0461
  103MOL   C12239086   4.253   3.200   0.087  0.1332 -0.4102  0.5568
  103MOL   H12339087   4.801   2.984   0.230  1.5150  1.5608 -0.3626
  103MOL   H12439088   4.818   3.045   0.384  1.4773  0.7069 -0.6773
  103MOL   H12539089   4.581   3.082   0.407  2.7574  2.2205 -2.3581
  103MOL   H12639090   4.475   3.178   0.246  1.6971 -1.0889 -2.6747
  103MOL   H12739091   4.356   3.071   0.328 -1.8511  2.4447 -0.8861
  103MOL   H12839092   4.420   3.102   0.027  0.1626  0.5786 -0.4563
  103MOL   H12939093   4.315   2.862   0.062 -1.5562 -0.5435 -0.6283
  103MOL   H13039094   4.181   2.972   0.010 -0.2874  0.7229  0.4021
  103MOL   H13139095   4.198   2.943   0.171  0.0766 -1.2026 -0.0010
  103MOL   H13239096   4.178   3.182   0.163 -0.4072  1.6072  0.5299
  103MOL   H13339097   4.308   3.290   0.114  0.8215 -1.0046  1.1526
  103MOL   H13439098   4.215   3.213   7.810 -1.5854  0.3304  1.2842
  103MOL   C13539099   4.622   2.865   0.397 -0.0118  1.1823 -0.0388
  103MOL   C13639100   4.712   2.840   0.522  0.6798 -0.7714 -0.1344
  103MOL   O13739101   4.664   2.932   0.628 -0.3531 -0.1872  0.5766
  103MOL   C13839102   4.759   2.960   0.729 -0.4411 -0.2561  0.0643
  103MOL   C13939103   4.713   3.066   0.829 -0.9430  0.5150  0.5927
  103MOL   C14039104   4.676   3.189   0.763 -0.3043 -0.2154 -0.6005
  103MOL   C14139105   4.604   3.021   0.916 -0.5346 -0.3177 -0.1905
  103MOL   H14239106   4.520   2.832   0.414 -0.5620  1.8632 -1.9224
  103MOL   H14339107   4.659   2.803   0.316  0.1156  1.1079  0.0769
  103MOL   H14439108   4.818   2.858   0.501  0.5109 -0.1199 -0.4139
  103MOL   H14539109   4.844   3.008   0.680 -0.4886  1.2453  1.3974
  103MOL   H14639110   4.790   2.871   0.783  0.3476 -0.9406 -1.5045
  103MOL   H14739111   4.801   3.095   0.887 -0.7447  0.8519  0.1274
  103MOL   H14839112   4.750   3.217   0.689  0.8701 -2.1061 -0.1751
  103MOL   H14939113   4.668   3.271   0.834 -0.5945 -0.9221  0.1980
  103MOL   H15039114   4.587   3.176   0.701 -0.5906 -0.9527 -0.0550
  103MOL   H15139115   4.570   3.100   0.984 -0.8048 -0.9447  0.4047
  103MOL   H15239116   4.519   2.990   0.855 -1.7184 -0.0964  1.2802
  103MOL   H15339117   4.646   2.939   0.974  0.6916 -1.3630 -2.5230
  103MOL   C15439118   4.699   2.698   0.574  0.5828 -0.0119 -0.3571
  103MOL   C15539119   4.805   2.614   0.503 -0.1896 -0.0603  0.1953
  103MOL   O15639120   4.929   2.666   0.561  0.1628  0.6350  0.4634
  103MOL   C15739121   5.045   2.660   0.472 -0.5804 -0.6654  0.0643
  103MOL   C15839122   5.158   2.734   0.534 -0.1731 -0.4788  0.3723
  103MOL   C15939123   5.281   2.720   0.450  0.3351  0.3291  0.5639
  103MOL   C16039124   5.126   2.887   0.556  0.3000  0.2814  0.4769
  103MOL   H16139125   4.603   2.653   0.548 -0.4302  1.4443  0.7481
  103MOL   H16239126   4.707   2.695   0.683 -0.7582 -0.8158 -0.2695
  103MOL   H16339127   4.807   2.622   0.394  1.0711  1.2711  0.2937
  103MOL   H16439128   5.021   2.716   0.382 -0.2207  1.6776  1.3890
  103MOL   H16539129   5.077   2.561   0.439 -0.4333  0.2232 -2.5944
  103MOL   H16639130   5.163   2.686   0.632 -1.5055  1.4742  1.4261
  103MOL   H16739131   5.246   2.719   0.347  1.9718 -0.5260  0.0017
  103MOL   H16839132   5.327   2.626   0.481 -0.3730  0.2781  1.4964
  103MOL   H16939133   5.355   2.800   0.453  0.4851  0.2581 -0.8791
  103MOL   H17039134   5.127   2.931   0.456  0.3324  0.3641  0.5144
  103MOL   H17139135   5.031   2.907   0.606 -0.5688 -0.6381 -0.7619
  103MOL   H17239136   5.210   2.925   0.613  2.0232  0.9277 -2.4232
  103MOL   C17339137   4.802   2.466   0.533 -0.4565  0.3041  0.6170
  103MOL   C17439138   4.682   2.388   0.466  0.6707 -0.0973  0.4257
  103MOL   O17539139   4.699   2.392   0.328  0.0597 -0.4382  0.2720
  103MOL   C17639140   4.597   2.468   0.257 -0.3339 -0.0949 -0.0399
  103MOL   C17739141   4.615   2.467   0.102  0.0697  0.9433 -0.1202
  103MOL   C17839142   4.748   2.537   0.066 -0.0637 -0.1987 -0.3023
  103MOL   C17939143   4.602   2.326   0.041 -0.0947 -0.4336  0.5133
  103MOL   H18039144   4.892   2.410   0.511  0.4229  1.3306  1.5350
  103MOL   H18139145   4.800   2.452   0.641  0.6825  0.0704  0.6121
  103MOL   H18239146   4.587   2.427   0.502  0.0264 -0.5672 -0.7389
  103MOL   H18339147   4.601   2.572   0.291 -0.1239  0.6660 -2.2846
  103MOL   H18439148   4.504   2.427   0.295 -0.2239 -1.0334 -0.7769
  103MOL   H18539149   4.535   2.528   0.061 -0.3406  0.2639 -0.3526
  103MOL   H18639150   4.829   2.511   0.133  1.0591 -2.2839 -2.4029
  103MOL   H18739151   4.781   2.501   7.793  2.6599  3.7856 -0.9657
  103MOL   H18839152   4.733   2.645   0.078 -0.8388 -0.0288 -2.4834
  103MOL   H18939153   4.498   2.308   0.013  0.4153  0.2901 -1.9861
  103MOL   H19039154   4.643   2.245   0.102  1.7003  1.1619  1.4773
  103MOL   H19139155   4.655   2.327   7.770 -3.2900  2.7166 -1.3565
  103MOL   C19239156   4.698   2.236   0.493 -0.4667 -0.5036  0.7419
  103MOL   C19339157   4.567   2.152   0.454  0.0460 -0.0183  0.1712
  103MOL   O19439158   4.459   2.205   0.533  0.5222 -0.1447  0.3360
  103MOL   C19539159   4.337   2.211   0.458 -0.0046  0.1230 -0.0548
  103MOL   C19639160   4.212   2.249   0.544 -0.3648  0.1241 -0.3405
  103MOL   C19739161   4.085   2.249   0.469 -0.5927  0.4292 -0.3778
  103MOL   C19839162   4.247   2.382   0.626 -0.2030  0.0304  0.7383
  103MOL   H19939163   4.723   2.230   0.599  0.4683 -1.0676  0.4986
  103MOL   H20039164   4.778   2.183   0.441 -2.8662 -1.3843 -2.1573
  103MOL   H20139165   4.537   2.163   0.350  0.4924  1.6705  0.2066
  103MOL   H20239166   4.322   2.106   0.430  1.6955 -0.1639  0.0394
  103MOL   H20339167   4.340   2.257   0.359 -1.2226  0.6192  0.1302
  103MOL   H20439168   4.213   2.170   0.620  1.2836  0.0425 -0.4396
  103MOL   H20539169   4.085   2.181   0.384 -0.7045  2.6901 -2.2548
  103MOL   H20639170   4.000   2.243   0.536 -0.4608  2.0702 -0.0431
  103MOL   H20739171   4.080   2.349   0.425 -0.6627  0.5082 -0.1899
  103MOL   H20839172   4.320   2.364   0.705 -0.7177  0.2692  1.2819
  103MOL   H20939173   4.290   2.454   0.557  0.8006 -1.1003  0.1746
  103MOL   H21039174   4.170   2.435   0.683 -0.0729 -0.2573  1.1816
  103MOL   C21139175   4.591   2.005   0.492  0.3126 -0.2052 -0.2743
  103MOL   C21239176   4.673   1.922   0.398  0.0450  0.4975  0.1248
  103MOL   O21339177   4.676   1.784   0.442 -1.3050  0.6723 -0.1325
  103MOL   C21439178   4.769   1.765   0.550 -0.5466 -0.0111 -0.4576
  103MOL   C21539179   4.752   1.615   0.583  0.7031 -0.2493 -0.0416
  103MOL   C21639180   4.835   1.571   0.706  0.6203 -0.0519 -0.3709
  103MOL   C21739181   4.610   1.564   0.606  0.6298 -0.2319  0.1517
  103MOL   H21839182   4.487   1.980   0.510  0.4937 -1.0833 -0.4131
  103MOL   H21939183   4.641   1.996   0.589 -1.8502 -0.0401  0.8872
  103MOL   H22039184   4.775   1.959   0.393  1.0111 -1.9792  0.5087
  103MOL   H22139185   4.736   1.823   0.637  1.1372  0.5510 -0.1682
  103MOL   H22239186   4.874   1.781   0.527 -0.3879 -1.4249 -0.7316
  103MOL   H22339187   4.799   1.571   0.495 -0.3943  0.8631 -1.1996
  103MOL   H22439188   4.850   1.463   0.703 -0.9557 -0.3232  1.0060
  103MOL   H22539189   4.933   1.620   0.704  0.4638  0.2293 -1.2853
  103MOL   H22639190   4.771   1.591   0.792  0.8954  0.0795 -0.1937
  103MOL   H22739191   4.545   1.563   0.518 -0.9904 -0.3357  1.3289
  103MOL   H22839192   4.559   1.631   0.674  0.9175 -0.9228  1.0640
  103MOL   H22939193   4.607   1.465   0.651 -0.0443  0.6434  2.0673
  103MOL   C23039194   4.633   1.927   0.253  0.5406 -0.4582  0.7527
  103MOL   C23139195   4.501   1.856   0.211 -0.2721 -0.3512  0.0137
  103MOL   O23239196   4.451   1.917   0.090 -0.0390  0.1641 -0.6128
  103MOL   C23339197   4.352   2.019   0.107  0.7223  0.1503  0.0885
  103MOL   C23439198   4.291   2.057   7.802  0.3205 -0.1611 -0.2374
  103MOL   C23539199   4.211   1.944   7.730  0.0618 -0.6714  0.5317
  103MOL   C23639200   4.187   2.172   7.815  0.2833  0.5519 -0.4469
  103MOL   H23739201   4.715   1.887   0.194  0.2596  1.8418 -1.2849
  103MOL   H23839202   4.629   2.029   0.217 -1.2048 -1.2515 -1.4598
  103MOL   H23939203   4.418   1.864   0.281 -2.8077  0.2600 -2.9385
  103MOL   H24039204   4.273   1.988   0.176  0.4991 -1.0156 -0.6819
  103MOL   H24139205   4.405   2.106   0.147  0.5184 -0.3465  1.4879
  103MOL   H24239206   4.363   2.090   7.727  2.4932  0.6154  2.1075
  103MOL   H24339207   4.126   1.908   7.789 -0.6719  0.0914 -0.0499
  103MOL   H24439208   4.281   1.861   7.719  1.8538  0.7940  0.6711
  103MOL   H24539209   4.183   1.972   7.629 -0.2118 -1.4051  0.3938
  103MOL   H24639210   4.235   2.257   0.040  0.4484 -0.7092  1.6202
  103MOL   H24739211   4.150   2.203   7.717 -2.2079  0.0724  0.3121
  103MOL   H24839212   4.114   2.136   0.063  0.4291  0.5540 -0.2992
  103MOL   C24939213   4.525   1.703   0.158 -0.0045  0.5549  0.8343
  103MOL   C25039214   4.398   1.631   0.132 -0.3503  0.3444 -0.4965
  103MOL   O25139215   4.431   1.505   0.066  0.0185 -0.1179 -0.2209
  103MOL   C25239216   4.456   1.509   7.749 -0.4546  0.3278 -0.3603
  103MOL   C25339217   4.465   1.369   7.684 -0.3914  0.1159  0.1750
  103MOL   C25439218   4.338   1.281   7.714 -0.9541  0.7335 -0.1242
  103MOL   C25539219   4.584   1.283   7.721 -0.2056  0.0808  0.6410
  103MOL   H25639220   4.585   1.651   0.233 -0.9725 -2.2833 -0.3016
  103MOL   H25739221   4.585   1.706   0.067  0.5969  1.5506  1.2481
  103MOL   H25839222   4.334   1.691   0.066 -0.9533 -0.2695 -0.4751
  103MOL   H25939223   4.380   1.572   7.703 -1.0738 -0.9342 -1.0970
  103MOL   H26039224   4.547   1.566   7.733  0.6279 -0.9865  0.9537
  103MOL   H26139225   4.469   1.383   7.576 -2.6290  2.3333  0.3464
  103MOL   H26239226   4.251   1.346   7.718 -1.4298  0.0751  0.4241
  103MOL   H26339227   4.350   1.227   7.808 -3.1411  1.1118  0.3957
  103MOL   H26439228   4.321   1.204   7.640 -1.3888 -0.1774  0.9067
  103MOL   H26539229   4.623   1.281   7.823  1.9958  0.6272 -0.1676
  103MOL   H26639230   4.563   1.180   7.692  0.3490  0.3662 -0.8244
  103MOL   H26739231   4.669   1.312   7.660  0.5133 -0.0213  1.5885
  103MOL   C26839232   4.321   1.595   0.256 -0.7591  0.5707  0.0411
  103MOL   C26939233   4.193   1.517   0.225 -0.1387  0.0444  0.4138
  103MOL   O27039234   4.088   1.611   0.252 -0.4709 -0.1562  0.3344
  103MOL   C27139235   4.022   1.650   0.140 -0.2918 -0.2185  0.2571
  103MOL   C27239236   3.927   1.763   0.177  0.7913  0.1031 -0.0932
  103MOL   C27339237   3.832   1.714   0.289 -0.0877 -0.0639 -0.8420
  103MOL   C27439238   4.000   1.892   0.221 -0.2708  0.4540  0.4066
  103MOL   H27539239   4.300   1.674   0.328 -1.5803  0.5741 -0.1885
  103MOL   H27639240   4.381   1.521   0.310 -0.3032 -1.1813 -2.7452
  103MOL   H27739241   4.192   1.481   0.122  0.4931 -2.1210  1.1340
  103MOL   H27839242   4.092   1.684   0.063  1.4185 -0.8912  1.4831
  103MOL   H27939243   3.970   1.562   0.101  1.6353 -1.6998  0.9611
  103MOL   H28039244   3.872   1.795   0.087  0.1049  0.5681  0.4839
  103MOL   H28139245   3.753   1.787   0.309 -0.5038 -0.6427 -0.3471
  103MOL   H28239246   3.887   1.694   0.380 -1.4316  0.0588  0.0207
  103MOL   H28339247   3.769   1.628   0.265 -2.5414  0.7530  2.4272
  103MOL   H28439248   3.930   1.971   0.246  1.7967  2.1242  1.1470
  103MOL   H28539249   4.072   1.943   0.157  0.8860  0.3005  1.5571
  103MOL   H28639250   4.053   1.869   0.314  2.3990  1.5854 -0.7575
  103MOL   C28739251   4.173   1.399   0.328 -0.6546  0.2980 -0.8294
  103MOL   C28839252   4.038   1.331   0.291 -0.4602  0.0206 -0.0370
  103MOL   O28939253   3.990   1.245   0.391  0.0277  0.4836  0.4399
  103MOL   C29039254   3.903   1.311   0.479 -0.1966 -0.0558 -0.4677
  103MOL   C29139255   3.839   1.203   0.571 -1.0777  0.3340  0.4726
  103MOL   C29239256   3.951   1.127   0.657 -0.3778  0.0541  0.0043
  103MOL   C29339257   3.755   1.113   0.487 -0.5203  0.0803  0.5553
  103MOL   H29439258   4.158   1.424   0.433 -0.7506 -1.3926 -0.4382
  103MOL   H29539259   4.256   1.328   0.322 -1.7090 -0.9592 -0.7225
  103MOL   H29639260   3.966   1.409   0.264 -1.3204  0.0323  2.2319
  103MOL   H29739261   3.957   1.389   0.532  0.2341  0.4582 -1.6392
  103MOL   H29839262   3.823   1.364   0.428 -0.3598  1.2924  1.1524
  103MOL   H29939263   3.767   1.249   0.639 -1.0237  0.9526  0.1121
  103MOL   H30039264   3.982   1.197   0.735 -1.8675  1.4583 -0.6178
  103MOL   H30139265   4.033   1.083   0.601 -1.1968  0.3281 -1.4365
  103MOL   H30239266   3.915   1.037   0.707  2.0393 -1.5557 -1.0406
  103MOL   H30339267   3.812   1.069   0.405 -0.2212 -0.2924  0.9610
  103MOL   H30439268   3.709   1.036   0.549 -1.7645 -0.6768 -1.2516
  103MOL   H30539269   3.666   1.156   0.441  0.9928  0.1271 -2.4267
  103MOL   C30639270   4.049   1.240   0.172 -0.0640 -0.1963 -0.5333
  103MOL   C30739271   3.917   1.187   0.118 -0.0652  0.3508  0.4897
  103MOL   O30839272   3.836   1.298   0.076  0.9372  0.6582  0.8914
  103MOL   C30939273   3.693   1.281   0.092  0.8032 -0.6774 -0.7094
  103MOL   C31039274   3.610   1.371   7.823  0.4380  0.1526 -0.5196
  103MOL   C31139275   3.611   1.311   7.685  0.2805 -0.0195 -0.3783
  103MOL   C31239276   3.661   1.512   7.820 -0.1930 -0.1420 -0.4634
  103MOL   H31339277   4.123   1.161   0.175 -0.0264 -0.1279  0.5628
  103MOL   H31439278   4.098   1.298   0.094 -2.0297  0.7743 -1.0737
  103MOL   H31539279   3.868   1.133   0.199 -0.0688  0.3630  0.4955
  103MOL   H31639280   3.673   1.319   0.192  1.6940  1.2827 -1.2489
  103MOL   H31739281   3.666   1.176   0.091  3.0642 -1.2741 -1.9701
  103MOL   H31839282   3.508   1.362   0.034 -0.0722  1.7248 -1.5200
  103MOL   H31939283   3.712   1.290   7.650  0.6167  0.0644  0.5296
  103MOL   H32039284   3.561   1.381   7.617 -0.8499 -0.0638  0.3894
  103MOL   H32139285   3.564   1.213   7.677  2.5366 -1.2334  0.8618
  103MOL   H32239286   3.660   1.572   0.087 -1.2559  0.7948 -1.0794
  103MOL   H32339287   3.599   1.570   7.752 -1.4795  2.0974  2.5021
  103MOL   H32439288   3.764   1.511   7.785  0.6355  1.0056  1.8525
  103MOL   C32539289   3.919   1.102   7.815  0.9474  0.6334  0.1408
  103MOL   C32639290   4.005   0.975   0.017  0.0446 -0.1082  0.4884
  103MOL   O32739291   3.958   0.899   0.132  0.0849  0.1423 -0.5586
  103MOL   C32839292   4.053   0.858   0.225 -0.1079 -0.0759 -0.1101
  103MOL   C32939293   3.980   0.799   0.345  0.0516  1.2029 -0.4868
  103MOL   C33039294   3.937   0.656   0.317 -0.9915  0.3178  0.2691
  103MOL   C33139295   4.067   0.796   0.461 -0.0115 -0.1204 -0.7230
  103MOL   H33239296   3.958   1.157   7.728  1.7354 -0.7735 -0.4148
  103MOL   H33339297   3.819   1.075   7.783  0.1245  2.6283  0.9675
  103MOL   H33439298   4.105   1.017   0.029 -1.5210  3.4765  1.8622
  103MOL   H33539299   4.115   0.784   0.174  0.4705  0.3866 -0.0759
  103MOL   H33639300   4.120   0.939   0.252 -0.9068  0.4977  0.1487
  103MOL   H33739301   3.885   0.849   0.363 -0.3936  0.9078 -1.9462
  103MOL   H33839302   3.836   0.646   0.357 -1.0471 -0.4563 -0.0699
  103MOL   H33939303   3.940   0.626   0.212  0.9824 -2.0697  0.9656
  103MOL   H34039304   4.005   0.590   0.369 -0.3394  0.5780 -0.2421
  103MOL   H34139305   4.006   0.768   0.547  0.4902 -1.6656 -0.8537
  103MOL   H34239306   4.145   0.720   0.452 -0.2960 -0.8302  2.3166
  103MOL   H34339307   4.111   0.891   0.490  0.1924  0.5404 -3.1167
  103MOL   C34439308   4.008   0.883   7.716 -0.1214  0.7727 -0.4035
  103MOL   C34539309   4.138   0.802   7.701  0.0682 -0.0836  0.1446
  103MOL   O34639310   4.116   0.721   7.591 -0.5440  0.6445  0.5530
  103MOL   C34739311   4.169   0.594   7.586  0.4531 -0.3449  0.0965
  103MOL   C34839312   4.108   0.513   7.469  0.3957  0.2208  0.1391
  103MOL   C34939313   4.150   0.589   7.342 -0.1320 -0.1214  0.9514
  103MOL   C35039314   3.956   0.501   7.491 -0.2223 -0.7765  0.2649
  103MOL   H35139315   3.995   0.951   7.632  1.4768  0.8669 -0.6002
  103MOL   H35239316   3.929   0.808   7.723  0.7929 -0.0137  2.4287
  103MOL   H35339317   4.147   0.745   7.794 -1.0616 -0.3574  0.0866
  103MOL   H35439318   4.157   0.529   7.673  0.2481 -0.6313 -0.1497
  103MOL   H35539319   4.278   0.594   7.582  0.5798  0.1518  2.5595
  103MOL   H35639320   4.140   0.409   7.475 -2.9786 -0.9067 -0.0338
  103MOL   H35739321   4.258   0.600   7.333 -0.3586  1.4295 -0.0609
  103MOL   H35839322   4.098   0.683   7.325  0.4813 -0.0907 -0.8006
  103MOL   H35939323   4.113   0.533   7.256  0.9844  0.5283  0.0369
  103MOL   H36039324   3.908   0.594   7.462 -0.6666 -1.1297 -0.1411
  103MOL   H36139325   3.912   0.424   7.427  2.2018 -1.5774 -0.5179
  103MOL   H36239326   3.934   0.485   7.596  2.5052 -2.1375  0.6841
  103MOL   C36339327   4.268   0.880   7.673  0.2014 -0.1568  0.0574
  103MOL   C36439328   4.394   0.843   7.749 -0.6873 -0.0378 -0.2092
  103MOL   O36539329   4.373   0.872   0.060 -0.2831  0.0785  0.1686
  103MOL   C36639330   4.481   0.825   0.141 -0.1456 -0.6646 -0.1852
  103MOL   C36739331   4.443   0.837   0.292  0.9486  0.5775  0.5242
  103MOL   C36839332   4.443   0.978   0.341 -0.9487 -1.0976 -0.3303
  103MOL   C36939333   4.510   0.742   0.392 -0.3096  0.4496 -0.6020
  103MOL   H37039334   4.276   0.882   7.564  0.2067 -0.7725  0.0446
  103MOL   H37139335   4.253   0.988   7.687  0.1326  0.1063 -1.8918
  103MOL   H37239336   4.482   0.892   7.710  0.0495 -0.5467  0.7977
  103MOL   H37339337   4.506   0.722   0.119  1.5716 -0.6805  1.6754
  103MOL   H37439338   4.568   0.885   0.116 -1.7549  0.8522 -2.2852
  103MOL   H37539339   4.338   0.806   0.284  1.2259 -0.5130  1.0216
  103MOL   H37639340   4.419   1.049   0.262 -1.7491 -0.5985  0.3513
  103MOL   H37739341   4.542   1.013   0.371 -1.5030  1.3436 -1.2514
  103MOL   H37839342   4.369   0.998   0.419 -0.0981  0.9679 -0.0365
  103MOL   H37939343   4.615   0.725   0.368 -0.0535 -0.4171  1.0199
  103MOL   H38039344   4.473   0.640   0.380  1.5210 -0.1660 -1.1973
  103MOL   H38139345   4.500   0.768   0.498 -0.3421  0.0148 -0.4948
  103MOL   H38239346   4.399   0.734   7.740 -1.4268 -0.2347  1.4342
  104MOL     C139347   3.987   7.181   2.882 -0.0720  0.0205 -0.0322
  104MOL     C239348   3.955   7.233   3.016 -0.2952  0.0104 -0.5052
  104MOL     O339349   4.061   7.310   3.076 -0.2350 -0.6774 -0.4282
  104MOL     C439350   4.144   7.240   3.168 -0.9378  0.0021 -0.5305
  104MOL     C539351   4.252   7.329   3.237  0.1261  0.1622 -0.2057
  104MOL     C639352   4.319   7.417   3.124 -0.0361 -0.3051  0.1182
  104MOL     C739353   4.350   7.248   3.322 -0.2237  0.3775  0.4486
  104MOL     H839354   4.044   7.088   2.888 -0.7592 -0.3771  0.4221
  104MOL     H939355   3.895   7.161   2.827  0.3906 -1.9127 -0.1391
  104MOL    H1039356   3.914   7.150   3.073 -0.8753  0.9494  0.4889
  104MOL    H1139357   4.203   7.164   3.116  0.5233  0.6793  0.1162
  104MOL    H1239358   4.081   7.181   3.235  1.3280 -0.4217  1.2703
  104MOL    H1339359   4.196   7.394   3.304  1.0783  0.1559  0.6014
  104MOL    H1439360   4.409   7.474   3.146 -0.3040  0.4412 -0.6580
  104MOL    H1539361   4.339   7.361   3.033 -0.0214  1.0364 -0.7158
  104MOL    H1639362   4.255   7.498   3.088  0.3331  0.3289  0.8797
  104MOL    H1739363   4.296   7.215   3.411  0.1582  1.1614  0.9780
  104MOL    H1839364   4.395   7.163   3.270  0.3155  0.7403  0.3216
  104MOL    H1939365   4.429   7.311   3.363 -0.7911  1.1142  0.4110
  104MOL    H2039366   4.048   7.255   2.830 -0.2857  0.2410  0.0275
  104MOL    C2139367   3.850   7.345   3.009 -0.9622 -0.5567 -0.7716
  104MOL    C2239368   3.809   7.396   3.151  0.1156  0.1705 -0.3179
  104MOL    O2339369   3.749   7.522   3.157  0.5928 -0.8483  0.7443
  104MOL    C2439370   3.834   7.635   3.162  0.3800  0.1472 -0.3791
  104MOL    C2539371   3.741   7.764   3.155 -1.3324 -0.9003  0.1772
  104MOL    C2639372   3.650   7.752   3.027 -0.5480  0.1327  0.7224
  104MOL    C2739373   3.683   7.801   3.293  0.0667  0.5703  0.3758
  104MOL    H2839374   3.891   7.437   2.967 -1.4120  0.3167  0.6325
  104MOL    H2939375   3.768   7.314   2.945 -1.2534  1.6203 -1.4961
  104MOL    H3039376   3.894   7.395   3.218 -0.2773  0.2182  0.1819
  104MOL    H3139377   3.904   7.637   3.079  0.4257 -0.7860 -0.3613
  104MOL    H3239378   3.896   7.636   3.252  2.0582  0.0391 -1.5080
  104MOL    H3339379   3.813   0.017   3.126 -1.1922 -1.1959 -0.2837
  104MOL    H3439380   3.575   0.003   3.005 -1.9782 -0.7043  2.5814
  104MOL    H3539381   3.589   7.662   3.024 -0.0047 -0.2051 -0.7085
  104MOL    H3639382   3.697   7.750   2.929 -0.5486 -0.5790  0.7339
  104MOL    H3739383   3.617   0.060   3.272 -2.1997 -1.2225  0.1735
  104MOL    H3839384   3.627   7.712   3.322  0.2072  1.3635  3.2577
  104MOL    H3939385   3.749   0.006   3.374  1.5404 -1.3203 -0.0909
  104MOL    C4039386   3.698   7.294   3.187  0.4526 -0.4425 -0.2782
  104MOL    C4139387   3.629   7.298   3.329  0.5890  0.4508  0.5640
  104MOL    O4239388   3.723   7.232   3.410 -0.2364 -0.2737 -0.1678
  104MOL    C4339389   3.736   7.276   3.547  0.1904  0.5992  0.1165
  104MOL    C4439390   3.849   7.185   3.615 -0.3021 -0.6650  0.4342
  104MOL    C4539391   3.825   7.038   3.616 -0.0200  0.0262  0.5309
  104MOL    C4639392   3.978   7.224   3.548  0.1297  0.3315  0.3945
  104MOL    H4739393   3.715   7.188   3.169 -2.9161 -0.9788 -0.7009
  104MOL    H4839394   3.628   7.327   3.110  0.5673 -1.8503 -1.0057
  104MOL    H4939395   3.617   7.400   3.367 -3.3390 -0.3682  1.7182
  104MOL    H5039396   3.643   7.260   3.601  0.3515  0.4584  0.3506
  104MOL    H5139397   3.768   7.380   3.536  1.2825  0.0505 -2.4154
  104MOL    H5239398   3.852   7.235   3.712  0.8518  2.7597 -1.2769
  104MOL    H5339399   3.723   7.031   3.653 -0.6865 -1.0961 -1.4255
  104MOL    H5439400   3.845   6.982   3.524  0.6405  1.2946 -0.1080
  104MOL    H5539401   3.892   6.984   3.682 -0.2114 -0.6766  0.1531
  104MOL    H5639402   3.967   7.203   3.442  1.9323 -2.1431  0.6539
  104MOL    H5739403   4.052   7.163   3.600 -1.5615  0.2482  2.8194
  104MOL    H5839404   4.002   7.329   3.565 -1.5631  0.1768  4.1353
  104MOL    C5939405   3.491   7.227   3.342  0.4649  0.4267  0.0100
  104MOL    C6039406   3.371   7.291   3.282 -0.7730 -0.4348  0.8807
  104MOL    O6139407   3.379   7.317   3.139 -0.4073 -0.0873  0.3477
  104MOL    C6239408   3.357   7.201   3.063  0.2576  0.6823  0.4872
  104MOL    C6339409   3.321   7.234   2.915 -0.3537 -0.7209 -0.6527
  104MOL    C6439410   3.435   7.315   2.857 -0.3861  0.5215  0.0377
  104MOL    C6539411   3.290   7.115   2.828  0.9311  0.5190 -0.6965
  104MOL    H6639412   3.488   7.199   3.448 -2.2927 -0.6965 -0.3262
  104MOL    H6739413   3.489   7.135   3.284 -1.0103 -0.7146  1.8149
  104MOL    H6839414   3.292   7.219   3.303 -0.0489 -2.9602 -4.2222
  104MOL    H6939415   3.454   7.153   3.076 -0.0562 -0.2303 -0.4731
  104MOL    H7039416   3.276   7.143   3.107  1.7176 -1.5414  0.3041
  104MOL    H7139417   3.231   7.294   2.907  1.7925  2.7368  0.1411
  104MOL    H7239418   3.423   7.420   2.884  1.0538  0.5264  0.7507
  104MOL    H7339419   3.433   7.316   2.749  0.4179  1.8162  0.0138
  104MOL    H7439420   3.532   7.281   2.896 -0.5463  1.2524  1.1131
  104MOL    H7539421   3.345   7.024   2.852 -1.2027 -0.3915  0.9342
  104MOL    H7639422   3.188   7.078   2.839  0.8938  0.2305 -1.8948
  104MOL    H7739423   3.299   7.139   2.722 -2.9521  3.2939 -0.4867
  104MOL    C7839424   3.345   7.429   3.339  0.2361  0.1766  0.1038
  104MOL    C7939425   3.334   7.453   3.486 -0.0049 -0.6554  0.1556
  104MOL    O8039426   3.288   7.587   3.489  0.0257  0.2805 -0.0452
  104MOL    C8139427   3.386   7.674   3.543 -0.4070 -0.2711 -0.2037
  104MOL    C8239428   3.338   7.820   3.568 -0.7638  0.3057  0.5999
  104MOL    C8339429   3.291   0.072   3.443 -0.0203  0.3164  0.2180
  104MOL    C8439430   3.442   0.082   3.639  0.1239 -0.1618  0.2698
  104MOL    H8539431   3.249   7.457   3.296  0.7853 -0.0847 -1.3143
  104MOL    H8639432   3.414   7.497   3.289 -1.4634  1.2348 -0.8368
  104MOL    H8739433   3.430   7.435   3.534  1.4925  1.3527 -1.9666
  104MOL    H8839434   3.432   7.633   3.633  2.9225  0.5991 -1.4380
  104MOL    H8939435   3.470   7.676   3.474  0.7069 -1.0243  1.1218
  104MOL    H9039436   3.253   7.798   3.633  0.3196 -0.8686  1.6532
  104MOL    H9139437   3.232   0.157   3.479 -1.2921 -1.1635  1.6850
  104MOL    H9239438   3.218   0.008   3.393  0.3257  0.0795  0.0165
  104MOL    H9339439   3.368   0.084   3.366  0.3563 -2.0046  0.2104
  104MOL    H9439440   3.446   0.045   3.741 -0.5921 -1.0624 -0.0226
  104MOL    H9539441   3.429   0.189   3.629 -1.1299 -0.1925  1.3300
  104MOL    H9639442   3.540   0.075   3.592 -0.3318  1.7553 -1.0035
  104MOL    C9739443   3.232   7.362   3.562 -0.3940  0.5669 -0.2917
  104MOL    C9839444   3.262   7.363   3.716 -0.9725  0.3932  0.0848
  104MOL    O9939445   3.203   7.239   3.758 -0.1643 -0.3605 -0.0150
  104MOL   C10039446   3.302   7.133   3.764  0.4470  0.0781 -0.2062
  104MOL   C10139447   3.245   6.997   3.789 -0.8523 -0.9489  0.2505
  104MOL   C10239448   3.187   6.976   3.937 -0.4353  0.0479  0.4156
  104MOL   C10339449   3.134   6.966   3.685 -0.5792  0.3395 -0.1129
  104MOL   H10439450   3.254   7.261   3.530  1.5522  0.4838  1.2075
  104MOL   H10539451   3.127   7.386   3.542 -1.0331 -1.3036  0.7051
  104MOL   H10639452   3.367   7.365   3.746 -1.1201  0.7286  0.5844
  104MOL   H10739453   3.376   7.161   3.839  0.2648 -0.9903  0.3801
  104MOL   H10839454   3.361   7.141   3.673  2.1775 -0.9703  0.7977
  104MOL   H10939455   3.325   6.925   3.773 -1.8434 -1.9703 -0.1582
  104MOL   H11039456   3.149   6.878   3.967 -1.0550  0.6610  1.6561
  104MOL   H11139457   3.263   6.994   4.013  0.5476  0.4730 -0.6555
  104MOL   H11239458   3.105   7.044   3.955  1.5693  2.7196 -0.2376
  104MOL   H11339459   3.045   7.026   3.705  0.4150  1.2134  1.8811
  104MOL   H11439460   3.171   6.981   3.584 -0.7850 -1.6693 -0.5028
  104MOL   H11539461   3.094   6.866   3.697 -0.4051  0.3358  0.4774
  104MOL   C11639462   3.199   7.477   3.805  0.9274 -0.2606 -0.2723
  104MOL   C11739463   3.257   7.477   3.951 -0.2009 -0.4070 -1.0010
  104MOL   O11839464   3.397   7.509   3.942 -0.4598  0.7917  0.3694
  104MOL   C11939465   3.479   7.453   4.034  0.0750  0.2953  1.2870
  104MOL   C12039466   3.622   7.471   3.988 -0.2303  0.2115  0.0971
  104MOL   C12139467   3.643   7.400   3.849 -0.1628 -0.8264 -0.0051
  104MOL   C12239468   3.639   7.625   3.988 -0.3316 -0.6074  0.1314
  104MOL   H12339469   3.205   7.576   3.758 -1.2145  0.9255  1.8591
  104MOL   H12439470   3.090   7.479   3.806  0.9019  1.9282 -2.1889
  104MOL   H12539471   3.229   7.383   4.000 -4.3464  1.0940 -0.2902
  104MOL   H12639472   3.460   7.345   4.040 -0.9066  0.2794 -1.2084
  104MOL   H12739473   3.448   7.486   4.133  0.5338  0.5388  1.3494
  104MOL   H12839474   3.684   7.426   4.066  1.9216  0.4301 -1.4695
  104MOL   H12939475   3.747   7.388   3.819 -0.0705 -1.6686  0.6270
  104MOL   H13039476   3.585   7.445   3.769 -0.8053 -0.4564  0.6624
  104MOL   H13139477   3.607   7.297   3.853  0.9293 -1.2418 -0.5005
  104MOL   H13239478   3.742   7.658   3.978 -0.6599  0.8203  1.3557
  104MOL   H13339479   3.583   7.670   3.906  0.4623  0.2177  0.0430
  104MOL   H13439480   3.586   7.674   4.069  1.2126 -1.1609  1.4898
  104MOL   C13539481   3.187   7.589   4.042  0.1464  0.3500  0.0184
  104MOL   C13639482   3.038   7.571   4.068  0.2873  0.6014 -0.0551
  104MOL   O13739483   3.019   7.482   4.181  0.0557 -0.4745  0.6794
  104MOL   C13839484   2.995   7.342   4.162 -0.2047  0.0876 -0.0456
  104MOL   C13939485   3.071   7.257   4.261 -0.3464 -0.6947  0.1537
  104MOL   C14039486   3.006   7.124   4.290  0.2976 -0.2488  0.0498
  104MOL   C14139487   3.222   7.250   4.224  0.0893 -0.1083  0.3614
  104MOL   H14239488   3.236   7.594   4.139  1.8848 -2.1322 -0.6770
  104MOL   H14339489   3.206   7.682   3.988  1.6065 -0.2403 -0.5164
  104MOL   H14439490   2.978   7.547   3.980 -2.6145 -0.5336  2.1540
  104MOL   H14539491   3.025   7.303   4.065 -1.6050 -1.9266  0.3184
  104MOL   H14639492   2.889   7.333   4.183 -0.0453 -2.6773 -0.3042
  104MOL   H14739493   3.074   7.306   4.358  1.4071  1.2230 -0.8295
  104MOL   H14839494   2.908   7.139   4.334  0.8328  2.0669  0.5303
  104MOL   H14939495   3.072   7.061   4.350  0.4238  0.1180  0.2965
  104MOL   H15039496   2.987   7.068   4.198 -0.4827  1.4690 -0.8696
  104MOL   H15139497   3.237   7.219   4.120  0.4695  0.4177  0.2578
  104MOL   H15239498   3.265   7.350   4.233  1.3604 -0.1253 -4.2747
  104MOL   H15339499   3.282   7.183   4.287 -0.9097 -0.5873  0.8095
  104MOL   C15439500   2.977   7.709   4.106 -0.1756 -0.8287 -0.1741
  104MOL   C15539501   2.819   7.701   4.096 -0.0049 -0.2057 -0.1061
  104MOL   O15639502   2.771   7.823   4.153  0.0208  0.5503 -0.0759
  104MOL   C15739503   2.755   7.817   4.290  0.7710  0.2143 -0.5642
  104MOL   C15839504   2.646   0.099   4.337 -0.1667  0.4673 -1.4180
  104MOL   C15939505   2.644   0.104   4.489 -0.5998 -0.4500 -0.8587
  104MOL   C16039506   2.705   0.234   4.285 -0.0519  0.6520 -0.6151
  104MOL   H16139507   3.003   7.796   4.046  2.9417  0.6454  3.1746
  104MOL   H16239508   3.008   7.735   4.207 -0.9821  1.1543 -0.4096
  104MOL   H16339509   2.788   7.616   4.157  0.9463  0.0521  0.7738
  104MOL   H16439510   2.849   0.013   4.340  1.7035  0.0702 -2.2424
  104MOL   H16539511   2.719   7.720   4.325 -2.0287  1.5721  0.5166
  104MOL   H16639512   2.552   0.063   4.294 -0.4387 -0.7280  0.1572
  104MOL   H16739513   2.581   0.182   4.533  0.4823  0.2718 -0.5604
  104MOL   H16839514   2.739   0.123   4.538 -0.6751 -0.9044 -0.5404
  104MOL   H16939515   2.598   0.011   4.521 -0.1947 -0.5759 -0.6472
  104MOL   H17039516   2.810   0.230   4.311 -0.2853 -0.1720  0.2344
  104MOL   H17139517   2.699   0.264   4.180  0.5713  1.5090 -0.4025
  104MOL   H17239518   2.654   0.313   4.339  0.0338  0.5228 -0.3455
  104MOL   C17339519   2.760   7.692   3.950  0.3831 -0.3554 -0.1397
  104MOL   C17439520   2.806   7.802   3.857 -0.0178 -0.0878  0.4064
  104MOL   O17539521   2.768   7.740   3.728  0.2240  0.2345  0.8699
  104MOL   C17639522   2.861   7.657   3.661  0.1832 -0.0052  0.4090
  104MOL   C17739523   2.791   7.574   3.551 -0.4615 -0.4846 -0.3484
  104MOL   C17839524   2.884   7.567   3.428  0.1786 -0.1849 -0.4533
  104MOL   C17939525   2.736   7.439   3.610 -0.0669 -0.2198 -0.1017
  104MOL   H18039526   2.783   7.591   3.917 -1.2102 -0.3374 -1.3468
  104MOL   H18139527   2.651   7.691   3.957  0.1826  2.6377 -1.7466
  104MOL   H18239528   2.912   0.003   3.855  0.5654 -2.3654 -1.4883
  104MOL   H18339529   2.900   7.583   3.731 -0.3681 -1.6976 -1.0393
  104MOL   H18439530   2.944   7.722   3.632  1.0191 -0.7593  1.0840
  104MOL   H18539531   2.705   7.634   3.520 -0.2228  0.4379  0.7148
  104MOL   H18639532   2.840   7.515   3.344  0.6698  0.6223 -1.2141
  104MOL   H18739533   2.918   7.667   3.400 -0.0721 -0.5918 -2.2599
  104MOL   H18839534   2.970   7.500   3.433  0.8784  0.5804 -2.0513
  104MOL   H18939535   2.657   7.462   3.682 -0.3358  3.8491 -1.5660
  104MOL   H19039536   2.815   7.384   3.661 -0.9174 -1.8691 -0.5460
  104MOL   H19139537   2.690   7.383   3.529 -2.8519  0.2327  1.0730
  104MOL   C19239538   2.713   0.107   3.860 -0.0196 -0.0346 -0.6656
  104MOL   C19339539   2.756   0.211   3.752  0.8234  0.1038 -0.8916
  104MOL   O19439540   2.879   0.259   3.801  0.1959 -0.0902  0.5319
  104MOL   C19539541   2.992   0.234   3.714 -0.0666 -0.9159  0.1163
  104MOL   C19639542   3.112   0.300   3.774  0.4098  0.0158 -0.5411
  104MOL   C19739543   3.163   0.222   3.896  0.3288 -0.5680  0.5482
  104MOL   C19839544   3.084   0.449   3.799 -0.0669  0.3472  0.1432
  104MOL   H19939545   2.722   0.152   3.959 -0.1859 -0.4708 -0.4483
  104MOL   H20039546   2.616   0.066   3.832  0.2094  0.1641 -1.7905
  104MOL   H20139547   2.763   0.163   3.655 -0.8917  1.2664 -1.6119
  104MOL   H20239548   2.965   0.263   3.613 -0.2818 -2.1657 -0.1947
  104MOL   H20339549   3.018   0.129   3.698  0.9368 -0.4986 -1.0050
  104MOL   H20439550   3.190   0.302   3.698  2.3716  1.8862  1.4166
  104MOL   H20539551   3.085   0.220   3.972  1.9315  1.6213  2.2834
  104MOL   H20639552   3.188   0.120   3.868 -2.6596 -0.5818 -2.3947
  104MOL   H20739553   3.247   0.282   3.931 -1.5303  1.8310  0.9988
  104MOL   H20839554   3.164   0.503   3.850  0.4866  0.0548 -0.4031
  104MOL   H20939555   3.064   0.497   3.703 -1.0168 -0.3519 -0.0107
  104MOL   H21039556   2.997   0.460   3.862 -0.8922  0.1453 -0.9472
  104MOL   C21139557   2.668   0.333   3.736  0.1018 -0.4613  0.5326
  104MOL   C21239558   2.703   0.423   3.621 -1.0600 -0.2048  0.1202
  104MOL   O21339559   2.691   0.338   3.509 -0.3614 -0.0312 -0.4432
  104MOL   C21439560   2.758   0.384   3.382  0.3631  0.1639  0.0005
  104MOL   C21539561   2.787   0.261   3.290  0.1297  0.6004  0.3494
  104MOL   C21639562   2.827   0.315   3.145 -0.3148  1.0039 -0.5602
  104MOL   C21739563   2.898   0.166   3.336  0.4198  0.0884 -0.0052
  104MOL   H21839564   2.668   0.395   3.826 -0.2831  0.2933  0.0097
  104MOL   H21939565   2.568   0.298   3.713 -0.8778  1.0119  2.3896
  104MOL   H22039566   2.807   0.452   3.621 -0.6911 -1.4623 -0.8998
  104MOL   H22139567   2.848   0.439   3.408  1.3188 -1.1150 -0.5807
  104MOL   H22239568   2.700   0.459   3.327 -2.0936 -1.1877  0.6866
  104MOL   H22339569   2.694   0.208   3.270  0.7927 -0.8747  1.0374
  104MOL   H22439570   2.812   0.241   3.065  0.7115  0.6055 -0.3991
  104MOL   H22539571   2.766   0.399   3.113 -0.6694  0.5953 -0.9769
  104MOL   H22639572   2.930   0.350   3.148  0.1355 -0.3143 -0.4341
  104MOL   H22739573   2.927   0.108   3.249 -0.1800  2.0224 -1.5294
  104MOL   H22839574   2.855   0.093   3.406 -1.6892  0.5626 -0.7625
  104MOL   H22939575   2.986   0.218   3.374  0.5875 -0.9934  1.1299
  104MOL   C23039576   2.594   0.529   3.603  0.0806 -0.4781  0.9969
  104MOL   C23139577   2.605   0.649   3.693 -0.5806 -1.2775  0.3468
  104MOL   O23239578   2.736   0.694   3.658 -0.3295 -0.8763  0.2500
  104MOL   C23339579   2.799   0.762   3.765 -0.0597 -0.3185 -0.3830
  104MOL   C23439580   2.894   0.868   3.704  0.2121  0.2461 -0.6059
  104MOL   C23539581   3.003   0.811   3.613  0.1417 -0.4034  0.0910
  104MOL   C23639582   2.827   0.983   3.640  0.5004  0.0913  0.0502
  104MOL   H23739583   2.499   0.479   3.622  0.1550 -0.1946  2.1521
  104MOL   H23839584   2.586   0.556   3.497  1.3845  0.3135  1.0915
  104MOL   H23939585   2.605   0.619   3.798 -0.0076  2.9956  1.6445
  104MOL   H24039586   2.723   0.820   3.816  0.4035  1.5138 -1.6990
  104MOL   H24139587   2.841   0.691   3.836  2.7102 -0.6016 -2.2119
  104MOL   H24239588   2.936   0.913   3.794 -1.5057 -0.2822  0.4630
  104MOL   H24339589   3.079   0.749   3.661  0.8493  0.1053 -0.3734
  104MOL   H24439590   3.052   0.888   3.553 -0.6826  1.7398  2.0924
  104MOL   H24539591   2.953   0.765   3.528  0.3086 -1.1469  0.3899
  104MOL   H24639592   2.770   0.947   3.555  0.7719  0.1723 -0.1643
  104MOL   H24739593   2.751   1.026   3.706 -1.2986 -0.9615 -1.3000
  104MOL   H24839594   2.888   1.066   3.604  1.2876  0.2885  1.7952
  104MOL   C24939595   2.489   0.744   3.656  0.1907  0.4325 -0.4070
  104MOL   C25039596   2.343   0.683   3.683  0.3716 -0.2436 -0.4829
  104MOL   O25139597   2.342   0.634   3.817 -0.4933 -0.0520  0.0186
  104MOL   C25239598   2.256   0.518   3.831  0.0157  0.2663  0.5741
  104MOL   C25339599   2.259   0.470   3.982 -0.2232 -0.6360  0.0543
  104MOL   C25439600   2.400   0.440   4.021  0.0486 -0.4479 -0.3304
  104MOL   C25539601   2.179   0.343   4.005 -0.0598  0.3055 -0.4790
  104MOL   H25639602   2.496   0.777   3.553  0.2019 -0.6774 -0.7717
  104MOL   H25739603   2.508   0.831   3.719  0.1627 -1.0870  1.7620
  104MOL   H25839604   2.316   0.603   3.615  2.8192 -0.3572 -1.3495
  104MOL   H25939605   2.160   0.544   3.787 -0.6333 -0.1151  1.7303
  104MOL   H26039606   2.301   0.435   3.777 -0.4375  0.0201  0.5734
  104MOL   H26139607   2.224   0.550   4.047  1.5116  0.4593 -0.3472
  104MOL   H26239608   2.466   0.521   3.990 -0.1199  0.4211  1.5218
  104MOL   H26339609   2.446   0.358   3.967 -2.9578 -1.6050 -1.2427
  104MOL   H26439610   2.416   0.412   4.125 -0.2546 -1.5523 -0.5831
  104MOL   H26539611   2.207   0.269   3.930  0.6125  1.1921 -1.1116
  104MOL   H26639612   2.195   0.288   4.098 -3.1633  1.6781  0.9315
  104MOL   H26739613   2.073   0.365   4.006  0.1276  1.3361 -1.5231
  104MOL   C26839614   2.230   0.786   3.669  0.2910 -0.0724  0.1612
  104MOL   C26939615   2.126   0.764   3.554 -0.0658 -0.7825  0.1259
  104MOL   O27039616   2.191   0.778   3.433 -0.4495 -0.4976 -0.1718
  104MOL   C27139617   2.132   0.708   3.331  0.2626  0.2309  0.1860
  104MOL   C27239618   2.236   0.721   3.216  0.4395 -0.7710  0.4773
  104MOL   C27339619   2.365   0.642   3.251  0.0392  0.5847 -0.0293
  104MOL   C27439620   2.171   0.661   3.092 -0.3370  0.2663  0.1471
  104MOL   H27539621   2.281   0.883   3.662  0.9491 -0.6072 -3.1440
  104MOL   H27639622   2.183   0.797   3.767  3.0324  1.1630  1.4166
  104MOL   H27739623   2.097   0.662   3.579  1.5254 -0.9362  1.5062
  104MOL   H27839624   2.126   0.602   3.356  0.0867 -0.0904 -1.1967
  104MOL   H27939625   2.033   0.747   3.309  0.5078  1.1197  0.6404
  104MOL   H28039626   2.269   0.822   3.190  0.0233 -0.3603  1.5331
  104MOL   H28139627   2.344   0.536   3.239 -0.3338  0.8433 -1.7464
  104MOL   H28239628   2.395   0.662   3.354  0.9255 -0.0519 -0.1594
  104MOL   H28339629   2.447   0.672   3.187  1.7365  0.3730  1.9944
  104MOL   H28439630   2.081   0.715   3.062 -0.0510 -0.9217 -2.9623
  104MOL   H28539631   2.134   0.561   3.114  2.7602 -1.1376 -0.8109
  104MOL   H28639632   2.235   0.650   3.004 -0.2906  3.4288 -0.2864
  104MOL   C28739633   2.011   0.869   3.564 -0.0506  0.3263  0.4539
  104MOL   C28839634   1.902   0.838   3.673  0.1414  0.2511  0.3181
  104MOL   O28939635   1.837   0.711   3.651  0.1804 -0.3714 -0.1390
  104MOL   C29039636   1.787   0.653   3.773 -0.4993 -0.0505  0.5052
  104MOL   C29139637   1.680   0.543   3.735 -0.3844  0.3851 -0.1726
  104MOL   C29239638   1.644   0.475   3.866  0.0685  0.0882 -0.0450
  104MOL   C29339639   1.728   0.444   3.627 -0.1128  0.3013 -0.4562
  104MOL   H29439640   1.965   0.886   3.467  0.1961  0.5342  0.3728
  104MOL   H29539641   2.054   0.968   3.583  2.6127 -0.7423  0.2028
  104MOL   H29639642   1.963   0.812   3.759 -1.8828  0.3952  1.8097
  104MOL   H29739643   1.863   0.596   3.827 -0.0757 -1.2961 -1.3430
  104MOL   H29839644   1.752   0.739   3.829 -0.4852  1.6341 -1.9632
  104MOL   H29939645   1.589   0.587   3.694  1.0953  2.2503 -1.5231
  104MOL   H30039646   1.569   0.536   3.918  1.2681 -0.0155  1.8463
  104MOL   H30139647   1.724   0.448   3.935  1.0820 -0.3797 -1.3875
  104MOL   H30239648   1.599   0.378   3.844 -2.1656  0.5781  2.0637
  104MOL   H30339649   1.834   0.426   3.648 -0.3045  0.4415  0.6643
  104MOL   H30439650   1.678   0.347   3.636  1.0714 -0.4244 -1.5232
  104MOL   H30539651   1.710   0.491   3.531 -2.7895  2.5674  1.1041
  104MOL   C30639652   1.820   0.961   3.715 -0.1317 -0.3019 -0.4634
  104MOL   C30739653   1.725   1.018   3.602 -0.0111 -0.5005  0.2927
  104MOL   O30839654   1.605   1.053   3.666 -0.3499 -0.2809  0.4734
  104MOL   C30939655   1.511   0.948   3.678  0.4636 -0.8940  0.3412
  104MOL   C31039656   1.412   0.966   3.800 -0.1265  0.1334 -0.3396
  104MOL   C31139657   1.323   1.093   3.792  0.0158  0.0446  0.2517
  104MOL   C31239658   1.491   0.960   3.933 -0.3421  0.1016 -0.5227
  104MOL   H31339659   1.891   1.040   3.735 -0.4278 -0.5141  1.4870
  104MOL   H31439660   1.767   0.960   3.810  0.2157  0.0320 -0.2677
  104MOL   H31539661   1.702   0.951   3.519 -0.8727  0.8551 -0.5878
  104MOL   H31639662   1.555   0.852   3.707  1.1804 -0.2896  1.2717
  104MOL   H31739663   1.461   0.935   3.582 -0.2202  0.5418  0.4868
  104MOL   H31839664   1.349   0.878   3.809  0.4497 -0.2559 -0.0951
  104MOL   H31939665   1.268   1.117   3.883 -1.2446 -0.8752 -0.2640
  104MOL   H32039666   1.241   1.079   3.722  0.4440 -1.0106 -0.0402
  104MOL   H32139667   1.381   1.183   3.771 -0.6843  0.0225 -1.8782
  104MOL   H32239668   1.426   0.953   4.020  0.7574 -1.0864  0.2057
  104MOL   H32339669   1.537   1.059   3.939  1.1455 -0.5665 -0.9332
  104MOL   H32439670   1.570   0.888   3.951 -1.9554 -1.0110  2.6155
  104MOL   C32539671   1.777   1.143   3.525 -0.3531 -0.4884  0.8768
  104MOL   C32639672   1.693   1.171   3.397  0.6928  0.1324  0.4035
  104MOL   O32739673   1.646   1.305   3.400  0.1734 -0.5165 -0.1166
  104MOL   C32839674   1.533   1.333   3.484 -0.4983  0.3941 -0.4472
  104MOL   C32939675   1.482   1.463   3.438  0.0477 -1.2794  0.2726
  104MOL   C33039676   1.331   1.483   3.474  0.1322 -0.2937 -0.4789
  104MOL   C33139677   1.566   1.589   3.483  0.3293 -0.0854  0.2122
  104MOL   H33239678   1.880   1.123   3.497 -0.5521  0.0125 -0.2184
  104MOL   H33339679   1.773   1.232   3.588  0.1612 -0.0710  0.3165
  104MOL   H33439680   1.604   1.108   3.407 -0.4375  1.1201 -2.8887
  104MOL   H33539681   1.459   1.254   3.477  1.6138 -1.7786  1.1891
  104MOL   H33639682   1.562   1.332   3.589 -0.4914 -0.5565 -0.4563
  104MOL   H33739683   1.484   1.468   3.330  1.0985  2.6452  0.3770
  104MOL   H33839684   1.295   1.565   3.411 -1.9178 -1.2344 -0.5963
  104MOL   H33939685   1.269   1.400   3.442 -0.0301  0.1748 -1.4055
  104MOL   H34039686   1.321   1.523   3.575  0.6903 -0.2037 -0.4626
  104MOL   H34139687   1.544   1.679   3.426 -2.0226 -1.3667 -1.0031
  104MOL   H34239688   1.544   1.613   3.587  1.3093  0.3323  0.3256
  104MOL   H34339689   1.672   1.567   3.477  0.4428  0.5631 -0.2181
  104MOL   C34439690   1.755   1.157   3.262  0.2514  1.1786 -0.0650
  104MOL   C34539691   1.802   1.012   3.224  0.2671  0.4771  0.2126
  104MOL   O34639692   1.694   0.930   3.201  0.4544 -0.5409  0.3098
  104MOL   C34739693   1.723   0.797   3.227  0.1206  0.2255 -0.4945
  104MOL   C34839694   1.600   0.704   3.217  0.1338  0.6434 -0.3337
  104MOL   C34939695   1.531   0.699   3.082  0.0836  0.0662 -0.4004
  104MOL   C35039696   1.509   0.725   3.346  0.4108 -0.1376  0.2740
  104MOL   H35139697   1.842   1.223   3.263  0.1782  1.3363 -1.6258
  104MOL   H35239698   1.697   1.196   3.178 -0.8018 -2.5030 -1.1759
  104MOL   H35339699   1.876   0.989   3.301  0.9118  1.1536 -0.1934
  104MOL   H35439700   1.763   0.781   3.327 -0.8746  0.7546  0.0012
  104MOL   H35539701   1.789   0.751   3.154  0.3933  0.2673 -0.2752
  104MOL   H35639702   1.643   0.604   3.225  0.8799  1.0909  1.3738
  104MOL   H35739703   1.478   0.792   3.060 -0.0986  0.4557  1.6481
  104MOL   H35839704   1.469   0.608   3.078  0.4482 -0.1833 -0.3958
  104MOL   H35939705   1.603   0.691   3.001  0.6210  1.0071 -0.0112
  104MOL   H36039706   1.558   0.688   3.436  0.1665  2.0147  1.3229
  104MOL   H36139707   1.472   0.824   3.374  3.0344  1.2325 -0.9493
  104MOL   H36239708   1.415   0.669   3.346  0.1808  0.2317 -1.2540
  104MOL   C36339709   1.889   1.010   3.097  0.0510 -0.0232 -0.5238
  104MOL   C36439710   1.822   1.067   2.968  0.1222  0.4317  0.0760
  104MOL   O36539711   1.907   1.063   2.862 -0.5611 -0.2668 -0.6179
  104MOL   C36639712   1.876   1.143   2.752  0.5703 -0.3197 -0.1462
  104MOL   C36739713   1.997   1.182   2.672  0.2150 -0.3605 -0.0189
  104MOL   C36839714   2.075   1.300   2.734  0.3919  0.1744  0.3919
  104MOL   C36939715   1.966   1.198   2.524  0.0397  0.3171  1.1309
  104MOL   H37039716   1.982   1.065   3.109  0.2307 -0.0878 -1.5347
  104MOL   H37139717   1.926   0.911   3.068  2.1312  0.3665  0.6733
  104MOL   H37239718   1.792   1.171   2.985 -3.0749 -0.7397  2.2533
  104MOL   H37339719   1.806   1.083   2.694  0.8000 -2.0097  1.2816
  104MOL   H37439720   1.821   1.234   2.778 -1.1893 -1.2905 -0.4023
  104MOL   H37539721   2.058   1.093   2.659 -1.1513 -1.0405 -2.3383
  104MOL   H37639722   2.018   1.383   2.774  1.2386  0.4812  0.9829
  104MOL   H37739723   2.138   1.344   2.656  0.9435  0.8756  1.2262
  104MOL   H37839724   2.138   1.263   2.815  1.6830  1.8430  0.1859
  104MOL   H37939725   2.059   1.222   2.471  1.6355 -0.4818  3.4736
  104MOL   H38039726   1.890   1.272   2.501 -0.4802 -1.2231 -2.4551
  104MOL   H38139727   1.937   1.103   2.479 -0.5339  1.5685 -1.1832
  104MOL   H38239728   1.737   1.012   2.928  0.0657  0.2574  0.4282
  105MOL     C139729   0.754   1.267   6.287  0.2568  0.3956 -0.2619
  105MOL     C239730   0.866   1.320   6.195  0.1508  0.2598 -0.2437
  105MOL     O339731   0.937   1.209   6.139  0.7126 -0.1859  0.1292
  105MOL     C439732   1.008   1.125   6.229  0.3817 -0.3023 -0.0425
  105MOL     C539733   1.130   1.056   6.162  0.1338  0.7035 -0.1290
  105MOL     C639734   1.165   0.915   6.199 -0.5614 -0.3644  0.3958
  105MOL     C739735   1.247   1.150   6.134 -0.1846 -0.0999 -0.4937
  105MOL     H839736   0.678   1.206   6.238 -0.5817 -0.4683  2.0326
  105MOL     H939737   0.783   1.211   6.377  0.3552  0.6533 -0.1341
  105MOL    H1039738   0.937   1.376   6.256  1.4491 -1.8332  0.2237
  105MOL    H1139739   0.937   1.050   6.264  0.3429  0.3460  1.3271
  105MOL    H1239740   1.024   1.174   6.325  0.3917  0.7877 -0.5873
  105MOL    H1339741   1.113   1.048   6.054 -0.2892  1.6151 -0.1397
  105MOL    H1439742   1.186   0.909   6.306  0.5000  1.1389  0.2856
  105MOL    H1539743   1.077   0.853   6.183 -1.8679  1.2074  1.3456
  105MOL    H1639744   1.249   0.885   6.138 -0.3721  1.7608 -0.4484
  105MOL    H1739745   1.304   1.179   6.223 -1.8780  2.2637 -0.1429
  105MOL    H1839746   1.307   1.092   6.065  0.8528  0.0507  0.2640
  105MOL    H1939747   1.219   1.240   6.080 -0.9081  0.6294  1.0689
  105MOL    H2039748   0.705   1.351   6.336  0.6283  0.6763 -0.3739
  105MOL    C2139749   0.794   1.406   6.084 -0.0832  0.1327 -0.0087
  105MOL    C2239750   0.877   1.460   5.964 -0.3580 -0.8631 -0.2177
  105MOL    O2339751   0.779   1.500   5.871  0.0572  0.4832 -0.3450
  105MOL    C2439752   0.804   1.463   5.735  0.3908 -0.3322  0.0842
  105MOL    C2539753   0.758   1.323   5.686 -0.9106 -0.4870 -0.4917
  105MOL    C2639754   0.634   1.267   5.748 -0.3753  0.2960 -0.0317
  105MOL    C2739755   0.776   1.302   5.534  0.2760  0.2254  0.5767
  105MOL    H2839756   0.717   1.340   6.045 -0.4990  0.8143 -0.3543
  105MOL    H2939757   0.746   1.494   6.128 -1.2939 -1.2270  1.4463
  105MOL    H3039758   0.933   1.373   5.929 -2.6242 -3.6476  2.7061
  105MOL    H3139759   0.910   1.477   5.714  0.6387  2.6648  2.9460
  105MOL    H3239760   0.750   1.528   5.666  0.2731 -0.1224  0.3714
  105MOL    H3339761   0.842   1.263   5.723 -1.3878  0.8023  2.8356
  105MOL    H3439762   0.649   1.176   5.805  2.2636  0.8553  0.2340
  105MOL    H3539763   0.558   1.258   5.671 -0.3548 -1.3733  0.1380
  105MOL    H3639764   0.591   1.341   5.816  0.5466  1.9445 -1.2050
  105MOL    H3739765   0.754   1.199   5.505 -1.8887  0.2702  1.9688
  105MOL    H3839766   0.698   1.354   5.477  1.9489 -1.1166 -3.1315
  105MOL    H3939767   0.872   1.344   5.503 -0.9954  2.3111 -0.6531
  105MOL    C4039768   0.964   1.576   6.004 -0.1145  0.3205  0.1819
  105MOL    C4139769   1.069   1.607   5.891  0.3218 -0.5882 -0.2578
  105MOL    O4239770   1.154   1.495   5.870 -0.2202  0.5624 -0.1548
  105MOL    C4339771   1.199   1.487   5.739  0.3363  0.1746 -0.1824
  105MOL    C4439772   1.311   1.379   5.745  0.3967 -0.6091 -0.4415
  105MOL    C4539773   1.424   1.418   5.838 -0.2936 -0.6667  0.2395
  105MOL    C4639774   1.257   1.239   5.758 -0.2629  0.5698 -0.3015
  105MOL    H4739775   1.021   1.547   6.092  0.1480 -1.6401 -0.6088
  105MOL    H4839776   0.899   1.661   6.021 -0.4991 -0.2214  1.4291
  105MOL    H4939777   1.014   1.643   5.804 -1.2041 -1.9829  0.1185
  105MOL    H5039778   1.232   1.585   5.705  0.2650  0.5559  0.8189
  105MOL    H5139779   1.120   1.455   5.671 -0.2896  0.2818  0.4912
  105MOL    H5239780   1.364   1.364   5.652 -0.1685 -1.4939 -0.6346
  105MOL    H5339781   1.451   1.519   5.808 -0.9077 -0.3925  0.6245
  105MOL    H5439782   1.378   1.416   5.937 -1.6070 -3.1192 -0.3741
  105MOL    H5539783   1.510   1.351   5.829  1.4028  1.1381  2.3773
  105MOL    H5639784   1.187   1.234   5.841  1.2416  1.7504  1.0695
  105MOL    H5739785   1.335   1.163   5.762 -0.6268  0.2349  0.4059
  105MOL    H5839786   1.201   1.207   5.670 -0.5431  0.5038 -0.0981
  105MOL    C5939787   1.145   1.721   5.954 -0.0555 -0.2354  0.1977
  105MOL    C6039788   1.219   1.826   5.868  0.0281 -0.4448 -0.3732
  105MOL    O6139789   1.249   1.937   5.955 -0.1767 -0.2621 -0.1235
  105MOL    C6239790   1.383   1.929   6.008 -0.2135  0.1585  0.4471
  105MOL    C6339791   1.396   2.016   6.132 -0.2753 -0.2911  0.9333
  105MOL    C6439792   1.521   1.986   6.219 -0.3554  0.0439 -0.1994
  105MOL    C6539793   1.389   2.166   6.098  0.2665 -0.2902 -0.1618
  105MOL    H6639794   1.213   1.669   6.021 -2.2242 -0.3020  2.3812
  105MOL    H6739795   1.076   1.783   6.011 -1.1839 -1.7287  0.4772
  105MOL    H6839796   1.312   1.775   5.843  0.1369 -0.4728  0.0914
  105MOL    H6939797   1.404   1.833   6.055 -2.3229 -0.7859 -0.4755
  105MOL    H7039798   1.451   1.958   5.928 -0.6059 -2.0346 -0.7077
  105MOL    H7139799   1.303   1.995   6.186 -1.0299 -0.4831 -0.4185
  105MOL    H7239800   1.548   1.881   6.222  0.4758  0.2795  0.6689
  105MOL    H7339801   1.501   2.019   6.321 -2.6421  1.3400 -1.0221
  105MOL    H7439802   1.611   2.040   6.191 -0.3304 -0.1143 -0.4212
  105MOL    H7539803   1.288   2.201   6.075 -0.1365 -1.6066 -0.4531
  105MOL    H7639804   1.435   2.223   6.178  1.5374  0.2837 -1.2782
  105MOL    H7739805   1.453   2.178   6.011  0.3045  1.0467  0.0438
  105MOL    C7839806   1.138   1.881   5.751 -0.3094 -0.6777 -0.1517
  105MOL    C7939807   1.226   1.978   5.658  0.0558  0.4742 -0.3353
  105MOL    O8039808   1.339   1.899   5.631  0.0422  0.6628 -0.1629
  105MOL    C8139809   1.459   1.979   5.601  0.3166  0.7467 -0.6987
  105MOL    C8239810   1.572   1.888   5.582  0.0765 -0.1042  0.8043
  105MOL    C8339811   1.547   1.808   5.452 -0.4302 -0.2193  0.0467
  105MOL    C8439812   1.619   1.792   5.691  0.8341 -0.2559 -0.5942
  105MOL    H8539813   1.046   1.932   5.780  0.3800  1.3317 -1.3843
  105MOL    H8639814   1.115   1.800   5.681 -0.8388 -0.5032 -0.1860
  105MOL    H8739815   1.244   2.064   5.722 -1.5752  1.0649 -0.6336
  105MOL    H8839816   1.441   2.047   5.516  0.7146 -1.9769 -3.0301
  105MOL    H8939817   1.490   2.040   5.685  0.1637  1.6158 -1.2584
  105MOL    H9039818   1.658   1.953   5.563 -1.1303  1.2280 -0.1393
  105MOL    H9139819   1.527   1.875   5.368 -1.4824 -2.5802 -1.6332
  105MOL    H9239820   1.458   1.746   5.450 -1.4605  1.2423  0.1788
  105MOL    H9339821   1.635   1.751   5.420  0.6101  0.4914  1.5935
  105MOL    H9439822   1.563   1.699   5.688 -0.5002  0.4385  1.6615
  105MOL    H9539823   1.598   1.834   5.789  2.1446  0.4062 -0.5818
  105MOL    H9639824   1.722   1.758   5.687  1.0028  0.1142  0.5198
  105MOL    C9739825   1.168   2.032   5.525  0.3288  0.3599 -0.5049
  105MOL    C9839826   1.036   2.114   5.546  0.2874  0.2244 -0.0566
  105MOL    O9939827   0.965   2.139   5.423  0.0106  0.0944  0.0815
  105MOL   C10039828   0.904   2.019   5.376 -0.6754  0.1856  0.0930
  105MOL   C10139829   0.816   2.067   5.258  0.1742 -0.1514 -0.4577
  105MOL   C10239830   0.770   1.952   5.167 -0.5333  0.2250  0.8567
  105MOL   C10339831   0.688   2.147   5.295  0.7992  0.0684 -0.8513
  105MOL   H10439832   1.161   1.946   5.458 -0.5280  1.0524 -1.3141
  105MOL   H10539833   1.246   2.082   5.466  0.4720 -2.3458 -2.6955
  105MOL   H10639834   0.980   2.054   5.617  1.2031  1.2212  1.5213
  105MOL   H10739835   0.845   1.972   5.455  0.0028 -0.4070  0.2552
  105MOL   H10839836   0.973   1.940   5.348  1.9135  2.4298 -0.0380
  105MOL   H10939837   0.879   2.134   5.198 -1.7392  2.6224  0.5111
  105MOL   H11039838   0.730   1.872   5.228  0.4733 -0.8258  0.1551
  105MOL   H11139839   0.694   1.985   5.096  1.7140  2.3419 -0.6815
  105MOL   H11239840   0.858   1.905   5.122 -1.7784  0.2217 -1.6767
  105MOL   H11339841   0.721   2.219   5.371 -2.3718  0.8600 -0.1481
  105MOL   H11439842   0.641   2.199   5.212  0.8444  0.2586 -0.7584
  105MOL   H11539843   0.617   2.074   5.336  1.8190  0.7755  2.3444
  105MOL   C11639844   1.075   2.250   5.600  0.2970  0.1447  0.0118
  105MOL   C11739845   0.948   2.319   5.663 -0.3367  0.1072  0.1525
  105MOL   O11839846   0.940   2.280   5.804  0.7181 -0.3614 -0.1420
  105MOL   C11939847   0.809   2.248   5.851  0.3231 -0.3278 -0.5100
  105MOL   C12039848   0.808   2.247   6.000  0.8467  0.0494 -0.2139
  105MOL   C12139849   0.663   2.204   6.043  0.3865 -0.5043 -0.1738
  105MOL   C12239850   0.915   2.152   6.050 -0.9521 -0.0290 -0.0466
  105MOL   H12339851   1.155   2.233   5.673  1.5366 -3.7087 -2.0577
  105MOL   H12439852   1.118   2.299   5.513 -1.7898 -0.9987 -1.7211
  105MOL   H12539853   0.862   2.272   5.617 -1.0729  0.5812  1.0337
  105MOL   H12639854   0.782   2.146   5.823 -0.5673 -0.4062  0.6348
  105MOL   H12739855   0.735   2.308   5.798  0.8805  0.6042 -0.2504
  105MOL   H12839856   0.826   2.347   6.039  0.5060 -0.0304  0.1569
  105MOL   H12939857   0.600   2.283   6.002 -0.1856 -0.0491  1.5510
  105MOL   H13039858   0.649   2.220   6.150 -2.0863 -0.9227 -0.4019
  105MOL   H13139859   0.631   2.104   6.017 -0.9033 -0.4544  1.1629
  105MOL   H13239860   1.014   2.187   6.023 -0.7301 -0.2134  0.5193
  105MOL   H13339861   0.912   2.138   6.158 -0.7330 -2.0934 -0.2806
  105MOL   H13439862   0.895   2.054   6.007 -1.3696  0.4412 -0.9339
  105MOL   C13539863   0.944   2.473   5.641  0.6745  0.1273 -0.1704
  105MOL   C13639864   0.882   2.517   5.509  0.1101 -0.8144  0.5285
  105MOL   O13739865   0.839   2.647   5.538  0.2699 -0.9182  0.4434
  105MOL   C13839866   0.702   2.639   5.581  0.0165  0.4875  0.4689
  105MOL   C13939867   0.651   2.785   5.606 -0.0810  0.3564 -0.8309
  105MOL   C14039868   0.737   2.854   5.712 -0.0531  0.5004 -0.1170
  105MOL   C14139869   0.642   2.873   5.482  0.1555  0.3808  0.2037
  105MOL   H14239870   0.887   2.519   5.722  0.9990  0.6216 -0.2191
  105MOL   H14339871   1.040   2.522   5.653  1.1573 -0.6468 -0.8160
  105MOL   H14439872   0.802   2.447   5.486  0.3957 -0.8885 -0.2501
  105MOL   H14539873   0.697   2.577   5.670 -0.1447  0.3264  0.3495
  105MOL   H14639874   0.648   2.584   5.504  0.1997  1.1814 -0.1636
  105MOL   H14739875   0.550   2.780   5.648  0.4987  3.5983  1.1188
  105MOL   H14839876   0.844   2.846   5.690 -0.3707  0.2987 -1.6363
  105MOL   H14939877   0.738   2.801   5.808  2.4136  0.0972 -0.3364
  105MOL   H15039878   0.709   2.958   5.725  0.0498  0.5693 -0.4627
  105MOL   H15139879   0.579   2.962   5.481  0.7038  0.7645 -2.2982
  105MOL   H15239880   0.739   2.904   5.444  0.0169  0.7392  0.1353
  105MOL   H15339881   0.589   2.812   5.409  1.0852  0.3421 -0.4464
  105MOL   C15439882   0.987   2.510   5.392  0.5576 -0.6658  0.3635
  105MOL   C15539883   0.936   2.577   5.260 -0.3828  0.2317  0.4766
  105MOL   O15639884   1.043   2.587   5.161  0.7773  0.4681 -0.3890
  105MOL   C15739885   1.106   2.719   5.159 -0.1287  0.9745 -0.4215
  105MOL   C15839886   1.204   2.724   5.040  0.0635  0.2778  0.4384
  105MOL   C15939887   1.128   2.760   4.918 -0.2397 -0.3901  0.3099
  105MOL   C16039888   1.323   2.819   5.059  0.1429  0.4719 -0.5585
  105MOL   H16139889   1.010   2.405   5.369  1.1943 -0.3520 -0.4536
  105MOL   H16239890   1.077   2.564   5.422  0.7505 -0.1799 -1.0489
  105MOL   H16339891   0.902   2.677   5.286 -2.2791 -0.4720  0.8284
  105MOL   H16439892   1.143   2.735   5.260 -2.3838 -0.4715  0.6753
  105MOL   H16539893   1.028   2.795   5.154 -0.3227  0.8390  0.4409
  105MOL   H16639894   1.235   2.620   5.031 -1.6117 -0.2864  0.8986
  105MOL   H16739895   1.192   2.731   4.834  0.1286  1.7862 -0.1791
  105MOL   H16839896   1.104   2.866   4.917  3.7211  0.5725 -0.6089
  105MOL   H16939897   1.034   2.708   4.901 -0.5917 -0.0679  1.2584
  105MOL   H17039898   1.393   2.834   4.976  2.5202 -1.2122  1.0652
  105MOL   H17139899   1.285   2.919   5.079  1.2478  1.0815 -1.4423
  105MOL   H17239900   1.385   2.793   5.145 -1.8250  1.5420  1.1868
  105MOL   C17339901   0.817   2.500   5.196 -0.1110 -0.1788 -0.4636
  105MOL   C17439902   0.744   2.578   5.082  0.5978  0.5770 -0.5466
  105MOL   O17539903   0.641   2.494   5.022  0.4398  0.3748 -0.7651
  105MOL   C17639904   0.678   2.441   4.896  0.5171 -0.2054  0.5991
  105MOL   C17739905   0.547   2.412   4.812  0.8462 -0.2793  0.7068
  105MOL   C17839906   0.582   2.377   4.666  0.1225 -0.2149 -0.2546
  105MOL   C17939907   0.461   2.310   4.886  0.2553 -0.3295 -0.0943
  105MOL   H18039908   0.849   2.404   5.156  0.8972 -0.3733  0.7509
  105MOL   H18139909   0.749   2.470   5.276  0.2972 -0.3315 -0.1702
  105MOL   H18239910   0.822   2.603   5.009  0.7140  0.1400 -0.5779
  105MOL   H18339911   0.754   2.366   4.918 -0.5959 -1.7946 -0.8083
  105MOL   H18439912   0.726   2.526   4.849 -1.9329  0.9845  0.1377
  105MOL   H18539913   0.490   2.506   4.806 -0.7724 -1.3932 -2.1717
  105MOL   H18639914   0.495   2.385   4.601 -1.5208  1.0979  2.0600
  105MOL   H18739915   0.656   2.436   4.612 -2.0531  1.9297 -0.9553
  105MOL   H18839916   0.600   2.269   4.667 -2.2909 -0.6424  2.6388
  105MOL   H18939917   0.390   2.278   4.810  3.1318 -3.1014 -1.7614
  105MOL   H19039918   0.396   2.354   4.961 -0.1132 -1.4152  0.2394
  105MOL   H19139919   0.509   2.224   4.933 -0.3461 -0.0544  1.0520
  105MOL   C19239920   0.674   2.712   5.121 -0.5621  0.6766  0.4385
  105MOL   C19339921   0.608   2.793   5.013  0.4734  0.2111  0.0910
  105MOL   O19439922   0.706   2.855   4.931 -0.3388 -0.1385  0.6623
  105MOL   C19539923   0.722   2.809   4.802 -0.2085  1.0467 -0.4496
  105MOL   C19639924   0.806   2.917   4.733  0.3898  0.2956 -0.0857
  105MOL   C19739925   0.730   3.047   4.718 -0.0897  0.6605  0.0359
  105MOL   C19839926   0.857   2.870   4.597  0.3181 -0.2577  0.0297
  105MOL   H19939927   0.746   2.778   5.171 -1.1644  2.1575 -0.6135
  105MOL   H20039928   0.607   2.700   5.206  0.3579 -2.0103  0.8458
  105MOL   H20139929   0.553   2.724   4.949  0.7178  0.3848 -0.3055
  105MOL   H20239930   0.627   2.786   4.755 -1.4361  1.6453  1.6499
  105MOL   H20339931   0.781   2.717   4.791 -1.4873  0.0513  0.8081
  105MOL   H20439932   0.895   2.913   4.795  1.0617 -0.1199 -1.0578
  105MOL   H20539933   0.771   3.109   4.638  0.2357  1.5348  0.8775
  105MOL   H20639934   0.629   3.015   4.694  0.3096  0.9110 -2.1119
  105MOL   H20739935   0.721   3.099   4.813 -0.3336 -1.1050  0.9930
  105MOL   H20839936   0.916   2.948   4.549 -0.3150  0.0766 -0.2168
  105MOL   H20939937   0.923   2.784   4.597 -0.5832 -0.9562 -0.5713
  105MOL   H21039938   0.774   2.853   4.529 -0.2518 -0.3733  0.7383
  105MOL   C21139939   0.513   2.903   5.080  0.1922  0.2461 -0.4127
  105MOL   C21239940   0.368   2.865   5.117  0.3385  0.1989  0.2499
  105MOL   O21339941   0.352   2.756   5.208 -0.0460  0.6286  0.2326
  105MOL   C21439942   0.345   2.634   5.141  0.2731  0.4463  0.1354
  105MOL   C21539943   0.310   2.529   5.240 -0.2098  0.6354  0.0001
  105MOL   C21639944   0.409   2.527   5.356  0.2227 -0.0056  0.8565
  105MOL   C21739945   0.161   2.529   5.276  0.6855  0.2700  0.2085
  105MOL   H21839946   0.507   2.985   5.008 -1.8868 -0.3645 -0.9566
  105MOL   H21939947   0.553   2.945   5.172  0.5653  0.3331 -0.6091
  105MOL   H22039948   0.309   2.842   5.028 -0.0291 -1.0758  0.8285
  105MOL   H22139949   0.437   2.609   5.088  0.3780  0.9247  0.0830
  105MOL   H22239950   0.275   2.631   5.058  0.2004  0.8843  0.1777
  105MOL   H22339951   0.328   2.439   5.181  0.7177  2.3352 -2.3958
  105MOL   H22439952   0.508   2.525   5.310 -0.2788  2.7836 -0.4882
  105MOL   H22539953   0.400   2.608   5.428  1.4344  0.9127  0.0203
  105MOL   H22639954   0.392   2.443   5.423 -1.2984  0.7233  1.3991
  105MOL   H22739955   0.132   2.447   5.342 -1.4331  0.8378  0.0070
  105MOL   H22839956   0.096   2.519   5.190  0.7282 -1.4030  0.3461
  105MOL   H22939957   0.128   2.621   5.323 -0.1090  0.6738 -1.1206
  105MOL   C23039958   0.278   2.977   5.179  0.2116 -0.7739 -0.2349
  105MOL   C23139959   0.306   3.121   5.128  0.6527  0.0263  0.2870
  105MOL   O23239960   0.254   3.110   4.996 -0.0460  0.4088 -0.1544
  105MOL   C23339961   0.321   3.183   4.896  0.1773 -0.1721  0.5075
  105MOL   C23439962   0.259   3.147   4.768  0.9745 -0.0225 -0.6890
  105MOL   C23539963   0.282   3.002   4.725 -0.1373 -0.4247 -0.3659
  105MOL   C23639964   0.108   3.173   4.761  0.1823 -0.1172 -0.3475
  105MOL   H23739965   0.308   2.990   5.283 -2.6133 -0.5242  0.5965
  105MOL   H23839966   0.172   2.953   5.175  0.2695 -0.9348 -0.9545
  105MOL   H23939967   0.412   3.146   5.127  1.3399 -2.7206  0.5582
  105MOL   H24039968   0.320   3.291   4.913  0.1645 -0.3544  1.6633
  105MOL   H24139969   0.423   3.145   4.891 -0.3246 -1.6365  1.1865
  105MOL   H24239970   0.310   3.209   4.694 -1.6848  0.5555 -2.1055
  105MOL   H24339971   0.252   2.997   4.620  0.5278 -0.0005 -0.5762
  105MOL   H24439972   0.212   2.934   4.775 -1.9334  0.4484 -1.6418
  105MOL   H24539973   0.385   2.967   4.727 -0.8118 -2.5839 -1.8635
  105MOL   H24639974   0.079   3.208   4.662  1.6283  0.6444 -0.5198
  105MOL   H24739975   0.043   3.089   4.785 -0.1716  1.5312  5.2294
  105MOL   H24839976   0.077   3.254   4.827  0.6842  0.6787 -1.0648
  105MOL   C24939977   0.223   3.224   5.205  0.3376  1.2520  0.1077
  105MOL   C25039978   0.291   3.298   5.318 -0.6638 -0.3569  0.3306
  105MOL   O25139979   0.389   3.392   5.268 -0.2448  0.3269  0.2594
  105MOL   C25239980   0.525   3.360   5.317  0.7570  0.2959 -0.2288
  105MOL   C25339981   0.623   3.459   5.250  0.2439 -0.0248  0.3386
  105MOL   C25439982   0.592   3.607   5.280  0.1066  0.4132  0.7259
  105MOL   C25539983   0.624   3.443   5.100 -0.1674 -0.2984 -0.6080
  105MOL   H25639984   0.148   3.158   5.247  0.1318  0.0128 -2.1009
  105MOL   H25739985   0.165   3.282   5.134  1.0452  0.2603 -1.3264
  105MOL   H25839986   0.335   3.221   5.382 -1.9746  0.4418  2.2314
  105MOL   H25939987   0.543   3.376   5.424  1.9979  0.4483 -0.4491
  105MOL   H26039988   0.561   3.262   5.287 -1.2922  0.1294 -2.2625
  105MOL   H26139989   0.725   3.428   5.274  2.0540  3.2845 -2.6028
  105MOL   H26239990   0.670   3.661   5.226 -0.4188 -0.7178 -1.1977
  105MOL   H26339991   0.603   3.625   5.387 -1.8357  0.4182  0.9365
  105MOL   H26439992   0.496   3.651   5.251  0.3567  0.7974  0.4653
  105MOL   H26539993   0.705   3.497   5.052  1.4204 -0.8788  1.3935
  105MOL   H26639994   0.620   3.338   5.071  1.5941  0.0167 -2.0643
  105MOL   H26739995   0.528   3.489   5.075  0.5595  0.5471 -1.8770
  105MOL   C26839996   0.186   3.366   5.407 -0.1801 -0.3622 -0.0040
  105MOL   C26939997   0.232   3.416   5.549  0.1149 -1.1723  0.7419
  105MOL   O27039998   0.268   3.296   5.618 -0.1141  0.3611  0.0526
  105MOL   C27139999   0.386   3.313   5.706  0.1513  0.5140 -0.3765
  105MOL   C27240000   0.386   3.197   5.812  0.7053 -0.5518 -0.0959
  105MOL   C27340001   0.525   3.188   5.890 -0.1883  0.4573  0.4670
  105MOL   C27440002   0.257   3.192   5.895  0.7019 -0.6478 -0.0063
  105MOL   H27540003   0.118   3.286   5.438 -0.2343 -0.5115 -0.5117
  105MOL   H27640004   0.121   3.424   5.342  0.9539 -0.6385 -1.4040
  105MOL   H27740005   0.311   3.490   5.540  0.8357 -1.9054  0.9508
  105MOL   H27840006   0.485   3.310   5.661 -0.1093 -1.6414 -0.8834
  105MOL   H27940007   0.377   3.406   5.762  1.2152  0.1002  0.5193
  105MOL   H28040008   0.381   3.104   5.756  1.9725 -1.4249  1.2131
  105MOL   H28140009   0.522   3.257   5.974  0.4918 -0.2343  1.0631
  105MOL   H28240010   0.611   3.218   5.830  0.7163  0.0231  1.5430
  105MOL   H28340011   0.538   3.084   5.918  0.6411  0.6254  0.7009
  105MOL   H28440012   0.272   3.258   5.981 -1.5915  0.5670 -0.4871
  105MOL   H28540013   0.246   3.095   5.944 -2.7435  1.0587  2.8600
  105MOL   H28640014   0.163   3.210   5.843  0.5064 -1.2419  0.1481
  105MOL   C28740015   0.111   3.469   5.631  0.2075  0.7541  0.1684
  105MOL   C28840016   0.019   3.574   5.560 -0.5030  0.3660  0.1033
  105MOL   O28940017   0.100   3.687   5.555 -0.2326 -0.3492  0.0865
  105MOL   C29040018   0.089   3.755   5.431  0.4635  0.1644  0.2449
  105MOL   C29140019   0.173   3.881   5.429 -0.0705  0.0603 -0.2521
  105MOL   C29240020   0.150   3.972   5.547  0.2521  0.4878  0.3520
  105MOL   C29340021   0.157   3.959   5.301  0.3107  0.1185 -0.3670
  105MOL   H29440022   0.137   3.502   5.731 -0.5835 -0.8180  0.9088
  105MOL   H29540023   0.051   3.386   5.668  0.7757 -0.1527 -0.9045
  105MOL   H29640024   7.813   3.533   5.463 -1.7895  1.0834  0.1833
  105MOL   H29740025   0.128   3.690   5.352  3.7233  0.9972  1.0713
  105MOL   H29840026   7.810   3.774   5.405  0.5073 -0.3673 -0.3293
  105MOL   H29940027   0.272   3.856   5.468 -0.5485  0.5738  1.3476
  105MOL   H30040028   0.150   3.928   5.647  1.9390  1.4212  0.7726
  105MOL   H30140029   0.049   4.012   5.536 -1.0631 -2.3115  1.6739
  105MOL   H30240030   0.226   4.048   5.532 -0.8551  1.4843 -0.2369
  105MOL   H30340031   0.216   4.050   5.300  0.3503  0.1246  1.1951
  105MOL   H30440032   0.180   3.900   5.212 -1.7429 -1.2779 -0.0066
  105MOL   H30540033   0.058   4.004   5.305 -0.1033 -0.7415 -0.6461
  105MOL   C30640034   7.716   3.619   5.637 -0.1519 -0.3020 -0.4997
  105MOL   C30740035   7.599   3.518   5.649  0.8649  1.4235 -0.1433
  105MOL   O30840036   7.538   3.537   5.775 -0.5395 -0.2430 -0.3073
  105MOL   C30940037   7.466   3.428   5.836 -0.4127  0.0474 -0.3611
  105MOL   C31040038   7.417   3.457   5.979 -0.2436 -0.4267  0.6448
  105MOL   C31140039   7.359   3.336   6.064  0.4990 -0.4405 -1.1943
  105MOL   C31240040   7.301   3.563   5.978  0.1003  0.4966  0.1820
  105MOL   H31340041   7.669   3.708   5.595 -0.1472  0.7874  1.7881
  105MOL   H31440042   7.749   3.660   5.732 -1.9752 -0.9148  0.4302
  105MOL   H31540043   7.640   3.417   5.646  0.4398  1.2534 -0.2386
  105MOL   H31640044   7.541   3.350   5.849 -0.4373 -0.1632 -1.4073
  105MOL   H31740045   7.380   3.401   5.774 -0.0382  1.1423 -1.3827
  105MOL   H31840046   7.505   3.506   6.021  0.0969 -0.4313 -0.0570
  105MOL   H31940047   7.437   3.261   6.070 -0.8472 -1.6581  1.8197
  105MOL   H32040048   7.277   3.290   6.009  0.4186 -0.3585 -1.1433
  105MOL   H32140049   7.340   3.373   6.165  1.0137  1.4160 -1.7561
  105MOL   H32240050   7.229   3.549   5.898 -2.4447  1.9370  2.1679
  105MOL   H32340051   7.356   3.654   5.953  1.6206 -0.3106  0.5077
  105MOL   H32440052   7.256   3.571   6.077  2.6915  0.6861  1.3953
  105MOL   C32540053   7.490   3.527   5.533 -0.1210  0.0193 -0.2645
  105MOL   C32640054   7.535   3.463   5.400 -0.0289 -0.1132 -0.4672
  105MOL   O32740055   7.530   3.326   5.421 -0.1095 -0.3387 -0.2186
  105MOL   C32840056   7.636   3.262   5.354  0.5373  0.4148  0.1375
  105MOL   C32940057   7.583   3.116   5.348 -0.0121  0.3353 -1.1290
  105MOL   C33040058   7.567   3.062   5.485 -0.4187  0.0638  0.1431
  105MOL   C33140059   7.461   3.082   5.264  0.4222  0.0787 -0.0687
  105MOL   H33240060   7.481   3.633   5.512  2.1825  0.5772  1.3965
  105MOL   H33340061   7.390   3.497   5.567  0.0577  0.5479  0.7350
  105MOL   H33440062   7.631   3.512   5.383 -0.5109  0.9858 -0.0614
  105MOL   H33540063   7.646   3.307   5.255  0.0776 -1.1530 -0.6373
  105MOL   H33640064   7.725   3.280   5.414  0.0731 -0.9657  1.2847
  105MOL   H33740065   7.672   3.069   5.307  0.6709  1.1602 -0.6099
  105MOL   H33840066   7.483   3.106   5.537 -0.3701 -0.8557  1.0007
  105MOL   H33940067   7.565   2.954   5.493  0.6812 -0.0653 -1.0677
  105MOL   H34040068   7.651   3.096   5.546  0.1255 -1.2322  0.1415
  105MOL   H34140069   7.362   3.089   5.309  0.4325 -2.1061  0.3442
  105MOL   H34240070   7.474   3.147   5.177  3.0733 -0.7974 -0.3727
  105MOL   H34340071   7.456   2.981   5.225 -5.8158  0.5183 -0.9959
  105MOL   C34440072   7.431   3.496   5.290  0.6463 -0.3043  0.1949
  105MOL   C34540073   7.479   3.590   5.179  0.1907 -0.4964 -0.1897
  105MOL   O34640074   7.586   3.529   5.106 -0.0475 -0.0612 -0.3595
  105MOL   C34740075   7.709   3.600   5.102 -0.2659  0.2339  0.1023
  105MOL   C34840076   7.807   3.514   5.020 -0.5536  0.0713  0.3368
  105MOL   C34940077   0.127   3.554   5.046 -0.0814 -0.1314  0.1497
  105MOL   C35040078   7.764   3.515   4.873  0.4468  0.0568 -0.6191
  105MOL   H35140079   7.336   3.529   5.333 -0.2056 -2.1240 -0.2501
  105MOL   H35240080   7.406   3.398   5.249 -0.6418  0.1133 -0.0314
  105MOL   H35340081   7.518   3.672   5.240  2.3119 -0.9962 -0.8355
  105MOL   H35440082   7.744   3.634   5.199  1.0382 -0.5183 -0.0835
  105MOL   H35540083   7.705   3.692   5.044  4.6892  0.7932  0.4408
  105MOL   H35640084   7.782   3.414   5.058 -0.5353  0.1500  0.5557
  105MOL   H35740085   0.144   3.661   5.035  2.0047 -0.4859 -0.2960
  105MOL   H35840086   0.197   3.500   4.982 -0.1593  1.9632 -1.7731
  105MOL   H35940087   0.156   3.529   5.148  3.1927  0.7148 -0.5069
  105MOL   H36040088   7.656   3.506   4.866  0.1611  3.5480 -1.7537
  105MOL   H36140089   7.795   3.606   4.821 -1.4062  0.2366 -1.4334
  105MOL   H36240090   7.797   3.433   4.809 -0.5845 -0.3227 -0.6646
  105MOL   C36340091   7.371   3.639   5.069 -0.5915 -0.1198  0.1920
  105MOL   C36440092   7.267   3.734   5.130 -0.7840  0.2313  0.1358
  105MOL   O36540093   7.194   3.661   5.219 -0.2196  0.3573 -0.3189
  105MOL   C36640094   7.071   3.716   5.250 -0.1444 -0.0391  0.1234
  105MOL   C36740095   6.989   3.614   5.334  0.1705 -0.0162  0.3262
  105MOL   C36840096   7.031   3.612   5.486  0.1029 -0.1251 -0.8276
  105MOL   C36940097   6.978   3.468   5.284  0.3922 -0.0284  0.0523
  105MOL   H37040098   7.434   3.679   4.990  0.2254  0.1582  0.9604
  105MOL   H37140099   7.331   3.546   5.029 -2.5447  0.8514 -0.1480
  105MOL   H37240100   7.207   3.751   5.040 -0.9807 -0.5127  0.1213
  105MOL   H37340101   7.073   3.811   5.303  0.3137  0.1035 -0.1456
  105MOL   H37440102   7.016   3.732   5.157  0.1835 -0.7035 -0.1883
  105MOL   H37540103   6.887   3.651   5.338 -0.5119 -1.6729 -1.2182
  105MOL   H37640104   7.131   3.569   5.494  0.0890 -0.2920 -1.5281
  105MOL   H37740105   6.958   3.551   5.539  1.2149 -3.0524 -2.5598
  105MOL   H37840106   7.029   3.714   5.525  2.7049 -1.1868  2.3333
  105MOL   H37940107   6.914   3.405   5.345  0.3762  0.6768  0.7752
  105MOL   H38040108   7.079   3.428   5.286  0.2939 -0.2653  0.3707
  105MOL   H38140109   6.935   3.473   5.184 -3.7891 -4.0681  1.4809
  105MOL   H38240110   7.304   3.830   5.166 -0.0290  0.3527 -0.9423
  106MOL     C140111   7.497   1.924   1.298  0.3304  0.9336 -0.5202
  106MOL     C240112   7.556   1.867   1.167  0.3307 -0.5119 -0.1043
  106MOL     O340113   7.492   1.743   1.141  0.0976  0.3357  0.1933
  106MOL     C440114   7.562   1.636   1.196  0.3820  1.5630  0.0453
  106MOL     C540115   7.498   1.508   1.141  0.5774  0.4307 -0.4401
  106MOL     C640116   7.505   1.405   1.254  0.4658 -0.3596  0.2995
  106MOL     C740117   7.577   1.473   1.017  0.4720  0.5063  0.3926
  106MOL     H840118   7.388   1.925   1.301  0.3446  1.3134 -0.1067
  106MOL     H940119   7.522   1.837   1.360  1.7770  0.2605 -1.9981
  106MOL    H1040120   7.663   1.857   1.183  0.0953 -0.5065  1.5274
  106MOL    H1140121   7.555   1.630   1.305  0.2683 -0.8854 -0.0779
  106MOL    H1240122   7.666   1.636   1.162  0.6147  0.8242  0.7266
  106MOL    H1340123   7.398   1.526   1.102 -1.0197 -3.5143  1.5978
  106MOL    H1440124   7.468   1.310   1.214 -0.0040 -0.6237  1.3522
  106MOL    H1540125   7.610   1.394   1.281  0.3466 -0.2649  0.8022
  106MOL    H1640126   7.450   1.449   1.337  0.5193 -0.6877  0.5066
  106MOL    H1740127   7.684   1.461   1.036  1.0085  0.0264 -2.6681
  106MOL    H1840128   7.551   1.387   0.956  1.5479  0.9268 -0.6939
  106MOL    H1940129   7.562   1.554   0.945  0.6005  0.3793  0.2232
  106MOL    H2040130   7.539   2.018   1.334 -3.1625  1.9748  1.0144
  106MOL    C2140131   7.512   1.962   1.051 -0.2763 -0.0529 -0.2390
  106MOL    C2240132   7.588   1.937   0.917 -0.0317 -0.4272  0.4253
  106MOL    O2340133   7.513   2.001   0.812  0.5299  0.6644  0.4153
  106MOL    C2440134   7.463   1.914   0.708 -0.3827 -0.4994  0.0057
  106MOL    C2540135   7.413   1.984   0.588 -0.1997 -0.1756 -0.8551
  106MOL    C2640136   7.288   2.070   0.604  0.1497 -0.2318 -0.1414
  106MOL    C2740137   7.518   2.060   0.514  0.0240  0.8796  0.0535
  106MOL    H2840138   7.404   1.963   1.038 -0.2301  0.7978 -0.5632
  106MOL    H2940139   7.540   2.062   1.085 -0.0598 -0.4963  0.8999
  106MOL    H3040140   7.575   1.830   0.903 -0.1372 -0.1282 -1.8025
  106MOL    H3140141   7.392   1.858   0.769  0.8634 -1.1856  0.8775
  106MOL    H3240142   7.543   1.844   0.682  0.6842  0.7147  0.0014
  106MOL    H3340143   7.386   1.907   0.516 -0.4239  0.4889 -1.4774
  106MOL    H3440144   7.309   2.164   0.653 -0.6215  0.6757 -1.5131
  106MOL    H3540145   7.215   2.023   0.670 -0.6823 -0.6103 -1.3179
  106MOL    H3640146   7.241   2.088   0.507  0.9003 -0.6709 -0.5856
  106MOL    H3740147   7.618   2.040   0.553  0.1332 -2.3773 -1.7674
  106MOL    H3840148   7.514   2.041   0.407 -1.3102 -0.4943  0.3330
  106MOL    H3940149   7.504   2.168   0.520 -1.3401  0.7164  0.0216
  106MOL    C4040150   7.738   1.974   0.921  0.0398 -0.8024  0.5845
  106MOL    C4140151   7.819   1.941   0.800  0.0967 -0.1026  0.4323
  106MOL    O4240152   7.808   1.803   0.773  0.4470  0.2674 -0.4170
  106MOL    C4340153   7.814   1.774   0.635  0.0795  0.2154  0.4521
  106MOL    C4440154   7.804   1.625   0.608  0.1568  0.2336  0.4422
  106MOL    C4540155   7.670   1.566   0.639  0.8317  0.1864 -0.0791
  106MOL    C4640156   0.005   1.582   0.461  0.1000 -0.0763  0.6280
  106MOL    H4740157   7.790   1.921   1.001  1.7297  1.0263  0.7206
  106MOL    H4840158   7.747   2.079   0.946  0.4562 -0.5576 -0.5347
  106MOL    H4940159   7.788   2.005   0.717  1.2767 -1.3316 -0.9776
  106MOL    H5040160   0.074   1.819   0.584  0.3576 -2.2132 -1.3379
  106MOL    H5140161   7.726   1.815   0.584 -0.0900 -2.6096 -1.6559
  106MOL    H5240162   0.053   1.573   0.669  0.0809  0.5031  0.7631
  106MOL    H5340163   7.635   1.603   0.735  0.5580 -2.9788  1.0933
  106MOL    H5440164   7.593   1.588   0.566  1.8058 -0.4742 -1.3315
  106MOL    H5540165   7.679   1.457   0.635  0.3969  0.1799 -1.0389
  106MOL    H5640166   7.766   1.630   0.386  2.0094 -0.0875 -1.0415
  106MOL    H5740167   7.823   1.473   0.469  2.6656 -0.1671  1.8834
  106MOL    H5840168   0.111   1.594   0.438 -0.8787  2.1001 -3.1082
  106MOL    C5940169   0.144   1.960   0.825  0.5036 -0.7085 -0.1251
  106MOL    C6040170   0.193   2.095   0.880  0.0892 -0.3550  0.1539
  106MOL    O6140171   0.148   2.193   0.783 -0.0013  0.3795  0.3609
  106MOL    C6240172   0.113   2.321   0.833 -0.2901 -0.0922  0.5759
  106MOL    C6340173   0.090   2.428   0.718  0.5188  0.0182 -0.1449
  106MOL    C6440174   7.790   2.380   0.633  0.0847  0.3899 -0.0787
  106MOL    C6540175   0.075   2.567   0.785  0.2896 -0.0237 -0.5775
  106MOL    H6640176   0.187   1.930   0.730 -2.1550 -2.2265 -0.9102
  106MOL    H6740177   0.167   1.882   0.898 -0.7548  1.0689  2.2575
  106MOL    H6840178   0.163   2.104   0.984  1.4374 -0.7863  0.5957
  106MOL    H6940179   0.019   2.315   0.888 -2.6042 -2.6493 -3.3850
  106MOL    H7040180   0.197   2.359   0.891 -0.2086  2.1835 -0.9821
  106MOL    H7140181   0.183   2.427   0.661 -0.2380 -2.2554 -1.3840
  106MOL    H7240182   7.792   2.444   0.545 -0.4760  0.8201  0.2241
  106MOL    H7340183   7.698   2.393   0.688 -0.4024 -2.3062 -0.1649
  106MOL    H7440184   7.792   2.280   0.589 -0.1176  1.4760 -2.6853
  106MOL    H7540185   0.169   2.615   0.814 -0.3911  0.8244  0.2563
  106MOL    H7640186   0.022   2.623   0.708 -2.1176 -2.6022 -0.8923
  106MOL    H7740187   0.008   2.560   0.871 -0.2066  1.5328 -0.8291
  106MOL    C7840188   0.346   2.097   0.880  0.6906  0.3360  0.5060
  106MOL    C7940189   0.413   2.060   1.014  0.5295 -0.0488  0.3592
  106MOL    O8040190   0.381   1.925   1.063 -0.2967 -0.4660  0.1796
  106MOL    C8140191   0.330   1.930   1.191  0.0081 -0.4067 -0.1237
  106MOL    C8240192   0.301   1.792   1.261  0.3447 -0.0840  0.2235
  106MOL    C8340193   0.423   1.701   1.276 -0.2045  0.0182  0.2508
  106MOL    C8440194   0.187   1.718   1.188 -0.1840 -0.3652  0.6418
  106MOL    H8540195   0.381   2.193   0.841 -1.1069  0.3794 -1.0487
  106MOL    H8640196   0.395   2.042   0.800 -0.4352 -1.3990  0.9935
  106MOL    H8740197   0.375   2.135   1.083 -0.5816 -0.7319  0.4959
  106MOL    H8840198   0.406   1.977   1.253 -0.0726  2.7412 -2.2707
  106MOL    H8940199   0.239   1.990   1.191 -1.0029 -1.8923 -1.4670
  106MOL    H9040200   0.255   1.809   1.358 -1.4809  0.3905 -0.6995
  106MOL    H9140201   0.484   1.694   1.186  1.8816  2.2978  1.4416
  106MOL    H9240202   0.374   1.605   1.295  0.8725 -0.6243 -0.1587
  106MOL    H9340203   0.490   1.724   1.358  1.3690  0.2134 -1.0613
  106MOL    H9440204   0.227   1.664   1.102 -1.7811 -1.2743  0.4435
  106MOL    H9540205   0.114   1.793   1.159 -0.5542 -0.5829  1.0036
  106MOL    H9640206   0.129   1.655   1.256  2.7501 -1.8514  1.8529
  106MOL    C9740207   0.569   2.068   0.998  0.2773  0.3178  0.1425
  106MOL    C9840208   0.641   2.072   1.130  0.0687  0.0968 -0.8337
  106MOL    O9940209   0.608   2.207   1.171  0.4166 -0.9668  0.2725
  106MOL   C10040210   0.557   2.215   1.301 -0.4297 -0.1784 -0.4804
  106MOL   C10140211   0.510   2.360   1.331 -0.6722  0.7402 -0.2587
  106MOL   C10240212   0.409   2.397   1.229 -0.1028 -0.3301 -0.2005
  106MOL   C10340213   0.463   2.382   1.473  0.3677 -0.4928  0.7438
  106MOL   H10440214   0.603   2.151   0.934 -1.3339  0.9123  0.0322
  106MOL   H10540215   0.603   1.978   0.947  0.5937 -0.0206  0.9458
  106MOL   H10640216   0.619   1.997   1.205 -0.3703  0.1017 -0.9564
  106MOL   H10740217   0.626   2.183   1.378 -3.2037  0.5508  2.4054
  106MOL   H10840218   0.461   2.164   1.312 -0.7823  0.1810 -1.7135
  106MOL   H10940219   0.598   2.420   1.307 -0.6822  1.2479  0.9406
  106MOL   H11040220   0.434   2.379   1.125  0.9032 -0.5557  0.0725
  106MOL   H11140221   0.314   2.348   1.248 -0.9486 -0.2511 -3.8814
  106MOL   H11240222   0.396   2.504   1.243 -0.9542 -0.5321  0.6203
  106MOL   H11340223   0.396   2.305   1.510  1.0213 -0.8178  1.2818
  106MOL   H11440224   0.547   2.392   1.542  0.7725 -0.0325  0.1882
  106MOL   H11540225   0.404   2.473   1.473 -0.4070 -0.9114 -2.6922
  106MOL   C11640226   0.793   2.094   1.106 -0.3391  0.6145 -0.0936
  106MOL   C11740227   0.878   2.056   1.225 -0.1071 -0.9376 -0.7540
  106MOL   O11840228   0.869   1.918   1.239  0.0001  0.7275 -0.1553
  106MOL   C11940229   0.846   1.877   1.370 -0.1776 -0.2761 -0.3166
  106MOL   C12040230   0.847   1.730   1.387  0.2573 -0.7235  0.3880
  106MOL   C12140231   0.986   1.686   1.348  0.0284  0.2027 -0.2243
  106MOL   C12240232   0.806   1.697   1.534  0.0798 -0.2860  0.3396
  106MOL   H12340233   0.835   2.053   1.014 -0.2640 -1.3841  0.8069
  106MOL   H12440234   0.808   2.200   1.085  1.7385  0.1440 -1.1089
  106MOL   H12540235   0.848   2.095   1.322  1.6671  0.9938 -0.9473
  106MOL   H12640236   0.749   1.922   1.392 -0.5471 -1.3584  0.3094
  106MOL   H12740237   0.924   1.915   1.436 -0.6254  2.7629 -1.4101
  106MOL   H12840238   0.770   1.685   1.324 -0.7601  1.5175 -0.0292
  106MOL   H12940239   1.018   1.721   1.250 -1.1460  1.0525 -0.3165
  106MOL   H13040240   0.981   1.577   1.352 -3.0415  0.1934 -2.7441
  106MOL   H13140241   1.054   1.720   1.426  0.4161 -0.3150 -0.3339
  106MOL   H13240242   0.710   1.741   1.562  1.0840  1.4107  1.1717
  106MOL   H13340243   0.782   1.592   1.520 -0.6890 -0.0080 -0.4491
  106MOL   H13440244   0.875   1.696   1.618  2.0922  3.5493 -1.1435
  106MOL   C13540245   1.022   2.109   1.205  0.2542 -0.2111 -0.3859
  106MOL   C13640246   1.033   2.259   1.228 -0.0579 -0.6026 -0.2309
  106MOL   O13740247   0.988   2.308   1.353  0.2753 -0.4215 -0.6567
  106MOL   C13840248   0.921   2.434   1.341  0.3013  0.1012 -0.3026
  106MOL   C13940249   0.875   2.479   1.484 -0.2238 -0.0028 -0.1496
  106MOL   C14040250   0.816   2.367   1.579 -0.4151 -0.2358 -0.1560
  106MOL   C14140251   0.983   2.544   1.562 -0.0333 -0.4769  0.0512
  106MOL   H14240252   1.075   2.060   1.286  0.3451  1.1791  0.4106
  106MOL   H14340253   1.062   2.082   1.107 -2.7650 -0.9530 -1.4892
  106MOL   H14440254   0.994   2.325   1.149  0.1469  2.4465  2.1071
  106MOL   H14540255   0.829   2.432   1.283 -0.8117  2.0081  1.3635
  106MOL   H14640256   0.991   2.509   1.305 -0.2953  0.4201 -0.7968
  106MOL   H14740257   0.792   2.549   1.474 -1.9051 -2.0490 -1.0910
  106MOL   H14840258   0.752   2.296   1.527  1.4396 -1.9054 -0.1971
  106MOL   H14940259   0.760   2.405   1.664  2.0789  2.6504  0.2725
  106MOL   H15040260   0.902   2.308   1.610  0.8387  1.8765  0.5197
  106MOL   H15140261   0.948   2.553   1.664 -2.7666 -0.2579 -0.8650
  106MOL   H15240262   1.081   2.497   1.553  1.0305  1.6373  0.4447
  106MOL   H15340263   0.994   2.642   1.516  1.6483 -1.1166 -0.9952
  106MOL   C15440264   1.185   2.299   1.239  0.2919  0.6256  0.0339
  106MOL   C15540265   1.258   2.274   1.104 -0.2787 -0.3025  0.0101
  106MOL   O15640266   1.217   2.364   1.004  0.3869 -0.1802 -0.2655
  106MOL   C15740267   1.134   2.309   0.904  0.2369  0.6298 -0.4070
  106MOL   C15840268   1.069   2.418   0.826 -0.6286  0.2997  0.2085
  106MOL   C15940269   0.969   2.374   0.719 -0.1532 -0.1182 -0.4226
  106MOL   C16040270   1.005   2.514   0.926 -0.3340 -0.3313  0.0809
  106MOL   H16140271   1.238   2.239   1.313  0.0666  3.0193  2.2012
  106MOL   H16240272   1.204   2.402   1.269  1.0082  0.0964  1.4405
  106MOL   H16340273   1.250   2.171   1.071  0.1463 -0.6162  0.8552
  106MOL   H16440274   1.058   2.253   0.958  1.2981  1.1057  1.6162
  106MOL   H16540275   1.189   2.237   0.843  0.2346  1.8334 -1.8392
  106MOL   H16640276   1.156   2.466   0.780  0.2744 -0.8479  0.6948
  106MOL   H16740277   1.006   2.288   0.663 -1.8528 -3.4495  3.3664
  106MOL   H16840278   0.946   2.458   0.654 -1.2658  0.2523  0.4329
  106MOL   H16940279   0.879   2.342   0.771 -0.8988  0.2901 -1.4244
  106MOL   H17040280   1.069   2.577   0.987  0.4823 -1.4574  0.3965
  106MOL   H17140281   0.949   2.590   0.872 -1.5419 -0.9251  0.4739
  106MOL   H17240282   0.937   2.470   0.999 -0.4989  0.0642  0.1652
  106MOL   C17340283   1.408   2.299   1.117  0.3579 -0.0242  0.2022
  106MOL   C17440284   1.483   2.274   0.980  0.1496  0.0291 -0.5838
  106MOL   O17540285   1.617   2.322   1.004 -0.0071 -0.4618  0.0406
  106MOL   C17640286   1.645   2.450   0.948  0.3813  0.0080 -0.3299
  106MOL   C17740287   1.736   2.522   1.045 -0.3510 -0.0445 -0.0053
  106MOL   C17840288   1.692   2.542   1.190 -0.9700  0.2277  0.3827
  106MOL   C17940289   1.876   2.461   1.053 -0.2986 -0.1577 -0.7418
  106MOL   H18040290   1.428   2.404   1.142 -0.5720  0.9191 -2.7951
  106MOL   H18140291   1.461   2.231   1.184 -1.1869 -0.3482  1.1134
  106MOL   H18240292   1.430   2.325   0.900 -3.1544 -1.6543  0.4302
  106MOL   H18340293   1.557   2.514   0.942  0.1011 -0.2625  0.7972
  106MOL   H18440294   1.701   2.451   0.855  2.1325  0.7918  0.7098
  106MOL   H18540295   1.745   2.622   1.003  1.4799  1.3677  3.5233
  106MOL   H18640296   1.588   2.576   1.196 -0.8365  0.3837  2.3336
  106MOL   H18740297   1.696   2.459   1.261  1.9161  2.2073  2.6444
  106MOL   H18840298   1.739   2.628   1.238 -0.7224  1.1363 -1.4309
  106MOL   H18940299   1.917   2.433   0.956  1.7921  1.8370 -0.4973
  106MOL   H19040300   1.858   2.371   1.111  1.0263 -0.0461 -0.1277
  106MOL   H19140301   1.949   2.515   1.114 -0.1306  0.3930 -1.4252
  106MOL   C19240302   1.501   2.126   0.940  0.1288 -0.4131  0.3294
  106MOL   C19340303   1.569   2.095   0.805 -0.5169  0.2545  0.6880
  106MOL   O19440304   1.465   2.131   0.711 -0.4121 -0.3287  0.2904
  106MOL   C19540305   1.522   2.161   0.581  0.3730 -0.2559 -0.3111
  106MOL   C19640306   1.433   2.264   0.503 -0.7405  0.0235  0.6330
  106MOL   C19740307   1.479   2.257   0.359 -0.3397  0.0600 -0.0200
  106MOL   C19840308   1.455   2.408   0.568 -0.0134 -0.4186 -0.9051
  106MOL   H19940309   1.410   2.067   0.931  1.9663 -3.2403 -0.7334
  106MOL   H20040310   1.566   2.082   1.017  0.9553 -1.7721 -1.1029
  106MOL   H20140311   1.654   2.163   0.804 -0.6265  0.3770 -0.6754
  106MOL   H20240312   1.528   2.068   0.524  1.4249  0.0020 -0.6439
  106MOL   H20340313   1.627   2.192   0.580  0.0154  1.0023  0.2813
  106MOL   H20440314   1.329   2.231   0.509 -1.2819  1.8507  1.5144
  106MOL   H20540315   1.439   2.342   0.304 -0.3418  1.1534  1.6404
  106MOL   H20640316   1.587   2.271   0.354 -0.3734  0.3690  0.1182
  106MOL   H20740317   1.454   2.161   0.314  1.4425 -2.5356  4.2206
  106MOL   H20840318   1.425   2.411   0.672  0.3738  0.0764 -0.8103
  106MOL   H20940319   1.562   2.428   0.565 -0.0798  0.2146  0.8077
  106MOL   H21040320   1.391   2.481   0.518 -0.7411 -1.2488 -1.2030
  106MOL   C21140321   1.622   1.954   0.790  0.0308 -0.5236 -0.1847
  106MOL   C21240322   1.534   1.830   0.798  0.3206  0.1094 -0.0745
  106MOL   O21340323   1.472   1.813   0.930 -0.3434  0.0643  0.6998
  106MOL   C21440324   1.548   1.742   1.028 -0.2588 -0.3726  0.2634
  106MOL   C21540325   1.489   1.758   1.166  0.2384 -0.5299  0.2206
  106MOL   C21640326   1.482   1.914   1.203 -0.2571 -0.4256  0.6941
  106MOL   C21740327   1.351   1.691   1.184  0.1343  0.5382 -0.3596
  106MOL   H21840328   1.700   1.947   0.865 -1.0931 -1.7357  0.8857
  106MOL   H21940329   1.680   1.947   0.697  2.0468 -0.7925  1.0604
  106MOL   H22040330   1.597   1.743   0.778 -0.2544 -0.3761  0.1917
  106MOL   H22140331   1.655   1.763   1.020  0.6544 -4.0517  2.0591
  106MOL   H22240332   1.545   1.634   1.012  2.7396 -0.6279  1.1142
  106MOL   H22340333   1.558   1.704   1.231  2.7861  1.2977 -0.8759
  106MOL   H22440334   1.396   1.940   1.141 -1.0789 -1.7325  1.2527
  106MOL   H22540335   1.463   1.918   1.310  0.2157  0.4185  0.7524
  106MOL   H22640336   1.582   1.949   1.179 -0.8153  1.5818  1.2567
  106MOL   H22740337   1.347   1.593   1.135  0.5869  2.2609 -4.0095
  106MOL   H22840338   1.268   1.746   1.142 -0.2304 -2.0863 -3.2740
  106MOL   H22940339   1.316   1.684   1.287 -1.4380 -2.6298 -1.0541
  106MOL   C23040340   1.437   1.820   0.676 -0.7450 -0.0643 -0.5291
  106MOL   C23140341   1.332   1.710   0.681  0.5058 -0.3851  0.5704
  106MOL   O23240342   1.201   1.765   0.687  0.7574 -0.4128 -0.1656
  106MOL   C23340343   1.143   1.772   0.816 -0.5532 -0.0651  0.4962
  106MOL   C23440344   1.002   1.816   0.831  0.2518  0.1173 -0.8096
  106MOL   C23540345   0.928   1.784   0.959  0.3954 -0.3447 -0.4323
  106MOL   C23640346   0.987   1.961   0.796 -0.4296 -0.4530 -0.4369
  106MOL   H23740347   1.498   1.813   0.586 -1.3829 -1.1049 -0.8845
  106MOL   H23840348   1.396   1.921   0.672 -0.4220  0.0870 -0.0735
  106MOL   H23940349   1.350   1.662   0.778 -0.7927  0.0581  1.0512
  106MOL   H24040350   1.158   1.671   0.856 -0.5407 -0.9158 -1.5734
  106MOL   H24140351   1.194   1.840   0.884  2.6888  0.0741 -1.9603
  106MOL   H24240352   0.957   1.760   0.749 -0.2888 -1.0048  0.2377
  106MOL   H24340353   0.832   1.836   0.966  0.9687  0.7227 -0.4301
  106MOL   H24440354   0.982   1.826   1.044 -2.2359  0.1104  1.0646
  106MOL   H24540355   0.898   1.682   0.982 -2.7632  0.3297 -1.2616
  106MOL   H24640356   0.887   1.987   0.762 -0.5367 -0.6214 -0.2484
  106MOL   H24740357   1.012   2.029   0.878  0.4269 -1.6949  0.3479
  106MOL   H24840358   1.053   1.987   0.713 -0.3719  0.2008 -0.1943
  106MOL   C24940359   1.349   1.585   0.582 -0.1455  0.5497  0.2569
  106MOL   C25040360   1.479   1.510   0.619  0.5047  0.8229 -0.2909
  106MOL   O25140361   1.461   1.427   0.737  0.2853 -0.2699 -1.1441
  106MOL   C25240362   1.581   1.409   0.815 -0.2569 -0.1485  0.2124
  106MOL   C25340363   1.577   1.283   0.906  0.3904 -0.2648 -0.0957
  106MOL   C25440364   1.545   1.161   0.819  0.3735  0.1260  0.9269
  106MOL   C25540365   1.470   1.300   1.024  0.3318  0.5935 -0.5116
  106MOL   H25640366   1.353   1.617   0.478 -0.4441  0.4106  0.2003
  106MOL   H25740367   1.269   1.510   0.586  0.8222 -0.4627  0.9710
  106MOL   H25840368   1.549   1.591   0.636 -1.5574  2.6133 -0.0750
  106MOL   H25940369   1.667   1.407   0.749  1.9769 -0.5963  3.0550
  106MOL   H26040370   1.597   1.501   0.872 -0.0740  1.0292 -1.7009
  106MOL   H26140371   1.674   1.267   0.952  1.7062  0.0611 -2.6800
  106MOL   H26240372   1.609   1.140   0.733 -0.6154  1.3509 -0.1326
  106MOL   H26340373   1.444   1.168   0.776  0.6209  0.1596  0.3487
  106MOL   H26440374   1.546   1.071   0.880 -1.1063 -1.2060 -0.9227
  106MOL   H26540375   1.475   1.393   1.081  3.7937  0.7973 -1.0577
  106MOL   H26640376   1.369   1.284   0.985  0.2055  0.6170 -0.2005
  106MOL   H26740377   1.487   1.213   1.088  2.2453  0.7062 -0.8536
  106MOL   C26840378   1.523   1.421   0.506 -0.0474  0.0107  0.5945
  106MOL   C26940379   1.645   1.490   0.431 -0.3286  0.6301 -1.0218
  106MOL   O27040380   1.594   1.613   0.384 -0.3376 -0.0616 -0.0205
  106MOL   C27140381   1.699   1.716   0.362  0.0159  0.1140  0.3834
  106MOL   C27240382   1.636   1.823   0.268 -0.1113 -0.2681  0.2514
  106MOL   C27340383   1.725   1.934   0.246 -0.0562  0.1379  0.3125
  106MOL   C27440384   1.583   1.760   0.137  0.1692  0.1103 -0.3427
  106MOL   H27540385   1.445   1.397   0.434 -0.7430  1.2497  0.9040
  106MOL   H27640386   1.566   1.327   0.540 -0.6163 -1.5697 -2.9422
  106MOL   H27740387   1.729   1.514   0.496 -0.0917 -1.0826 -0.6870
  106MOL   H27840388   1.730   1.763   0.455  1.6847 -0.4790  0.1521
  106MOL   H27940389   1.789   1.675   0.316  0.9660  2.2362  0.2726
  106MOL   H28040390   1.554   1.863   0.327  1.7856  0.4378  2.4947
  106MOL   H28140391   1.770   1.957   0.343  0.4595  1.0180 -0.1339
  106MOL   H28240392   1.669   2.022   0.215 -1.8153 -0.7410  0.8760
  106MOL   H28340393   1.805   1.915   0.175 -0.3069 -0.4500  0.1743
  106MOL   H28440394   1.531   1.667   0.158 -1.7951  1.5460  1.3499
  106MOL   H28540395   1.667   1.737   0.071 -0.0228  0.5803 -0.7569
  106MOL   H28640396   1.512   1.826   0.086 -0.2125 -0.4828 -0.5772
  106MOL   C28740397   1.711   1.410   0.314 -0.0663  0.7660  0.1008
  106MOL   C28840398   1.799   1.286   0.353 -0.3196  0.0448  0.4289
  106MOL   O28940399   1.902   1.336   0.436 -0.3326 -0.2906 -0.2391
  106MOL   C29040400   1.915   1.284   0.563 -0.0704  0.0757 -0.3209
  106MOL   C29140401   2.021   1.356   0.648 -0.1464 -0.4147  0.1051
  106MOL   C29240402   1.972   1.501   0.667 -0.2109 -0.6931  0.2962
  106MOL   C29340403   2.166   1.348   0.594  0.1955  0.0718 -0.4167
  106MOL   H29440404   1.769   1.470   0.244  0.7962 -0.8186 -0.5633
  106MOL   H29540405   1.629   1.388   0.244  0.1207 -0.8261  0.3567
  106MOL   H29640406   1.740   1.208   0.401 -0.2163 -2.0220 -2.7211
  106MOL   H29740407   1.822   1.281   0.620 -0.8908  2.4898 -1.4692
  106MOL   H29840408   1.951   1.181   0.564 -1.4720 -0.4076  0.9170
  106MOL   H29940409   2.031   1.315   0.748  0.9512  0.5305  0.3862
  106MOL   H30040410   1.987   1.548   0.569 -0.2512 -4.6102 -1.6759
  106MOL   H30140411   2.034   1.558   0.736 -1.0392  0.6027 -0.0157
  106MOL   H30240412   1.870   1.508   0.706 -0.0602  0.7496  0.4596
  106MOL   H30340413   2.190   1.242   0.598 -1.6853 -0.2860  1.4624
  106MOL   H30440414   2.170   1.386   0.491 -0.3474  2.4991  0.4292
  106MOL   H30540415   2.229   1.399   0.667  0.1149 -0.4368  0.0061
  106MOL   C30640416   1.874   1.220   0.236  0.3248  0.0298 -0.5591
  106MOL   C30740417   1.984   1.111   0.264 -0.3376  0.0373  0.4781
  106MOL   O30840418   1.910   0.998   0.310 -0.8373 -0.0350 -0.3501
  106MOL   C30940419   1.978   0.907   0.398 -1.2390 -1.0029  0.1804
  106MOL   C31040420   1.868   0.832   0.465  0.8339 -0.1541  0.6822
  106MOL   C31140421   1.788   0.756   0.368  0.1609  0.8518 -0.3372
  106MOL   C31240422   1.784   0.920   0.552  1.2507  0.5808  0.3274
  106MOL   H31340423   1.919   1.312   0.198  1.7146 -1.2056 -1.9611
  106MOL   H31440424   1.793   1.195   0.167  0.5837  1.3008 -1.3480
  106MOL   H31540425   2.053   1.158   0.334 -0.0235  0.7242 -0.2885
  106MOL   H31640426   2.056   0.943   0.466  1.4328 -1.4361 -2.5250
  106MOL   H31740427   2.025   0.835   0.331  3.5773  0.7754  1.4410
  106MOL   H31840428   1.917   0.760   0.531 -1.7717  0.1873  3.0807
  106MOL   H31940429   1.702   0.694   0.394  0.7153  0.5491  0.7893
  106MOL   H32040430   1.851   0.682   0.319 -2.6863 -1.9711  0.0382
  106MOL   H32140431   1.742   0.815   0.289  0.4195 -0.0044 -1.1454
  106MOL   H32240432   1.709   0.863   0.608 -0.2995  1.3327 -0.9356
  106MOL   H32340433   1.724   0.988   0.491 -0.0307 -0.3523  0.5052
  106MOL   H32440434   1.845   0.981   0.618  0.8304  0.8177  0.5056
  106MOL   C32540435   2.059   1.070   0.136  0.5558 -0.0652  0.3915
  106MOL   C32640436   2.168   1.169   0.090  0.0615  0.2690 -0.6207
  106MOL   O32740437   2.290   1.121   0.126  0.0073 -0.2727  0.1479
  106MOL   C32840438   2.325   1.128   0.264 -0.4755  0.5470  0.2262
  106MOL   C32940439   2.482   1.116   0.265 -0.0353 -0.3711 -0.4310
  106MOL   C33040440   2.519   0.977   0.218  0.2771 -0.0972  0.1613
  106MOL   C33140441   2.555   1.229   0.187  0.3064  0.6047  0.1200
  106MOL   H33240442   1.981   1.057   0.061  0.7885  0.5651  0.0293
  106MOL   H33340443   2.101   0.971   0.151 -0.7483 -0.7921 -0.6440
  106MOL   H33440444   2.145   1.271   0.120 -3.1015 -0.0413 -1.7982
  106MOL   H33540445   2.299   1.217   0.322  0.4929  0.9246  0.1030
  106MOL   H33640446   2.282   1.048   0.323 -0.7702  1.4070  1.1936
  106MOL   H33740447   2.510   1.121   0.370  0.3405  0.4762 -0.5709
  106MOL   H33840448   2.616   0.943   0.257  0.2989  0.2435  0.4097
  106MOL   H33940449   2.440   0.906   0.242  0.6210  0.1951  2.2919
  106MOL   H34040450   2.522   0.963   0.110 -1.4561 -2.8267  0.4176
  106MOL   H34140451   2.664   1.219   0.196  0.0124 -1.2959  2.0536
  106MOL   H34240452   2.529   1.237   0.081 -0.3185  1.1864  0.3187
  106MOL   H34340453   2.534   1.318   0.246  0.3717  1.1321 -0.6421
  106MOL   C34440454   2.173   1.179   7.763 -0.5102  0.5261  1.0490
  106MOL   C34540455   2.287   1.273   7.704  0.4936  0.7942 -0.1257
  106MOL   O34640456   2.305   1.242   7.568  0.2856  0.2101  0.3003
  106MOL   C34740457   2.387   1.127   7.537 -0.4975 -0.0180  0.2752
  106MOL   C34840458   2.337   1.045   7.419 -0.4228 -0.2716  0.0260
  106MOL   C34940459   2.370   1.109   7.290  0.1482  0.2873  0.5463
  106MOL   C35040460   2.189   1.012   7.425  0.2829 -0.4903 -0.9721
  106MOL   H35140461   2.072   1.210   7.736  0.0052  2.0671  0.8656
  106MOL   H35240462   2.184   1.079   7.719 -0.9174 -0.1938  2.5329
  106MOL   H35340463   2.384   1.258   7.751  0.0706  2.2005  1.2218
  106MOL   H35440464   2.392   1.064   7.626  0.0297 -1.5354 -0.8142
  106MOL   H35540465   2.487   1.165   7.519 -0.4949 -0.1387  0.0327
  106MOL   H35640466   2.379   0.944   7.427  2.9625  1.0479 -0.2780
  106MOL   H35740467   2.356   1.046   7.202  0.4482 -1.7456  1.9175
  106MOL   H35840468   2.472   1.148   7.289 -0.6876  2.5365 -0.2967
  106MOL   H35940469   2.303   1.195   7.282 -0.1371 -0.0134 -0.3548
  106MOL   H36040470   2.172   0.950   7.513 -0.9640  1.5865  0.2934
  106MOL   H36140471   2.136   1.106   7.439  1.8245  0.0532  1.3956
  106MOL   H36240472   2.153   0.955   7.339 -1.9212 -0.0101 -0.3870
  106MOL   C36340473   2.238   1.423   7.706 -0.4045  0.6214  0.2659
  106MOL   C36440474   2.337   1.517   7.643 -0.1137 -0.6863 -0.2045
  106MOL   O36540475   2.301   1.649   7.675  0.7577  0.7341  0.0797
  106MOL   C36640476   2.372   1.751   7.602 -0.5129 -0.2196 -0.4389
  106MOL   C36740477   2.348   1.880   7.686 -0.3176 -0.3946  0.5347
  106MOL   C36840478   2.223   1.953   7.633 -0.7772  0.5213  0.0051
  106MOL   C36940479   2.465   1.985   7.703  0.1288  0.3620  0.1854
  106MOL   H37040480   2.137   1.430   7.664 -0.8128  0.6206  1.2305
  106MOL   H37140481   2.235   1.456   7.810 -1.8950 -0.8886  0.7227
  106MOL   H37240482   2.344   1.495   7.536  0.6027 -1.0457 -0.0828
  106MOL   H37340483   2.479   1.733   7.593 -0.2775  1.9532 -2.6612
  106MOL   H37440484   2.348   1.759   7.496  0.8517  1.5396 -0.6313
  106MOL   H37540485   2.322   1.837   7.782  0.8947 -0.9431  0.6124
  106MOL   H37640486   2.144   1.887   7.596 -0.9018  1.0652 -0.7100
  106MOL   H37740487   2.249   2.003   7.540 -1.8776  1.3967  0.1598
  106MOL   H37840488   2.186   2.023   7.708 -0.0460 -0.3659  1.2219
  106MOL   H37940489   2.536   1.936   7.770 -1.7123  0.5835  2.3539
  106MOL   H38040490   2.446   2.084   7.745 -2.4915 -0.5332  1.2190
  106MOL   H38140491   2.518   2.001   7.609 -1.3582 -2.0474 -1.0986
  106MOL   H38240492   2.439   1.500   7.679  0.7618  0.6394 -1.9213
  107MOL     C140493   5.257   4.135   4.685 -0.0591  0.0714 -0.7194
  107MOL     C240494   5.228   3.993   4.743 -0.0932 -0.1996 -0.0204
  107MOL     O340495   5.241   3.996   4.882 -0.0311 -0.3309 -0.1093
  107MOL     C440496   5.375   4.001   4.933  0.4587 -0.1910  0.3922
  107MOL     C540497   5.380   3.974   5.078  0.3707  0.7042  0.0896
  107MOL     C640498   5.502   4.033   5.153 -0.3398  0.6879 -1.2722
  107MOL     C740499   5.391   3.824   5.099 -0.6444  0.2654  0.0533
  107MOL     H840500   5.265   4.126   4.577  0.9842 -1.0626 -0.5696
  107MOL     H940501   5.190   4.218   4.707  1.1059  0.8254  0.0697
  107MOL    H1040502   5.314   3.933   4.713  2.0142  2.2111  0.9359
  107MOL    H1140503   5.426   4.094   4.909  0.9904 -0.8105 -0.9378
  107MOL    H1240504   5.440   3.928   4.885  0.2739 -0.0186 -0.1258
  107MOL    H1340505   5.287   4.009   5.122 -0.0099  1.4432 -1.2543
  107MOL    H1440506   5.589   3.977   5.119  0.8624  1.4140  0.5366
  107MOL    H1540507   5.508   4.133   5.110  0.6027  0.9664 -0.5141
  107MOL    H1640508   5.500   4.031   5.262 -2.4725 -2.6734 -1.3017
  107MOL    H1740509   5.381   3.817   5.207  1.0145  2.0880  0.3709
  107MOL    H1840510   5.313   3.768   5.049  0.3008 -1.4065  0.4235
  107MOL    H1940511   5.487   3.792   5.059 -0.7608  0.1214 -0.1065
  107MOL    H2040512   5.355   4.164   4.723  0.7952 -0.9318 -2.0927
  107MOL    C2140513   5.086   3.951   4.703  0.4935 -0.2497 -0.1295
  107MOL    C2240514   5.057   3.798   4.730  0.2115  0.2501 -0.2998
  107MOL    O2340515   5.166   3.718   4.691 -0.8186 -0.9772 -0.6705
  107MOL    C2440516   5.197   3.705   4.556  0.5115 -0.3628  0.0355
  107MOL    C2540517   5.323   3.615   4.520  0.4322 -0.1846 -0.8583
  107MOL    C2640518   5.454   3.653   4.590  0.0228 -0.7442 -0.1389
  107MOL    C2740519   5.270   3.470   4.539 -0.4096  0.5728 -0.1011
  107MOL    H2840520   5.008   4.010   4.751  1.1059 -0.0946  0.6853
  107MOL    H2940521   5.084   3.969   4.595  1.3209  1.7454  0.1569
  107MOL    H3040522   4.974   3.767   4.666 -3.1336  1.7052  3.1199
  107MOL    H3140523   5.212   3.809   4.526 -0.7590 -0.2197 -0.1369
  107MOL    H3240524   5.115   3.668   4.494 -0.1073 -0.8178  1.1112
  107MOL    H3340525   5.345   3.626   4.413  0.4888 -0.3180 -0.8601
  107MOL    H3440526   5.484   3.755   4.566 -0.9946  0.0958  2.0064
  107MOL    H3540527   5.533   3.580   4.571  0.1183 -0.7250  0.1905
  107MOL    H3640528   5.438   3.656   4.698  0.2757 -1.8665 -0.0652
  107MOL    H3740529   5.173   3.432   4.506 -0.0971  0.7701 -1.2694
  107MOL    H3840530   5.337   3.390   4.507  0.0795  1.2935 -0.8872
  107MOL    H3940531   5.262   3.456   4.646 -1.2400 -0.9859 -0.3531
  107MOL    C4040532   5.023   3.758   4.874 -0.0245 -0.8063  0.4820
  107MOL    C4140533   4.897   3.823   4.946 -0.5229  0.0395 -0.7923
  107MOL    O4240534   4.875   3.769   5.074  0.2957  0.4667 -0.2903
  107MOL    C4340535   4.955   3.827   5.182  0.1709  0.2184  0.1767
  107MOL    C4440536   4.964   3.732   5.297 -0.0466 -0.1016 -0.3611
  107MOL    C4540537   5.013   3.593   5.264 -0.3002 -0.2356  0.4018
  107MOL    C4640538   5.047   3.795   5.414  0.3320 -0.1929 -0.1437
  107MOL    H4740539   5.109   3.758   4.942 -1.4900  0.1561  2.3823
  107MOL    H4840540   5.003   3.651   4.868 -1.1377 -0.5191 -1.2579
  107MOL    H4940541   4.903   3.930   4.966 -0.2645 -0.2043  0.5321
  107MOL    H5040542   4.918   3.925   5.214 -1.4390  0.3558 -1.9539
  107MOL    H5140543   5.055   3.847   5.144 -0.9688  0.3222 -2.9409
  107MOL    H5240544   4.865   3.728   5.343  0.7783  0.9231  1.5776
  107MOL    H5340545   5.116   3.590   5.227 -0.7977 -2.6266 -0.9170
  107MOL    H5440546   5.014   3.523   5.348  0.8399  0.9101  1.3589
  107MOL    H5540547   4.952   3.542   5.190  2.0516 -1.5166 -0.6997
  107MOL    H5640548   5.005   3.890   5.447 -2.2222 -1.3037 -0.0772
  107MOL    H5740549   5.148   3.819   5.381  0.3443  1.7633  1.2131
  107MOL    H5840550   5.065   3.725   5.496 -2.0537 -0.7470 -0.0767
  107MOL    C5940551   4.762   3.798   4.860  0.1526  0.1621 -0.2839
  107MOL    C6040552   4.638   3.876   4.908  0.1600  0.3061  0.2272
  107MOL    O6140553   4.518   3.824   4.856  1.0425 -0.1533 -0.3352
  107MOL    C6240554   4.477   3.697   4.912 -0.5373  0.2875 -0.0318
  107MOL    C6340555   4.354   3.627   4.843 -0.0882  0.2969  0.0722
  107MOL    C6440556   4.316   3.495   4.918  0.2113  0.5209  0.1238
  107MOL    C6540557   4.230   3.717   4.838 -0.1374  0.8213  0.1693
  107MOL    H6640558   4.751   3.692   4.841 -0.0529  0.2607 -0.7182
  107MOL    H6740559   4.797   3.842   4.766  0.4792 -0.4543 -0.4561
  107MOL    H6840560   4.635   3.866   5.017  2.6678  0.9951  0.3862
  107MOL    H6940561   4.560   3.626   4.904 -1.1310 -0.4214  0.0912
  107MOL    H7040562   4.458   3.717   5.017 -0.1262  2.7890 -0.3834
  107MOL    H7140563   4.379   3.608   4.738  0.5387  2.1363 -0.1267
  107MOL    H7240564   4.401   3.430   4.893  0.6240  1.3208 -0.5681
  107MOL    H7340565   4.223   3.449   4.885  0.5523  1.3451 -2.0057
  107MOL    H7440566   4.326   3.505   5.026  1.2130  2.0318 -0.0965
  107MOL    H7540567   4.145   3.676   4.784  1.7753 -0.9761 -1.5772
  107MOL    H7640568   4.206   3.734   4.943 -1.7446  0.3652 -0.1178
  107MOL    H7740569   4.253   3.808   4.783  0.2803  0.7289  0.1882
  107MOL    C7840570   4.634   4.029   4.873 -0.5839  0.2075  0.4171
  107MOL    C7940571   4.519   4.125   4.920 -0.1871  0.2903 -0.0363
  107MOL    O8040572   4.529   4.134   5.065  0.2427 -0.2068  0.3833
  107MOL    C8140573   4.402   4.096   5.124  0.2403 -0.1791 -0.0974
  107MOL    C8240574   4.400   4.135   5.273 -0.5167  0.2581 -0.8811
  107MOL    C8340575   4.269   4.118   5.353 -0.1256 -0.2629  0.0859
  107MOL    C8440576   4.438   4.276   5.293  0.4245  0.7111  0.7115
  107MOL    H8540577   4.636   4.029   4.764 -1.0717 -0.4731  0.4065
  107MOL    H8640578   4.730   4.079   4.886  0.3402 -1.2789 -0.4498
  107MOL    H8740579   4.423   4.091   4.883  0.7753 -2.2029 -0.3223
  107MOL    H8840580   4.319   4.160   5.093 -0.2447 -0.7492  0.0250
  107MOL    H8940581   4.378   3.992   5.102  0.8385 -0.2899 -0.2229
  107MOL    H9040582   4.474   4.078   5.329 -0.6341  1.7949  0.8826
  107MOL    H9140583   4.235   4.014   5.353  0.0088 -0.3145  1.5041
  107MOL    H9240584   4.190   4.182   5.313 -2.1477 -1.6988  1.6787
  107MOL    H9340585   4.282   4.137   5.460 -0.6200  2.3066 -0.2771
  107MOL    H9440586   4.537   4.298   5.253 -0.0454  0.2390 -0.7452
  107MOL    H9540587   4.447   4.316   5.394 -0.4685  1.0043  0.6826
  107MOL    H9640588   4.371   4.341   5.237  0.3708  0.2326  0.2155
  107MOL    C9740589   4.538   4.268   4.873 -0.5639 -0.1970 -0.4804
  107MOL    C9840590   4.415   4.351   4.892 -0.1035  0.7573 -0.6791
  107MOL    O9940591   4.317   4.297   4.808  0.3630  0.2982 -0.3737
  107MOL   C10040592   4.189   4.351   4.835 -0.0348  0.3361 -0.2411
  107MOL   C10140593   4.074   4.280   4.751  0.0013  0.1570 -0.0815
  107MOL   C10240594   4.092   4.293   4.599 -0.1421 -0.5879 -0.0549
  107MOL   C10340595   4.059   4.132   4.794 -0.1389  0.4312 -0.8419
  107MOL   H10440596   4.576   4.260   4.771  0.7756 -1.5412  0.0875
  107MOL   H10540597   4.624   4.312   4.925 -0.2785 -2.1673  0.7562
  107MOL   H10640598   4.383   4.350   4.997  2.1521  2.4030  0.0511
  107MOL   H10740599   4.179   4.458   4.820  0.3893  0.2104 -1.4662
  107MOL   H10840600   4.166   4.329   4.940  0.1866 -2.3978 -0.7143
  107MOL   H10940601   3.978   4.329   4.772 -0.4319 -0.5480 -0.4165
  107MOL   H11040602   3.997   4.277   4.548  0.7885  0.0968 -2.0516
  107MOL   H11140603   4.124   4.396   4.580 -3.6879  0.6669  0.3426
  107MOL   H11240604   4.163   4.218   4.565  1.1447  1.1140 -1.1832
  107MOL   H11340605   4.013   4.131   4.893 -0.5303 -0.5079 -1.0217
  107MOL   H11440606   3.989   4.090   4.721  0.6879  0.9129 -1.9129
  107MOL   H11540607   4.151   4.074   4.797 -1.1339 -1.1824 -0.7009
  107MOL   C11640608   4.450   4.497   4.863  0.1978  0.1211  0.3889
  107MOL   C11740609   4.463   4.586   4.991 -0.0587 -0.3065  0.5363
  107MOL   O11840610   4.345   4.566   5.066  0.4159  0.4604 -0.4196
  107MOL   C11940611   4.248   4.661   5.036  0.4103 -0.6492  0.4151
  107MOL   C12040612   4.122   4.668   5.129  0.4034  0.1653  0.5459
  107MOL   C12140613   4.018   4.772   5.085  0.8619  0.3879 -0.2552
  107MOL   C12240614   4.054   4.533   5.140 -0.8287  0.1788 -0.7879
  107MOL   H12340615   4.540   4.509   4.803 -1.6882 -1.5983 -2.9206
  107MOL   H12440616   4.373   4.523   4.791 -1.1787 -0.7881  1.4849
  107MOL   H12540617   4.483   4.691   4.973 -0.6731 -0.2207  0.3549
  107MOL   H12640618   4.219   4.630   4.935 -0.3173 -0.3382  0.5236
  107MOL   H12740619   4.281   4.762   5.016 -2.0110  0.7223  2.9739
  107MOL   H12840620   4.169   4.703   5.221 -1.4243  0.3239  1.4303
  107MOL   H12940621   4.066   4.866   5.057 -3.7452  2.8959 -0.2200
  107MOL   H13040622   3.952   4.777   5.172 -0.0399 -1.7281 -0.7890
  107MOL   H13140623   3.963   4.750   4.994  0.2276  1.4189 -0.1300
  107MOL   H13240624   4.024   4.498   5.041 -1.4697 -3.0707  0.5213
  107MOL   H13340625   4.122   4.463   5.188 -1.1575  1.4117  1.5033
  107MOL   H13440626   3.965   4.540   5.202 -0.1836 -2.3666  0.4645
  107MOL   C13540627   4.585   4.550   5.076  0.0069  0.1823 -0.1639
  107MOL   C13640628   4.619   4.646   5.191  0.1190 -0.3826 -0.3794
  107MOL   O13740629   4.545   4.618   5.313  0.0488  0.7399  0.2467
  107MOL   C13840630   4.455   4.723   5.355  0.4981  0.5494 -0.0551
  107MOL   C13940631   4.388   4.666   5.479  0.1282 -0.0881 -0.2035
  107MOL   C14040632   4.483   4.614   5.586 -0.1863 -0.0142  0.3445
  107MOL   C14140633   4.288   4.768   5.533 -0.7195  0.0894  0.4215
  107MOL   H14240634   4.555   4.457   5.125  1.8233 -0.5692 -0.4082
  107MOL   H14340635   4.675   4.520   5.022  0.2185  0.8402 -0.1813
  107MOL   H14440636   4.593   4.746   5.156 -1.9784 -0.7953 -0.0070
  107MOL   H14540637   4.387   4.747   5.273  0.9729  0.8824 -0.3532
  107MOL   H14640638   4.513   4.813   5.376 -2.1325  2.0159  1.0730
  107MOL   H14740639   4.324   4.585   5.444 -3.5335  1.9601  1.4851
  107MOL   H14840640   4.553   4.692   5.615 -0.0169 -0.0383  0.0107
  107MOL   H14940641   4.522   4.523   5.540 -1.7722  0.2152 -1.5865
  107MOL   H15040642   4.432   4.577   5.675 -1.2388 -0.7811 -0.5456
  107MOL   H15140643   4.331   4.868   5.540  0.9245 -0.7108  2.1297
  107MOL   H15240644   4.210   4.771   5.456  1.0437  0.1131 -1.4149
  107MOL   H15340645   4.245   4.739   5.629 -1.0626 -2.1594 -0.3711
  107MOL   C15440646   4.773   4.649   5.221 -0.0238 -0.2892 -0.0835
  107MOL   C15540647   4.852   4.738   5.120 -0.1136 -0.9855 -0.0222
  107MOL   O15640648   4.834   4.878   5.161 -0.1899 -0.4099  0.1856
  107MOL   C15740649   4.750   4.947   5.066  0.3256  0.2259  0.3891
  107MOL   C15840650   4.711   5.085   5.126  0.6671 -0.8134  0.0580
  107MOL   C15940651   4.807   5.198   5.079  0.7634  0.0541 -0.1812
  107MOL   C16040652   4.564   5.129   5.090  0.2815 -0.7807  0.0520
  107MOL   H16140653   4.818   4.550   5.225  0.2105 -0.1393  1.3096
  107MOL   H16240654   4.789   4.690   5.321  2.3568 -2.9081  0.6590
  107MOL   H16340655   4.814   4.718   5.019 -1.5322 -0.1298  0.3233
  107MOL   H16440656   4.655   4.899   5.042  0.2402 -0.1072  1.3930
  107MOL   H16540657   4.796   4.960   4.968 -0.8381 -2.6933 -0.6154
  107MOL   H16640658   4.727   5.074   5.233 -1.3049 -1.6161  0.2878
  107MOL   H16740659   4.797   5.201   4.971 -0.0671 -0.3922 -0.1183
  107MOL   H16840660   4.912   5.189   5.107  0.7854  0.3666 -0.1618
  107MOL   H16940661   4.764   5.294   5.107  0.7166  1.2256 -4.0976
  107MOL   H17040662   4.554   5.140   4.982 -1.8197  1.5456  0.4159
  107MOL   H17140663   4.491   5.056   5.124 -0.3741 -1.2930 -2.4318
  107MOL   H17240664   4.529   5.221   5.139  0.5760  0.2192 -1.5883
  107MOL   C17340665   4.999   4.709   5.138  0.3874 -0.5019  0.2173
  107MOL   C17440666   5.086   4.796   5.057  0.0322  0.5109 -0.1146
  107MOL   O17540667   5.225   4.808   5.100 -0.2750  0.3095  0.1604
  107MOL   C17640668   5.249   4.900   5.206 -0.4155 -0.7500  0.3105
  107MOL   C17740669   5.390   4.890   5.262 -0.6745  0.0396 -0.3405
  107MOL   C17840670   5.426   4.764   5.331 -0.3765  0.1148  0.2114
  107MOL   C17940671   5.491   4.922   5.153  0.3688  0.5218  0.2805
  107MOL   H18040672   5.026   4.716   5.243  1.4874 -1.9321  0.0372
  107MOL   H18140673   5.028   4.608   5.109  0.5341 -0.6526  0.8920
  107MOL   H18240674   5.044   4.897   5.060 -0.9538  0.0938  0.2832
  107MOL   H18340675   5.182   4.893   5.292  0.5923 -1.9030  1.0058
  107MOL   H18440676   5.240   4.999   5.163 -2.0867 -0.3496  1.5195
  107MOL   H18540677   5.390   4.963   5.343 -0.0631 -0.4838  0.1365
  107MOL   H18640678   5.337   4.716   5.373  0.5875 -2.2656 -0.3978
  107MOL   H18740679   5.454   4.688   5.258 -1.4219 -0.5482  0.4858
  107MOL   H18840680   5.509   4.782   5.399  0.6539 -1.1971 -0.6652
  107MOL   H18940681   5.482   5.022   5.111  1.0933  0.4329 -0.0900
  107MOL   H19040682   5.481   4.860   5.065  1.1830 -0.0928  0.6208
  107MOL   H19140683   5.592   4.921   5.194 -0.0777 -0.8665  1.3855
  107MOL   C19240684   5.084   4.775   4.907  0.4618  0.4380 -0.1731
  107MOL   C19340685   5.105   4.630   4.853  0.4221 -0.4232  0.2638
  107MOL   O19440686   5.207   4.624   4.751  0.4050 -0.1556  0.4050
  107MOL   C19540687   5.332   4.624   4.804 -0.0729  0.4478  0.2824
  107MOL   C19640688   5.441   4.623   4.700 -0.4903 -0.0288 -0.7222
  107MOL   C19740689   5.451   4.488   4.626  0.4776  0.1493 -0.2700
  107MOL   C19840690   5.577   4.657   4.765 -0.4899  0.7266  0.1503
  107MOL   H19940691   5.162   4.833   4.858  1.0369 -0.1069  0.0928
  107MOL   H20040692   4.989   4.812   4.868 -0.6662 -1.7938  0.3855
  107MOL   H20140693   5.145   4.570   4.935  0.5411  0.4084  0.8244
  107MOL   H20240694   5.350   4.546   4.878 -1.1771  0.7855  0.9251
  107MOL   H20340695   5.344   4.721   4.852 -1.6539  0.6069  0.3874
  107MOL   H20440696   5.418   4.710   4.638  0.2934 -0.0141 -1.0080
  107MOL   H20540697   5.356   4.479   4.574  1.4962 -0.7636 -2.0135
  107MOL   H20640698   5.536   4.474   4.559  0.1153  1.2271 -0.9614
  107MOL   H20740699   5.455   4.398   4.688  1.2314  0.1793 -0.2665
  107MOL   H20840700   5.650   4.699   4.696 -0.0447  2.5517  1.6809
  107MOL   H20940701   5.571   4.733   4.844 -0.3816 -0.5613  1.4199
  107MOL   H21040702   5.624   4.571   4.812 -0.9929 -1.7255 -3.6852
  107MOL   C21140703   4.976   4.562   4.795 -0.6827 -0.2671 -0.1066
  107MOL   C21240704   4.984   4.407   4.800 -0.9556 -0.3950  0.3764
  107MOL   O21340705   4.974   4.380   4.938  0.0067 -0.7183  0.5697
  107MOL   C21440706   5.035   4.254   4.985 -0.4591 -0.2304 -0.0338
  107MOL   C21540707   5.014   4.228   5.132 -0.1561 -0.5279 -0.2648
  107MOL   C21640708   5.098   4.324   5.220  0.0988 -0.1942 -0.0504
  107MOL   C21740709   4.869   4.210   5.178  0.0147 -0.1732 -0.0058
  107MOL   H21840710   4.968   4.599   4.693 -2.1902  2.4007  0.9439
  107MOL   H21940711   4.886   4.598   4.843 -0.6060 -0.6611  0.3327
  107MOL   H22040712   5.077   4.376   4.751 -0.7898  0.5551  0.0753
  107MOL   H22140713   5.139   4.263   4.955 -0.7898 -1.5506 -1.6556
  107MOL   H22240714   4.996   4.175   4.921  2.0363  0.6293 -2.7728
  107MOL   H22340715   5.051   4.127   5.147  2.2687  0.2229 -1.0641
  107MOL   H22440716   5.056   4.425   5.211 -0.0462 -0.3685 -1.4284
  107MOL   H22540717   5.110   4.308   5.327  0.7179  0.3094 -0.0438
  107MOL   H22640718   5.194   4.335   5.169  0.1561  3.2630  0.6434
  107MOL   H22740719   4.811   4.151   5.108 -1.0480 -2.4728  2.7417
  107MOL   H22840720   4.815   4.303   5.195 -1.0795 -0.9140  0.6229
  107MOL   H22940721   4.880   4.157   5.272  0.1894 -1.4534 -0.7390
  107MOL   C23040722   4.857   4.348   4.727  0.0102 -0.1673  0.0889
  107MOL   C23140723   4.876   4.314   4.576  0.1082 -0.7669 -0.6399
  107MOL   O23240724   4.748   4.290   4.524  0.6310 -0.0904 -0.3699
  107MOL   C23340725   4.725   4.169   4.457  0.1271 -0.2989 -0.1629
  107MOL   C23440726   4.582   4.173   4.394 -0.1031 -0.0685 -0.2400
  107MOL   C23540727   4.487   4.193   4.506 -0.6453  0.0163 -0.3768
  107MOL   C23640728   4.583   4.275   4.273  0.2118  0.1234 -0.1377
  107MOL   H23740729   4.777   4.420   4.742  3.2732  3.4598  0.8434
  107MOL   H23840730   4.827   4.257   4.779 -0.6474 -0.4681 -0.8131
  107MOL   H23940731   4.936   4.223   4.576  0.2022 -0.7071  0.2963
  107MOL   H24040732   4.805   4.152   4.385  0.9500  1.4619  0.3197
  107MOL   H24140733   4.735   4.082   4.523  1.4040  0.2308  0.3730
  107MOL   H24240734   4.562   4.078   4.345 -0.4535 -0.4330  0.5995
  107MOL   H24340735   4.493   4.287   4.562  1.8263 -0.9280  0.9820
  107MOL   H24440736   4.494   4.114   4.581  0.3956  0.4958  0.0425
  107MOL   H24540737   4.390   4.188   4.455 -0.8406  0.7214 -0.0864
  107MOL   H24640738   4.591   4.381   4.297 -1.7256 -0.1165  1.6775
  107MOL   H24740739   4.668   4.263   4.205 -0.6803  0.2971 -1.3056
  107MOL   H24840740   4.500   4.270   4.203  0.5838  1.1133 -0.6701
  107MOL   C24940741   4.935   4.429   4.491  0.0263  0.9162 -0.3403
  107MOL   C25040742   4.945   4.402   4.340  0.2860  0.6511  0.2969
  107MOL   O25140743   4.977   4.514   4.256  0.2024  0.1041  0.1207
  107MOL   C25240744   4.866   4.575   4.192 -0.0289 -0.4293  0.5385
  107MOL   C25340745   4.908   4.722   4.163  0.0228  0.4846  0.4818
  107MOL   C25440746   5.020   4.732   4.054  0.3384  0.0103 -0.1500
  107MOL   C25540747   4.953   4.802   4.285 -0.3569  0.0140 -0.0909
  107MOL   H25640748   5.035   4.460   4.521  0.2261 -1.1524  1.2720
  107MOL   H25740749   4.864   4.511   4.492 -4.3618 -2.6557  1.0522
  107MOL   H25840750   4.856   4.348   4.309  0.0892  2.1928 -1.9437
  107MOL   H25940751   4.839   4.523   4.100  0.7093  0.5457 -0.2580
  107MOL   H26040752   4.772   4.582   4.246  1.0651 -1.2317  2.6099
  107MOL   H26140753   4.815   4.772   4.137 -0.3439 -1.2233 -1.5941
  107MOL   H26240754   5.000   4.662   3.973 -0.5133  0.8484 -0.6733
  107MOL   H26340755   5.117   4.700   4.092  0.2685  0.1396  0.1421
  107MOL   H26440756   5.038   4.832   4.015  0.1941 -0.0623 -0.4025
  107MOL   H26540757   4.960   4.908   4.262  1.0122 -0.2901 -1.1106
  107MOL   H26640758   4.892   4.793   4.375  0.5796  2.0779  0.7593
  107MOL   H26740759   5.054   4.769   4.309 -0.0311  0.2671 -1.0915
  107MOL   C26840760   5.069   4.312   4.323  0.0450  1.1935  0.6664
  107MOL   C26940761   5.055   4.218   4.194 -0.3307 -0.1937 -0.9059
  107MOL   O27040762   5.004   4.086   4.236 -0.0257  0.4268  0.5259
  107MOL   C27140763   4.950   4.007   4.123 -0.0062 -0.5441  0.4901
  107MOL   C27240764   4.890   3.875   4.174  0.4093 -0.4465 -0.5001
  107MOL   C27340765   4.824   3.784   4.073  0.1509  0.6143  0.2806
  107MOL   C27440766   4.985   3.804   4.274 -0.1427  0.5520  0.1266
  107MOL   H27540767   5.085   4.246   4.409 -2.7067  2.5686  2.2862
  107MOL   H27640768   5.159   4.372   4.314 -0.6552  1.8827 -1.9408
  107MOL   H27740769   4.993   4.265   4.117 -0.4254  1.4506  0.1535
  107MOL   H27840770   4.872   4.059   4.068  2.1265  0.2975 -1.7871
  107MOL   H27940771   5.025   3.976   4.051 -1.2981 -1.3377 -0.5416
  107MOL   H28040772   4.811   3.918   4.235  0.0370  1.1179 -2.0587
  107MOL   H28140773   4.746   3.827   4.010 -0.5127 -0.5058  0.3166
  107MOL   H28240774   4.784   3.697   4.124  0.4513  0.7421  0.7399
  107MOL   H28340775   4.894   3.757   3.993 -1.2195  0.7790 -0.9950
  107MOL   H28440776   4.982   3.695   4.273  0.4710  0.5300  0.1246
  107MOL   H28540777   4.963   3.838   4.375 -1.9467 -0.4227  0.0667
  107MOL   H28640778   5.082   3.834   4.234  0.1399 -0.6110 -0.0627
  107MOL   C28740779   5.188   4.192   4.128 -0.1143  0.6230 -0.6118
  107MOL   C28840780   5.223   4.300   4.023  0.6738 -0.3250 -0.1381
  107MOL   O28940781   5.134   4.270   3.917 -0.4279 -0.5773 -0.3032
  107MOL   C29040782   5.051   4.377   3.874  0.3381 -0.0604  0.4336
  107MOL   C29140783   4.976   4.330   3.748  0.2171 -0.4456 -0.0508
  107MOL   C29240784   5.073   4.323   3.633  0.4700  0.0803  0.0603
  107MOL   C29340785   4.862   4.429   3.720 -0.1776 -0.4544 -0.4908
  107MOL   H29440786   5.203   4.088   4.100 -1.2171 -0.1439  1.5881
  107MOL   H29540787   5.264   4.197   4.205  0.4733 -1.0959 -1.0610
  107MOL   H29640788   5.213   4.400   4.064  2.2051  0.1813 -0.9544
  107MOL   H29740789   4.984   4.420   3.948  0.3523  1.7443 -0.5904
  107MOL   H29840790   5.114   4.462   3.849  0.2048 -0.6077 -1.8859
  107MOL   H29940791   4.945   4.226   3.757 -1.8810 -0.0360 -1.9620
  107MOL   H30040792   5.148   4.246   3.647  1.8542  0.9677 -2.1747
  107MOL   H30140793   5.124   4.417   3.615 -0.5547  0.5670 -0.3780
  107MOL   H30240794   5.022   4.287   3.543 -1.0884  0.3222  0.8219
  107MOL   H30340795   4.900   4.522   3.677  1.8926 -1.0627 -0.0109
  107MOL   H30440796   4.780   4.395   3.656  0.3884 -2.2545 -0.2770
  107MOL   H30540797   4.810   4.461   3.810 -0.9198 -0.5644 -0.8736
  107MOL   C30640798   5.370   4.289   3.967 -0.2760  1.1037 -0.4696
  107MOL   C30740799   5.484   4.330   4.069  0.8613  0.4584 -0.3636
  107MOL   O30840800   5.531   4.197   4.110 -0.4582  0.3009 -0.0293
  107MOL   C30940801   5.548   4.196   4.254  0.0837 -0.1552  0.1672
  107MOL   C31040802   5.582   4.051   4.305  0.2688  0.4720  0.3808
  107MOL   C31140803   5.711   3.998   4.234 -0.0504 -0.5148 -0.2276
  107MOL   C31240804   5.462   3.960   4.271  0.1214 -0.7556  0.5577
  107MOL   H31340805   5.375   4.359   3.885 -0.1820  2.7188  0.8966
  107MOL   H31440806   5.390   4.189   3.928  0.6241  1.0436  0.1179
  107MOL   H31540807   5.443   4.395   4.146 -0.0977  1.0194 -1.3424
  107MOL   H31640808   5.472   4.240   4.318  1.1736  1.7162  0.2013
  107MOL   H31740809   5.627   4.265   4.285 -0.8604  0.8825  0.2748
  107MOL   H31840810   5.600   4.032   4.411  0.2028 -0.7343  0.1876
  107MOL   H31940811   5.699   3.986   4.127 -0.8964 -0.8118 -0.1017
  107MOL   H32040812   5.750   3.898   4.256  1.3271 -0.4906 -2.3727
  107MOL   H32140813   5.786   4.075   4.252  1.2772 -2.2654  2.0996
  107MOL   H32240814   5.425   3.972   4.170 -1.4046  0.8674  1.2782
  107MOL   H32340815   5.378   3.976   4.339  0.2993 -1.8869  1.0510
  107MOL   H32440816   5.496   3.856   4.277 -2.9438 -1.8524 -0.2587
  107MOL   C32540817   5.600   4.406   4.008 -0.3162  0.1234 -0.1381
  107MOL   C32640818   5.582   4.558   3.990 -0.0199  0.1899 -0.5842
  107MOL   O32740819   5.550   4.610   4.123  0.0220  0.0120 -0.0765
  107MOL   C32840820   5.475   4.731   4.110  0.1885  0.5406  0.2707
  107MOL   C32940821   5.429   4.780   4.249  0.6505 -0.2870  0.0421
  107MOL   C33040822   5.355   4.916   4.262 -0.6942  0.0070  0.1004
  107MOL   C33140823   5.355   4.673   4.320 -0.4002  0.5653  0.4146
  107MOL   H33240824   5.635   4.360   3.915  0.2448 -0.6854  0.4546
  107MOL   H33340825   5.679   4.382   4.080  0.4404  1.0268 -0.6646
  107MOL   H33440826   5.496   4.572   3.924 -1.6102  1.2636  1.6478
  107MOL   H33540827   5.522   4.816   4.060 -1.2619 -0.0649 -2.2479
  107MOL   H33640828   5.381   4.720   4.055  1.1693  1.7247 -1.6911
  107MOL   H33740829   5.509   4.797   4.321 -1.0966  0.9389  1.7366
  107MOL   H33840830   5.350   4.943   4.368  1.8005 -1.9129  0.7494
  107MOL   H33940831   5.400   4.994   4.202 -0.6454 -0.2197 -0.1599
  107MOL   H34040832   5.253   4.908   4.225 -0.7991  1.3140  0.0826
  107MOL   H34140833   5.403   4.576   4.327 -0.7563  0.3241 -0.4825
  107MOL   H34240834   5.328   4.703   4.421  0.2368 -0.6559  0.9462
  107MOL   H34340835   5.257   4.657   4.276  0.7402  1.5211 -2.6060
  107MOL   C34440836   5.706   4.627   3.926 -0.0568 -0.2586 -0.0662
  107MOL   C34540837   5.712   4.630   3.774 -0.1053 -0.1507 -0.0942
  107MOL   O34640838   5.600   4.707   3.724 -0.2896  0.0392 -0.3831
  107MOL   C34740839   5.523   4.629   3.633 -0.3416 -0.2815  0.1342
  107MOL   C34840840   5.442   4.732   3.551 -0.4939  0.6949  0.1643
  107MOL   C34940841   5.524   4.812   3.458  0.2247 -0.0429 -0.6452
  107MOL   C35040842   5.347   4.819   3.633 -0.5328  0.0932  0.6845
  107MOL   H35140843   5.799   4.599   3.977 -0.2906  0.5798  0.8532
  107MOL   H35240844   5.707   4.734   3.946 -0.0961 -0.6572  2.2204
  107MOL   H35340845   5.704   4.524   3.748 -0.2625  0.4527 -2.7374
  107MOL   H35440846   5.459   4.565   3.694 -2.5381 -1.4696 -3.2733
  107MOL   H35540847   5.574   4.558   3.569 -1.1064 -1.2906  0.6203
  107MOL   H35640848   5.371   4.669   3.497  0.1690 -0.0982  0.2080
  107MOL   H35740849   5.488   4.804   3.356  0.2581 -0.9350 -0.5861
  107MOL   H35840850   5.629   4.782   3.462  0.2610  0.0801 -0.6606
  107MOL   H35940851   5.520   4.918   3.487 -0.6850 -0.2130 -0.1353
  107MOL   H36040852   5.283   4.876   3.565 -2.8024 -2.9078  0.2372
  107MOL   H36140853   5.290   4.766   3.709 -1.3678 -0.0282 -0.0144
  107MOL   H36240854   5.411   4.889   3.687 -0.1085  0.0718  0.2153
  107MOL   C36340855   5.848   4.684   3.717 -0.0771  0.2274  0.4705
  107MOL   C36440856   5.964   4.589   3.708 -0.3866 -0.0998 -0.2417
  107MOL   O36540857   6.063   4.647   3.625 -0.8160 -0.2125 -0.4737
  107MOL   C36640858   6.185   4.573   3.624  0.5287  0.2692  0.2096
  107MOL   C36740859   6.292   4.646   3.547  0.2955 -0.5091  0.0245
  107MOL   C36840860   6.392   4.547   3.479  0.2895 -0.1054 -0.3667
  107MOL   C36940861   6.371   4.726   3.648 -0.2018 -0.0604 -0.7838
  107MOL   H37040862   5.823   4.694   3.612 -0.2136 -2.8740  0.1567
  107MOL   H37140863   5.882   4.780   3.755  0.2443  1.0661 -1.8662
  107MOL   H37240864   5.931   4.499   3.656  0.8963 -1.5410  1.4087
  107MOL   H37340865   6.216   4.560   3.728  0.7855 -0.6810  0.0219
  107MOL   H37440866   6.173   4.481   3.568 -0.0481  1.7009 -2.0810
  107MOL   H37540867   6.246   4.716   3.477  1.3554  1.1350  0.9546
  107MOL   H37640868   6.352   4.512   3.384  4.6379 -1.0533 -1.9383
  107MOL   H37740869   6.413   4.464   3.546  0.9037  0.0838 -0.3199
  107MOL   H37840870   6.481   4.596   3.440 -0.8024  1.8903 -0.4100
  107MOL   H37940871   6.437   4.655   3.699  0.5166  0.9172 -0.3205
  107MOL   H38040872   6.300   4.772   3.717  0.2804  3.4849 -2.5218
  107MOL   H38140873   6.430   4.807   3.604  1.6976 -1.4597 -0.8744
  107MOL   H38240874   5.998   4.564   3.808 -0.7683  3.0762  0.7353
  108MOL     C140875   5.698   6.571   5.613 -0.2317 -0.2732  0.4053
  108MOL     C240876   5.709   6.424   5.652  0.8754 -0.0803 -0.2981
  108MOL     O340877   5.589   6.359   5.604 -0.4420  0.1342 -0.0351
  108MOL     C440878   5.477   6.352   5.693  0.1112 -0.2921 -0.0267
  108MOL     C540879   5.339   6.313   5.631  0.1911 -0.0140  0.0781
  108MOL     C640880   5.208   6.354   5.699  0.2140 -0.1319 -0.0699
  108MOL     C740881   5.337   6.159   5.612  0.2046 -0.8033 -0.3749
  108MOL     H840882   5.616   6.613   5.671  1.1281  1.8497  0.8360
  108MOL     H940883   5.780   6.631   5.651 -0.8716  1.3245 -0.6552
  108MOL    H1040884   5.706   6.420   5.761 -0.1938 -1.9382 -0.3742
  108MOL    H1140885   5.458   6.454   5.727 -0.5894 -0.6066  0.5333
  108MOL    H1240886   5.500   6.285   5.775  0.4158  0.5599  0.5857
  108MOL    H1340887   5.338   6.348   5.527 -4.1500 -0.2377 -0.0561
  108MOL    H1440888   5.211   6.335   5.806  2.8687 -0.0283 -0.0724
  108MOL    H1540889   5.188   6.461   5.690  0.0563  0.2047  3.7783
  108MOL    H1640890   5.122   6.319   5.642 -0.4133  1.6004 -0.2418
  108MOL    H1740891   5.334   6.105   5.706 -0.8903 -1.7566 -0.9567
  108MOL    H1840892   5.251   6.131   5.551 -0.2543 -0.0598 -0.0829
  108MOL    H1940893   5.431   6.135   5.562 -0.4928  0.2456 -2.2334
  108MOL    H2040894   5.694   6.600   5.508 -2.2059  3.1317  1.3410
  108MOL    C2140895   5.835   6.363   5.597 -0.0765  0.3288  0.0373
  108MOL    C2240896   5.850   6.216   5.633  0.0751 -0.1638  0.4352
  108MOL    O2340897   5.930   6.145   5.542 -0.1605 -0.3677 -0.0353
  108MOL    C2440898   5.880   6.089   5.426 -0.0768 -0.4410 -1.2231
  108MOL    C2540899   5.977   6.084   5.310 -0.5944 -0.4233  0.0012
  108MOL    C2640900   6.026   6.229   5.286  0.2712  0.4075 -0.3382
  108MOL    C2740901   6.085   5.974   5.323  0.6682  0.1594  0.3467
  108MOL    H2840902   5.826   6.364   5.488 -2.9893 -1.0444  0.2011
  108MOL    H2940903   5.917   6.427   5.629  0.9104  0.3834 -2.4396
  108MOL    H3040904   5.749   6.178   5.625  1.1551 -3.5188  1.9510
  108MOL    H3140905   5.791   6.148   5.405 -0.4089 -0.1942  0.7171
  108MOL    H3240906   5.842   5.988   5.444 -1.0835  0.3046  1.1613
  108MOL    H3340907   5.916   6.064   5.222 -0.9681  1.6297 -0.2142
  108MOL    H3440908   5.955   6.304   5.252 -1.3333 -1.9287 -2.2905
  108MOL    H3540909   6.115   6.236   5.224  0.3590 -1.0922 -0.4096
  108MOL    H3640910   6.066   6.270   5.379  0.3785  1.9056 -1.0282
  108MOL    H3740911   6.139   5.957   5.230 -1.0710 -0.8796 -0.4935
  108MOL    H3840912   6.161   6.007   5.394 -0.3825  1.1685  1.0143
  108MOL    H3940913   6.037   5.880   5.352  2.1652 -0.8069 -0.2465
  108MOL    C4040914   5.907   6.198   5.777 -0.5559 -0.0265 -0.6879
  108MOL    C4140915   5.904   6.055   5.828 -0.4511 -0.2847 -0.2460
  108MOL    O4240916   5.825   6.050   5.949 -0.4617  0.3125 -0.1570
  108MOL    C4340917   5.683   6.046   5.933 -0.5921  0.8302  0.1811
  108MOL    C4440918   5.628   6.076   6.070  1.1329 -0.0532 -0.4509
  108MOL    C4540919   5.663   6.214   6.119 -0.3523 -0.8251  0.1009
  108MOL    C4640920   5.475   6.069   6.077  0.9083 -0.0653 -0.2106
  108MOL    H4740921   5.851   6.278   5.826 -0.7612 -0.2145 -0.6163
  108MOL    H4840922   6.003   6.244   5.798 -0.5659 -0.2207 -0.2130
  108MOL    H4940923   5.869   5.980   5.758  0.9839 -2.7234  1.5820
  108MOL    H5040924   5.660   5.944   5.901  2.0580  0.3318 -0.2439
  108MOL    H5140925   5.662   6.119   5.855 -0.9870  1.1127  0.5473
  108MOL    H5240926   5.663   6.006   6.146  0.2911  0.6669  0.6207
  108MOL    H5340927   5.770   6.223   6.101 -1.0391  3.0460 -2.5656
  108MOL    H5440928   5.615   6.300   6.072  0.4242 -1.3535 -1.6735
  108MOL    H5540929   5.647   6.216   6.227  2.5762 -1.2729  0.5900
  108MOL    H5640930   5.439   6.087   6.178  0.1914  1.1913 -0.6726
  108MOL    H5740931   5.458   5.964   6.051  1.3750 -1.1236  3.5066
  108MOL    H5840932   5.419   6.138   6.013  2.4132  0.5338 -0.9144
  108MOL    C5940933   6.042   6.004   5.873  0.8292  0.2172  0.3876
  108MOL    C6040934   6.041   5.853   5.884 -0.8123  0.0662 -0.0301
  108MOL    O6140935   6.137   5.817   5.984 -0.0361  0.2190  0.6726
  108MOL    C6240936   6.088   5.781   6.116 -0.3002 -1.1097  0.3292
  108MOL    C6340937   6.210   5.738   6.203 -0.4220  0.7680 -0.0959
  108MOL    C6440938   6.182   5.755   6.357  0.6299  0.2173  0.1912
  108MOL    C6540939   6.250   5.598   6.171  0.1461  0.0843  0.0694
  108MOL    H6640940   6.064   6.038   5.974  1.5987  0.9534 -0.0202
  108MOL    H6740941   6.119   6.032   5.801  0.8406 -1.5489 -0.3096
  108MOL    H6840942   5.939   5.816   5.898 -1.0276  0.3285 -0.8666
  108MOL    H6940943   6.035   5.867   6.157 -0.5681 -1.4438  0.6931
  108MOL    H7040944   6.015   5.700   6.117  0.2221 -1.6362 -2.1140
  108MOL    H7140945   6.290   5.809   6.183 -0.1346  0.8821  1.4142
  108MOL    H7240946   6.091   5.699   6.375  0.5735  0.3144  0.2072
  108MOL    H7340947   6.166   5.860   6.384  0.4858 -0.2087  1.7910
  108MOL    H7440948   6.273   5.727   6.411  0.4153 -1.4643 -0.2997
  108MOL    H7540949   6.187   5.529   6.228 -1.8365  2.5290  0.9418
  108MOL    H7640950   6.255   5.576   6.064 -0.4672 -0.4283  0.1421
  108MOL    H7740951   6.338   5.555   6.218 -0.3363 -2.8604 -1.5628
  108MOL    C7840952   6.098   5.797   5.754  0.2503 -0.2864  0.4690
  108MOL    C7940953   6.105   5.644   5.745 -0.3118 -0.3370  0.1888
  108MOL    O8040954   5.972   5.597   5.746 -0.1803 -0.0936  0.0898
  108MOL    C8140955   5.932   5.518   5.851 -0.5784 -0.2863  0.4334
  108MOL    C8240956   5.819   5.429   5.796  0.1014 -1.3882  0.0700
  108MOL    C8340957   5.709   5.518   5.752 -0.1256 -0.2320  0.9616
  108MOL    C8440958   5.781   5.318   5.895  0.5304 -0.6040 -0.4791
  108MOL    H8540959   6.196   5.842   5.739 -0.7405  1.6596 -0.3974
  108MOL    H8640960   6.014   5.812   5.686  0.7452 -2.7416 -0.7533
  108MOL    H8740961   6.167   5.600   5.822  1.4221  0.5192 -0.6721
  108MOL    H8840962   6.015   5.462   5.894  1.0779  1.2909 -0.6466
  108MOL    H8940963   5.895   5.582   5.932 -0.4070 -0.6435  0.7965
  108MOL    H9040964   5.867   5.380   5.711  1.9174  1.7343 -0.7785
  108MOL    H9140965   5.628   5.454   5.717 -1.9640  3.4011 -1.7876
  108MOL    H9240966   5.751   5.583   5.676  2.7869  0.2424  2.8744
  108MOL    H9340967   5.677   5.586   5.831 -1.1145  0.4257 -0.0074
  108MOL    H9440968   5.703   5.258   5.846  1.3171 -1.4525 -0.7126
  108MOL    H9540969   5.745   5.350   5.993 -0.6595 -0.0500 -1.0913
  108MOL    H9640970   5.868   5.256   5.916  0.4739 -0.8171 -0.8638
  108MOL    C9740971   6.162   5.592   5.617  0.5859 -0.4039  0.0564
  108MOL    C9840972   6.185   5.436   5.610  0.4147 -0.0582 -0.7131
  108MOL    O9940973   6.282   5.411   5.719  0.3646 -0.3538  0.0848
  108MOL   C10040974   6.294   5.273   5.750  0.6666  1.0844  0.1068
  108MOL   C10140975   6.339   5.266   5.896  0.4032 -0.1137  0.0011
  108MOL   C10240976   6.311   5.142   5.969  0.0586 -0.3004  0.0800
  108MOL   C10340977   6.480   5.318   5.921  0.5387  0.1949 -0.0615
  108MOL   H10440978   6.250   5.653   5.594 -1.2894  1.9431 -1.2141
  108MOL   H10540979   6.101   5.627   5.534 -0.2803  0.6541  1.1288
  108MOL   H10640980   6.093   5.381   5.631  0.7137 -1.1770 -2.2320
  108MOL   H10740981   6.373   5.226   5.691 -1.6308 -1.8952 -0.6984
  108MOL   H10840982   6.205   5.211   5.748  0.0767  1.8696  1.6822
  108MOL   H10940983   6.275   5.336   5.949 -1.2032 -1.6324  0.1287
  108MOL   H11040984   6.362   5.129   6.064 -0.5010 -0.7152  0.3278
  108MOL   H11140985   6.204   5.135   5.989  0.0738 -0.1272  0.2254
  108MOL   H11240986   6.347   5.061   5.906  0.4691 -1.3732  1.6643
  108MOL   H11340987   6.487   5.419   5.880 -1.2351 -0.1703 -1.3236
  108MOL   H11440988   6.504   5.340   6.025  2.2603  1.1099 -0.6240
  108MOL   H11540989   6.559   5.261   5.872 -0.6608 -0.3874 -1.3539
  108MOL   C11640990   6.230   5.396   5.466 -0.1743 -0.2709 -1.1533
  108MOL   C11740991   6.219   5.247   5.425  0.2469  0.2557  0.1541
  108MOL   O11840992   6.091   5.221   5.395 -0.1370 -0.6303  0.0741
  108MOL   C11940993   6.034   5.122   5.472 -0.4095 -0.4567  0.1947
  108MOL   C12040994   5.898   5.094   5.399 -0.1066  0.3874 -0.1346
  108MOL   C12140995   5.918   5.062   5.251  0.4441 -1.0171 -0.6941
  108MOL   C12240996   5.805   4.988   5.458  0.3218 -0.2538  0.0330
  108MOL   H12340997   6.158   5.436   5.396 -1.6360  0.2039  0.5801
  108MOL   H12440998   6.325   5.441   5.436 -0.8517  3.6374  2.1886
  108MOL   H12540999   6.254   5.184   5.507  2.3734 -1.9989 -2.4186
  108MOL   H12641000   6.023   5.166   5.571  2.3679 -1.5933  1.0482
  108MOL   H12741001   6.105   5.040   5.487  3.1666  2.6973  1.3037
  108MOL   H12841002   5.844   5.188   5.410  2.3062  2.1212 -2.3614
  108MOL   H12941003   5.956   4.964   5.222 -0.3774 -1.6843  0.4104
  108MOL   H13041004   5.966   5.141   5.194  0.9348  0.8375  2.1770
  108MOL   H13141005   5.822   5.061   5.199  0.4954 -0.1821 -0.8005
  108MOL   H13241006   5.770   5.014   5.558  0.8491 -0.7263  0.3461
  108MOL   H13341007   5.712   4.984   5.401  1.3408 -1.5508 -1.6234
  108MOL   H13441008   5.845   4.886   5.463 -2.9272 -1.5495  0.6445
  108MOL   C13541009   6.297   5.218   5.296  0.0616 -0.2404 -0.0692
  108MOL   C13641010   6.430   5.142   5.321 -0.7530  0.1420 -0.9202
  108MOL   O13741011   6.411   5.016   5.378 -0.1470  0.0145 -0.0757
  108MOL   C13841012   6.313   4.930   5.323 -0.3407 -0.5287 -0.1012
  108MOL   C13941013   6.303   4.789   5.385 -0.1680  0.7093 -0.5569
  108MOL   C14041014   6.421   4.694   5.347 -0.8659 -0.6404  0.1040
  108MOL   C14141015   6.285   4.794   5.535 -0.1943  0.4804 -0.1412
  108MOL   H14241016   6.236   5.164   5.223 -1.8949 -1.5899  2.4639
  108MOL   H14341017   6.318   5.311   5.244  0.9235 -1.7926 -2.6042
  108MOL   H14441018   6.494   5.200   5.388 -2.1056  1.7296 -0.9688
  108MOL   H14541019   6.344   4.918   5.220  0.8614  0.3699  0.1450
  108MOL   H14641020   6.210   4.966   5.322 -0.8538 -1.9399  0.0859
  108MOL   H14741021   6.211   4.748   5.344  0.4962 -0.8149 -0.5822
  108MOL   H14841022   6.426   4.664   5.242 -4.4824 -0.7790 -0.0689
  108MOL   H14941023   6.412   4.593   5.387 -2.6680  0.0213  1.4298
  108MOL   H15041024   6.521   4.733   5.368 -2.0058  2.7025 -0.4089
  108MOL   H15141025   6.377   4.817   5.590 -1.0196  0.7026  1.1651
  108MOL   H15241026   6.208   4.867   5.561  0.3248  0.5873  1.1422
  108MOL   H15341027   6.267   4.694   5.573  0.1556 -0.1498 -1.5948
  108MOL   C15441028   6.496   5.128   5.186  0.0472  0.7457 -0.0494
  108MOL   C15541029   6.628   5.042   5.180 -0.6163  0.6937  0.3187
  108MOL   O15641030   6.641   4.975   5.051  0.0625 -0.1433  0.6369
  108MOL   C15741031   6.561   4.860   5.025 -0.3899  0.5430 -0.2694
  108MOL   C15841032   6.582   4.811   4.880 -1.0580  0.4937 -0.3733
  108MOL   C15941033   6.712   4.726   4.872 -0.1839 -0.0195 -0.0776
  108MOL   C16041034   6.463   4.738   4.829  0.4010 -0.3439 -0.0366
  108MOL   H16141035   6.511   5.231   5.152  0.5741  0.4192 -0.8236
  108MOL   H16241036   6.417   5.082   5.126 -0.0283 -0.3368  0.8741
  108MOL   H16341037   6.628   4.960   5.252 -2.1122  0.3367 -0.0599
  108MOL   H16441038   6.455   4.880   5.039 -0.0810  0.9527  1.6547
  108MOL   H16541039   6.581   4.774   5.088 -2.1938  0.1694 -0.1722
  108MOL   H16641040   6.595   4.896   4.813 -0.3340  1.3504  0.8376
  108MOL   H16741041   6.745   4.725   4.768  0.6376  2.2102  0.1367
  108MOL   H16841042   6.710   4.633   4.929 -0.7470  0.3142  0.4472
  108MOL   H16941043   6.792   4.780   4.922  0.7771 -0.2078 -1.3744
  108MOL   H17041044   6.376   4.803   4.821  0.6974  0.2805  1.6205
  108MOL   H17141045   6.478   4.696   4.729 -0.8214  1.6830 -1.1211
  108MOL   H17241046   6.431   4.660   4.899  1.0977  0.1347  0.8192
  108MOL   C17341047   6.768   5.108   5.200  0.1063 -0.2479 -0.5363
  108MOL   C17441048   6.801   5.170   5.340 -0.0074 -0.6236  0.4588
  108MOL   O17541049   6.819   5.063   5.431 -0.3761 -0.0849  0.4154
  108MOL   C17641050   6.746   5.076   5.554  0.3678 -0.3767 -0.2849
  108MOL   C17741051   6.709   4.931   5.596  0.2098 -0.2066 -0.7789
  108MOL   C17841052   6.838   4.851   5.637 -0.1388  0.2007 -0.1794
  108MOL   C17941053   6.610   4.930   5.711  0.6347 -0.1401  0.9317
  108MOL   H18041054   6.849   5.041   5.170  2.4492  2.7185 -1.0379
  108MOL   H18141055   6.767   5.192   5.130 -1.8959  0.7686  0.6630
  108MOL   H18241056   6.729   5.248   5.366 -1.7552 -1.8245 -0.6883
  108MOL   H18341057   6.653   5.131   5.541  0.1473 -1.1450 -2.0676
  108MOL   H18441058   6.817   5.121   5.624  0.9657  0.7203 -1.5854
  108MOL   H18541059   6.666   4.875   5.513  0.9065 -0.3708 -1.0358
  108MOL   H18641060   6.903   4.831   5.552  1.2723 -2.1082  1.3773
  108MOL   H18741061   6.907   4.900   5.705  1.2017 -0.4311 -1.0742
  108MOL   H18841062   6.826   4.751   5.678  0.4346 -0.6716 -2.0689
  108MOL   H18941063   6.575   4.831   5.740  0.8190 -0.7985 -1.0186
  108MOL   H19041064   6.527   4.995   5.685  1.7362  0.1024 -2.3039
  108MOL   H19141065   6.662   4.964   5.800  0.2251  1.0644  0.7110
  108MOL   C19241066   6.938   5.235   5.328  0.1291  0.1835 -0.0176
  108MOL   C19341067   6.991   5.311   5.441 -1.2900  0.0745 -0.8214
  108MOL   O19441068   6.901   5.416   5.475 -0.2960  0.0629 -0.1966
  108MOL   C19541069   6.888   5.437   5.610  0.3843 -0.3899 -0.2685
  108MOL   C19641070   6.820   5.575   5.635 -0.1408 -0.2076  0.0581
  108MOL   C19741071   6.900   5.687   5.583 -0.0885 -0.3544 -0.4744
  108MOL   C19841072   6.782   5.602   5.784 -0.2623  0.5326  0.1484
  108MOL   H19941073   6.936   5.303   5.243 -1.3981  1.3946  0.9490
  108MOL   H20041074   7.006   5.153   5.305  2.1479  1.9321 -0.4807
  108MOL   H20141075   6.997   5.247   5.530  2.5551  0.5170 -0.6563
  108MOL   H20241076   6.975   5.432   5.675 -0.4867  0.4036  0.9886
  108MOL   H20341077   6.819   5.360   5.643  0.0776  0.1124  0.2778
  108MOL   H20441078   6.724   5.582   5.584  0.4852  0.2063 -1.0926
  108MOL   H20541079   6.889   5.790   5.618  1.8636 -0.2710 -0.0411
  108MOL   H20641080   7.008   5.679   5.597 -0.0630  1.3224  0.4646
  108MOL   H20741081   6.897   5.674   5.475  1.0048 -1.0354 -0.4338
  108MOL   H20841082   6.881   5.600   5.829  0.5052 -1.6569 -1.5205
  108MOL   H20941083   6.725   5.693   5.797 -1.8518 -0.1817 -1.5123
  108MOL   H21041084   6.731   5.510   5.813 -1.7770  1.4416  0.3608
  108MOL   C21141085   7.127   5.380   5.413 -0.3705  0.2427 -0.3118
  108MOL   C21241086   7.249   5.352   5.511 -0.5796 -0.9001  0.7477
  108MOL   O21341087   7.266   5.216   5.487  0.2034  0.4382 -0.5975
  108MOL   C21441088   7.313   5.138   5.601 -0.0495  0.9704  0.2242
  108MOL   C21541089   7.347   4.994   5.560  0.8896 -0.6265  0.2293
  108MOL   C21641090   7.464   4.939   5.640  0.3070 -0.0102  0.1903
  108MOL   C21741091   7.229   4.904   5.573 -0.2805 -0.3748 -0.6346
  108MOL   H21841092   7.104   5.487   5.408  0.2832  0.4934  1.6648
  108MOL   H21941093   7.150   5.342   5.314 -2.0980  0.8422 -0.9762
  108MOL   H22041094   7.225   5.370   5.616 -0.0825 -0.2281  0.7487
  108MOL   H22141095   7.243   5.160   5.681 -0.1927 -2.8071  1.2271
  108MOL   H22241096   7.410   5.185   5.616  1.4953 -1.4946 -1.5954
  108MOL   H22341097   7.368   5.000   5.453 -0.3606  0.0875  0.0162
  108MOL   H22441098   7.485   4.832   5.636 -0.9398 -0.1897 -3.3719
  108MOL   H22541099   7.557   4.987   5.609 -0.2940  1.2953  0.3883
  108MOL   H22641100   7.448   4.967   5.744  1.0429 -2.7952  1.1012
  108MOL   H22741101   7.262   4.805   5.542  2.7451  0.6488 -0.7958
  108MOL   H22841102   7.143   4.936   5.513 -0.0415 -0.1271 -0.8420
  108MOL   H22941103   7.201   4.898   5.678  1.9898  2.9004  0.2130
  108MOL   C23041104   7.378   5.437   5.464  0.0710 -0.0016 -0.2361
  108MOL   C23141105   7.385   5.584   5.510 -1.4904 -0.5487 -0.0947
  108MOL   O23241106   7.399   5.583   5.654  0.2518 -0.5869  0.6305
  108MOL   C23341107   7.286   5.642   5.713 -0.1506  0.2783 -0.2731
  108MOL   C23441108   7.304   5.638   5.868 -0.2203  0.3401  0.5648
  108MOL   C23541109   7.195   5.722   5.938  0.2730 -0.0116 -0.0228
  108MOL   C23641110   7.302   5.498   5.921 -0.3695 -0.2758  0.0719
  108MOL   H23741111   7.378   5.442   5.355 -0.9138 -1.1694 -0.3072
  108MOL   H23841112   7.466   5.389   5.506 -0.1734 -1.2597 -1.1404
  108MOL   H23941113   7.290   5.631   5.486 -0.9483  0.1546 -0.9426
  108MOL   H24041114   7.268   5.742   5.673 -0.8952  0.4878  0.5670
  108MOL   H24141115   7.193   5.594   5.681  0.1570  0.2073 -1.0900
  108MOL   H24241116   7.401   5.682   5.892 -0.6863  1.9445 -0.4000
  108MOL   H24341117   7.090   5.705   5.912  0.3549  2.3233 -2.0676
  108MOL   H24441118   7.218   5.826   5.918  0.0435  0.1022  0.2964
  108MOL   H24541119   7.196   5.719   6.047  2.2563 -0.9054 -0.0396
  108MOL   H24641120   7.209   5.456   5.883  0.4123 -2.2350  0.2233
  108MOL   H24741121   7.383   5.449   5.866  0.2544  0.2664  0.4905
  108MOL   H24841122   7.303   5.486   6.029  0.1276  1.8458  0.3252
  108MOL   C24941123   7.496   5.655   5.432 -0.0588  0.8128  0.0679
  108MOL   C25041124   7.488   5.803   5.442 -0.3003 -0.5291  0.3032
  108MOL   O25141125   7.622   5.846   5.439 -0.5229 -0.0450  0.1423
  108MOL   C25241126   7.692   5.859   5.566  0.2491 -0.4020  0.7250
  108MOL   C25341127   0.014   5.924   5.530 -0.5736 -0.5971 -0.2203
  108MOL   C25441128   0.114   5.831   5.476  0.3720 -0.7940  0.1107
  108MOL   C25541129   0.083   6.006   5.643  0.5291 -0.4990 -0.3994
  108MOL   H25641130   7.503   5.624   5.328  0.0476  3.6418 -0.8126
  108MOL   H25741131   7.593   5.616   5.465 -0.3332  0.4528  0.4458
  108MOL   H25841132   7.431   5.840   5.526  0.9507  0.8191  0.5845
  108MOL   H25941133   7.647   5.928   5.638 -0.4188  1.0517 -1.0357
  108MOL   H26041134   7.691   5.765   5.621  1.5602 -1.1420 -0.4859
  108MOL   H26141135   0.002   5.996   5.449 -0.7677  0.5025  0.7807
  108MOL   H26241136   0.212   5.876   5.460  1.8766 -2.9377  2.9611
  108MOL   H26341137   0.077   5.773   5.392 -1.2025 -0.9783  0.9087
  108MOL   H26441138   0.144   5.760   5.553  1.9332  0.5971  0.8071
  108MOL   H26541139   0.024   6.087   5.685 -0.2064 -1.2493  0.0399
  108MOL   H26641140   0.103   5.941   5.728 -1.6417 -2.8327 -1.5971
  108MOL   H26741141   0.180   6.047   5.614  0.3932  0.7973  0.9156
  108MOL   C26841142   7.430   5.861   5.318 -0.7042  0.5004  0.6449
  108MOL   C26941143   7.387   6.010   5.335  0.5588  0.4944 -0.2918
  108MOL   O27041144   7.268   6.013   5.417 -0.1421 -0.0761 -0.2085
  108MOL   C27141145   7.258   6.126   5.491  0.0371 -0.7168 -0.4698
  108MOL   C27241146   7.129   6.116   5.578 -0.1239  0.3208 -0.6512
  108MOL   C27341147   7.000   6.086   5.500 -0.5382  0.1837 -0.3846
  108MOL   C27441148   7.144   6.028   5.703 -0.1119  0.0431 -0.6561
  108MOL   H27541149   7.348   5.805   5.272 -0.6517  0.1146  1.0287
  108MOL   H27641150   7.512   5.855   5.247 -1.3052 -0.7831  0.0493
  108MOL   H27741151   7.469   6.054   5.392 -0.1191 -0.0901  1.1589
  108MOL   H27841152   7.350   6.137   5.548  0.8479  0.5235 -1.9757
  108MOL   H27941153   7.243   6.212   5.425  1.3787  0.9734  1.3893
  108MOL   H28041154   7.117   6.217   5.617  0.4234  0.7869 -1.6794
  108MOL   H28141155   6.917   6.123   5.559  0.4725  2.2742 -0.2496
  108MOL   H28241156   7.005   5.983   5.464  2.1953 -1.2668  3.7963
  108MOL   H28341157   7.006   6.147   5.410 -0.0559  2.5398  1.1982
  108MOL   H28441158   7.240   6.034   5.753 -1.6618 -1.7113  2.6972
  108MOL   H28541159   7.127   5.924   5.678  0.1895  0.3998 -2.3969
  108MOL   H28641160   7.065   6.053   5.774 -0.2482 -0.9221 -0.4662
  108MOL   C28741161   7.379   6.093   5.208  0.0033  0.0068 -0.0637
  108MOL   C28841162   7.513   6.142   5.149 -0.4192  0.1118  0.7129
  108MOL   O28941163   7.554   6.254   5.218 -0.0032 -0.1865  0.4419
  108MOL   C29041164   7.688   6.240   5.276  0.8329 -0.0368 -0.2943
  108MOL   C29141165   7.708   6.383   5.333  0.2638 -0.3904 -0.2696
  108MOL   C29241166   0.008   6.387   5.414 -0.4532 -0.2284  0.0483
  108MOL   C29341167   7.588   6.430   5.424 -0.2575 -0.2430  0.1106
  108MOL   H29441168   7.320   6.182   5.229  0.4196  0.4950 -0.9140
  108MOL   H29541169   7.322   6.031   5.138 -2.6260  0.9395  1.1938
  108MOL   H29641170   7.584   6.059   5.153  1.1724  1.4094  0.0619
  108MOL   H29741171   7.695   6.164   5.354  1.5976 -0.5667 -0.8819
  108MOL   H29841172   7.749   6.210   5.192 -2.2307 -0.7446 -2.3433
  108MOL   H29941173   7.722   6.453   5.251  1.2714 -0.0206  0.2065
  108MOL   H30041174   0.013   6.307   5.488 -0.0277 -0.5408 -0.3102
  108MOL   H30141175   0.040   6.486   5.447  0.6313 -0.4232 -0.3908
  108MOL   H30241176   0.086   6.372   5.340  2.3435  1.0536  2.6199
  108MOL   H30341177   7.539   6.348   5.477 -1.0779  1.5822  2.2434
  108MOL   H30441178   7.622   6.501   5.498  1.3616 -0.7427 -0.1330
  108MOL   H30541179   7.521   6.472   5.349 -1.1074 -1.3971  0.2031
  108MOL   C30641180   7.502   6.180   5.001  0.2942  0.1553  0.4521
  108MOL   C30741181   7.506   6.063   4.901 -0.8888  0.6459 -0.2930
  108MOL   O30841182   7.461   6.102   4.774  0.0042 -0.5666 -0.4860
  108MOL   C30941183   7.320   6.084   4.742  0.1169 -0.2729 -1.0994
  108MOL   C31041184   7.269   6.180   4.627 -0.5180  0.4480  0.1218
  108MOL   C31141185   7.116   6.189   4.594  0.3022 -0.3471 -0.3215
  108MOL   C31241186   7.334   6.131   4.497  0.6623 -0.2638  0.6821
  108MOL   H31341187   7.577   6.251   4.966 -1.1464  1.4149 -0.1022
  108MOL   H31441188   7.414   6.244   4.994  1.0308  1.0350 -0.9335
  108MOL   H31541189   7.453   5.977   4.941 -0.1880  0.0478 -0.6227
  108MOL   H31641190   7.272   6.117   4.833 -0.9455  0.9595 -2.0866
  108MOL   H31741191   7.291   5.981   4.720  2.0958 -0.9372 -0.6984
  108MOL   H31841192   7.308   6.281   4.639  1.4754 -0.2406 -0.3391
  108MOL   H31941193   7.079   6.245   4.679  0.4361  2.0896 -1.8331
  108MOL   H32041194   7.068   6.092   4.582 -0.9280 -0.0819  2.1189
  108MOL   H32141195   7.101   6.245   4.502  2.4613  1.6858  0.5361
  108MOL   H32241196   7.298   6.036   4.458  4.2418 -0.6830 -1.8341
  108MOL   H32341197   7.442   6.128   4.504  0.7361 -1.7726 -0.8588
  108MOL   H32441198   7.314   6.201   4.417  0.2412 -2.5643 -1.2856
  108MOL   C32541199   7.644   5.995   4.871 -0.4879 -0.2574 -0.3227
  108MOL   C32641200   7.637   5.866   4.787  0.4381 -0.0026  0.1830
  108MOL   O32741201   7.741   5.861   4.689 -0.6059 -0.4896 -1.0809
  108MOL   C32841202   7.712   5.939   4.573  0.1738 -0.0186 -0.3068
  108MOL   C32941203   0.008   5.930   4.475  0.0521 -0.0471 -0.0738
  108MOL   C33041204   7.800   6.001   4.340  0.4655 -0.2580 -0.0856
  108MOL   C33141205   0.129   6.001   4.535 -0.2332 -0.2961  0.2370
  108MOL   H33241206   7.698   5.972   4.963 -1.6269  0.2773  0.4958
  108MOL   H33341207   7.708   6.067   4.820  0.6368 -0.8648  0.2126
  108MOL   H33441208   7.538   5.851   4.746  0.1604 -0.2189  0.9229
  108MOL   H33541209   7.624   5.899   4.523  1.0531 -0.8719 -1.1959
  108MOL   H33641210   7.704   6.044   4.598 -0.4163  0.1341 -1.1281
  108MOL   H33741211   0.035   5.829   4.447  0.7711  0.7154 -2.2021
  108MOL   H33841212   0.066   5.991   4.280 -0.9092  0.5761 -2.3636
  108MOL   H33941213   7.722   5.946   4.290  0.8764 -0.1007 -0.9073
  108MOL   H34041214   7.759   6.099   4.364  2.4177  0.8290 -1.0288
  108MOL   H34141215   0.153   5.965   4.635 -1.6097 -2.4692 -0.1816
  108MOL   H34241216   0.222   5.998   4.479 -0.7729  1.4960 -0.8140
  108MOL   H34341217   0.102   6.106   4.546  0.3258 -0.0047 -1.1057
  108MOL   C34441218   7.664   5.738   4.870  0.1276 -0.8855 -0.3890
  108MOL   C34541219   7.574   5.701   4.985 -0.0549 -0.2484  0.0740
  108MOL   O34641220   7.439   5.678   4.926  0.1147 -0.1554  0.1766
  108MOL   C34741221   7.328   5.677   5.011 -0.5676 -0.6341 -1.2003
  108MOL   C34841222   7.212   5.594   4.949  0.2976  0.8220  0.0371
  108MOL   C34941223   7.265   5.453   4.928 -0.1129 -0.1232 -0.5635
  108MOL   C35041224   7.160   5.650   4.818 -0.0728  0.2683  0.1148
  108MOL   H35141225   7.764   5.747   4.912  1.2451 -2.7191 -2.5442
  108MOL   H35241226   7.667   5.652   4.803 -1.3520 -0.8863 -0.4731
  108MOL   H35341227   7.564   5.786   5.053  1.6839 -0.4373  0.5891
  108MOL   H35441228   7.302   5.782   5.024 -1.5753 -1.0511  0.2626
  108MOL   H35541229   7.359   5.629   5.104 -0.3607  0.6555 -0.5836
  108MOL   H35641230   7.129   5.596   5.020 -1.0922 -0.2842 -1.5360
  108MOL   H35741231   7.295   5.411   5.024 -1.2315 -0.9734 -0.5737
  108MOL   H35841232   7.350   5.461   4.860  1.7193  0.7563  1.7929
  108MOL   H35941233   7.190   5.396   4.873 -0.3379  3.0750 -3.7557
  108MOL   H36041234   7.132   5.754   4.839  0.4097  0.1465  1.3860
  108MOL   H36141235   7.243   5.657   4.747  0.1107 -0.2255  0.2813
  108MOL   H36241236   7.073   5.598   4.777  1.1946 -0.2248 -2.0547
  108MOL   C36341237   7.627   5.573   5.057 -0.3047  1.1691  0.3151
  108MOL   C36441238   7.769   5.573   5.122 -0.0835  0.2457 -0.1016
  108MOL   O36541239   7.795   5.443   5.182  0.1375 -0.1105  0.3623
  108MOL   C36641240   0.078   5.445   5.274 -0.7734  0.7911 -0.1789
  108MOL   C36741241   0.085   5.313   5.349  0.7330 -0.0876 -0.5495
  108MOL   C36841242   7.812   5.314   5.474  0.0490  0.1218  0.0861
  108MOL   C36941243   0.235   5.282   5.388  0.4981  0.0718  0.0629
  108MOL   H37041244   7.547   5.550   5.127  0.8212 -0.9338  0.9351
  108MOL   H37141245   7.609   5.491   4.986  1.8115 -1.2702  2.5058
  108MOL   H37241246   7.780   5.654   5.194  2.8435 -0.5955  0.4542
  108MOL   H37341247   0.168   5.464   5.216  0.7079 -0.7514  1.5528
  108MOL   H37441248   0.055   5.522   5.348 -3.3019  0.4930 -0.5995
  108MOL   H37541249   0.059   5.231   5.281 -0.0308 -1.3059  1.1842
  108MOL   H37641250   7.796   5.213   5.511  0.5322 -0.5598 -1.5146
  108MOL   H37741251   7.717   5.359   5.447 -0.3259 -0.5790  0.2477
  108MOL   H37841252   0.028   5.361   5.564  0.2471 -0.1053  0.1154
  108MOL   H37941253   0.243   5.208   5.467 -0.9087 -0.3855 -0.1967
  108MOL   H38041254   0.282   5.365   5.441  2.8808 -0.8738 -0.5117
  108MOL   H38141255   0.292   5.254   5.300 -1.4103 -1.5717 -0.7032
  108MOL   H38241256   0.013   5.580   5.038 -0.3195 -0.3491 -0.3473
  109MOL     C141257   6.377   6.446   5.656 -0.9313  0.2808 -0.3056
  109MOL     C241258   6.505   6.376   5.688 -0.0969 -0.0812  0.2538
  109MOL     O341259   6.480   6.240   5.654  0.4655 -0.1819  0.0048
  109MOL     C441260   6.430   6.152   5.754  0.1350  0.0870 -0.2975
  109MOL     C541261   6.549   6.100   5.841 -0.5163  0.5878  0.3249
  109MOL     C641262   6.643   6.018   5.752 -0.0843 -0.2430 -0.0808
  109MOL     C741263   6.512   6.040   5.971  0.1198  0.1080  0.4829
  109MOL     H841264   6.375   6.547   5.696  0.4220  0.6321 -1.0900
  109MOL     H941265   6.363   6.465   5.549  0.6338  1.8616 -0.2457
  109MOL    H1041266   6.528   6.380   5.794 -0.1980  0.9832  0.2405
  109MOL    H1141267   6.382   6.062   5.718  0.3788  0.4964 -1.6471
  109MOL    H1241268   6.358   6.213   5.810 -1.7310  0.3575 -2.9253
  109MOL    H1341269   6.614   6.176   5.883  0.0091 -0.0016  0.5912
  109MOL    H1441270   6.641   6.054   5.650 -3.2966 -0.6634 -0.2250
  109MOL    H1541271   6.749   6.016   5.776  0.1881  0.2488 -1.2522
  109MOL    H1641272   6.606   5.916   5.737 -0.8755  0.2008 -1.1696
  109MOL    H1741273   6.451   5.950   5.961 -0.5156  0.6454 -0.6437
  109MOL    H1841274   6.601   6.018   6.029  0.5801  1.7115  0.4092
  109MOL    H1941275   6.460   6.116   6.030 -1.1490  1.0993 -1.8457
  109MOL    H2041276   6.290   6.385   5.678 -0.2244 -0.2310  1.1016
  109MOL    C2141277   6.617   6.424   5.600 -0.0728 -0.1286 -0.9343
  109MOL    C2241278   6.661   6.574   5.629 -0.2736  0.3338 -0.0280
  109MOL    O2341279   6.683   6.604   5.773 -0.4233  0.5550 -0.5765
  109MOL    C2441280   6.674   6.742   5.815 -0.1256  0.7712 -0.0049
  109MOL    C2541281   6.693   6.755   5.966  0.0697  0.0109 -0.1278
  109MOL    C2641282   6.573   6.691   6.037  0.2829  0.0964 -0.3067
  109MOL    C2741283   6.829   6.687   6.000  0.1940  0.2604  0.1871
  109MOL    H2841284   6.706   6.364   5.616  1.5469  2.9082  2.1245
  109MOL    H2941285   6.598   6.425   5.493  1.8217 -3.2281 -1.3475
  109MOL    H3041286   6.573   6.632   5.602  0.4440  0.7508 -1.4818
  109MOL    H3141287   6.570   6.769   5.798 -0.4598 -1.7102 -2.3121
  109MOL    H3241288   6.745   6.807   5.765 -1.5866  3.2374  1.0480
  109MOL    H3341289   6.710   6.860   5.992 -0.2741  0.9011 -3.2677
  109MOL    H3441290   6.572   6.585   6.015 -1.2697  0.0094  0.0825
  109MOL    H3541291   6.475   6.733   6.011 -0.8747 -1.1925  1.8369
  109MOL    H3641292   6.564   6.687   6.146  0.6600  0.6873 -0.2525
  109MOL    H3741293   6.816   6.582   6.028  1.0871 -0.7492 -3.0132
  109MOL    H3841294   6.901   6.703   5.920 -0.2302  1.9080  0.1128
  109MOL    H3941295   6.874   6.728   6.091  0.2642 -0.1255  0.3318
  109MOL    C4041296   6.780   6.618   5.542 -0.1549 -0.3231 -0.1434
  109MOL    C4141297   6.740   6.657   5.394 -0.8119 -0.5803 -0.1900
  109MOL    O4241298   6.853   6.650   5.304  0.0778  0.1851  0.2152
  109MOL    C4341299   6.829   6.537   5.218 -0.0348  0.0204  0.1925
  109MOL    C4441300   6.968   6.503   5.163  0.5770  0.2555  0.5391
  109MOL    C4541301   7.030   6.620   5.080  0.3635 -0.8834  0.6739
  109MOL    C4641302   7.057   6.461   5.280  0.1970  1.1105  0.2585
  109MOL    H4741303   6.859   6.543   5.541 -0.2871 -0.4767 -2.1564
  109MOL    H4841304   6.825   6.710   5.578  0.0859  1.4227 -4.5979
  109MOL    H4941305   6.656   6.597   5.361 -0.8650  0.4734 -2.0425
  109MOL    H5041306   6.759   6.562   5.139 -0.2276 -1.0921  0.0053
  109MOL    H5141307   6.785   6.447   5.260 -1.0952 -0.5267 -2.0352
  109MOL    H5241308   6.964   6.417   5.095  0.5644  2.5858 -2.5119
  109MOL    H5341309   6.982   6.646   4.986  0.4364 -4.0889 -0.3146
  109MOL    H5441310   7.056   6.713   5.130 -0.5610  0.0273 -0.5206
  109MOL    H5541311   7.132   6.590   5.057  0.6746 -0.7298  1.8193
  109MOL    H5641312   7.144   6.399   5.259 -0.7877 -0.2493  0.1660
  109MOL    H5741313   6.998   6.428   5.365  1.3796  1.5859  1.2671
  109MOL    H5841314   7.110   6.546   5.324 -0.4973  1.2188  0.8869
  109MOL    C5941315   6.697   6.806   5.394 -0.2534 -0.3482 -0.8147
  109MOL    C6041316   6.651   6.858   5.253 -0.4706 -0.5623  0.1714
  109MOL    O6141317   6.705   6.986   5.231 -0.2396  0.2785  0.5987
  109MOL    C6241318   6.818   7.000   5.144  0.3746  0.3133 -0.0229
  109MOL    C6341319   6.782   7.045   5.001  0.1566  0.4374 -0.1412
  109MOL    C6441320   6.733   6.931   4.912 -0.1378  0.6220 -0.0958
  109MOL    C6541321   6.687   7.162   5.001 -0.0499  0.1436  0.0146
  109MOL    H6641322   6.784   6.861   5.428 -2.3082  2.9033 -0.5829
  109MOL    H6741323   6.608   6.820   5.455 -0.8374 -0.0412 -1.7272
  109MOL    H6841324   6.694   6.789   5.179  1.2850  0.7024 -0.0203
  109MOL    H6941325   6.877   7.079   5.192  1.9445 -0.7359 -0.1618
  109MOL    H7041326   6.881   6.911   5.145  2.0163  1.4499  0.3005
  109MOL    H7141327   6.876   7.065   4.949 -0.7260 -2.3740 -2.9613
  109MOL    H7241328   6.806   6.862   4.871 -0.8126 -0.0079 -0.2516
  109MOL    H7341329   6.686   6.974   4.824 -2.1645 -0.8393  0.2236
  109MOL    H7441330   6.658   6.871   4.963  0.1542  0.1266 -0.2464
  109MOL    H7541331   6.737   7.247   5.046 -0.8186 -0.7168  2.5853
  109MOL    H7641332   6.658   7.206   4.906  1.5720 -1.4671 -1.2637
  109MOL    H7741333   6.599   7.135   5.060  0.5470 -2.8651 -0.3752
  109MOL    C7841334   6.493   6.850   5.239  1.1573  0.3284  0.7029
  109MOL    C7941335   6.434   6.709   5.239 -0.2011 -0.7692 -0.5623
  109MOL    O8041336   6.292   6.726   5.262  0.3965  0.2103  0.1160
  109MOL    C8141337   6.250   6.731   5.402 -0.0160  0.6376  0.6436
  109MOL    C8241338   6.096   6.724   5.428  0.0257 -0.2859  0.3451
  109MOL    C8341339   6.049   6.760   5.568 -0.0305 -0.3155  0.3570
  109MOL    C8441340   6.034   6.597   5.381  0.3814 -0.1607 -0.1222
  109MOL    H8541341   6.463   6.891   5.143  1.2327  1.3417  1.1063
  109MOL    H8641342   6.438   6.915   5.307 -0.6204 -0.4685  0.0561
  109MOL    H8741343   6.462   6.647   5.325  1.9632  0.6353 -0.2327
  109MOL    H8841344   6.295   6.657   5.469 -1.9918 -0.4492  0.8039
  109MOL    H8941345   6.292   6.822   5.445  2.2352 -0.6255  1.1800
  109MOL    H9041346   6.055   6.803   5.365  1.1596  1.0939  1.2855
  109MOL    H9141347   5.941   6.762   5.578 -0.1939 -1.2904 -1.1454
  109MOL    H9241348   6.089   6.853   5.610  0.8105 -0.6826  0.3885
  109MOL    H9341349   6.087   6.684   5.637  0.3883 -0.5154 -0.0883
  109MOL    H9441350   6.056   6.504   5.433  0.4250 -0.5517 -0.8189
  109MOL    H9541351   6.053   6.590   5.273  1.0093  0.5873 -0.0652
  109MOL    H9641352   5.926   6.597   5.386  0.4399 -0.0507  1.0985
  109MOL    C9741353   6.457   6.637   5.111  0.1843  0.2281 -0.1717
  109MOL    C9841354   6.406   6.489   5.109  0.5787 -0.1094  0.4253
  109MOL    O9941355   6.500   6.417   5.192 -0.1316 -0.4676  0.6755
  109MOL   C10041356   6.438   6.305   5.249  0.4419 -0.1563  0.1802
  109MOL   C10141357   6.527   6.208   5.321 -0.4543 -0.1386  0.2335
  109MOL   C10241358   6.457   6.087   5.383 -0.4162  0.4614  0.1942
  109MOL   C10341359   6.646   6.153   5.247  0.0541 -0.4084 -0.4735
  109MOL   H10441360   6.554   6.633   5.062  0.6698 -0.0376  0.7935
  109MOL   H10541361   6.400   6.695   5.039  1.0370 -1.3720 -2.1617
  109MOL   H10641362   6.309   6.487   5.160  0.5950 -0.7257  0.4413
  109MOL   H10741363   6.383   6.246   5.175 -0.2845 -0.2713  0.8026
  109MOL   H10841364   6.373   6.357   5.320  1.1657 -0.8868  1.3956
  109MOL   H10941365   6.569   6.255   5.410  0.5289 -1.7830  0.6396
  109MOL   H11041366   6.372   6.125   5.440  0.8315  0.2627  2.2513
  109MOL   H11141367   6.414   6.013   5.315  0.5219  0.7084 -0.6755
  109MOL   H11241368   6.523   6.029   5.449 -1.3182 -0.7176  0.0832
  109MOL   H11341369   6.615   6.097   5.159 -0.3832 -0.5051 -0.2584
  109MOL   H11441370   6.715   6.229   5.211  0.2440  0.7828  2.3351
  109MOL   H11541371   6.705   6.081   5.304 -1.5848 -1.2401  0.2309
  109MOL   C11641372   6.394   6.430   4.965  0.7024 -0.3512  0.2853
  109MOL   C11741373   6.265   6.337   4.945 -0.3547  0.3033 -0.4283
  109MOL   O11841374   6.163   6.401   4.876  0.2085 -0.0782 -0.3211
  109MOL   C11941375   6.100   6.504   4.942  0.5052 -0.3775 -0.7773
  109MOL   C12041376   5.984   6.563   4.846 -0.1245 -0.2644 -0.4182
  109MOL   C12141377   5.877   6.644   4.920 -0.5958 -0.2118 -0.1640
  109MOL   C12241378   6.052   6.661   4.737  0.4039 -0.2784 -0.6031
  109MOL   H12341379   6.413   6.497   4.882 -1.0371  1.1490  1.0694
  109MOL   H12441380   6.475   6.357   4.959  1.4205  0.2773  1.9275
  109MOL   H12541381   6.223   6.297   5.037 -2.6116  0.6541 -1.2895
  109MOL   H12641382   6.167   6.586   4.966 -0.3430  0.3936 -1.0419
  109MOL   H12741383   6.042   6.471   5.028  0.7476 -0.2654 -0.5703
  109MOL   H12841384   5.935   6.480   4.795 -0.8206 -1.4843  2.1696
  109MOL   H12941385   5.850   6.607   5.019  0.5111  0.7834  0.5116
  109MOL   H13041386   5.791   6.657   4.855  0.2193 -0.7607 -1.3842
  109MOL   H13141387   5.921   6.743   4.932 -1.4876  0.1152  0.5072
  109MOL   H13241388   5.987   6.710   4.665 -0.1361 -1.0984 -0.6780
  109MOL   H13341389   6.097   6.742   4.795  1.3510 -1.2942  0.1087
  109MOL   H13441390   6.130   6.604   4.686 -0.9494 -2.1068 -0.6748
  109MOL   C13541391   6.311   6.221   4.856  0.2202 -0.2472  0.0884
  109MOL   C13641392   6.207   6.125   4.803  0.3414 -0.3489 -0.5542
  109MOL   O13741393   6.277   6.040   4.710  0.5657 -0.4745 -0.1307
  109MOL   C13841394   6.219   6.046   4.577  0.3502 -0.2521 -0.6131
  109MOL   C13941395   6.306   5.972   4.479  0.1418  0.1725  0.1202
  109MOL   C14041396   6.431   6.054   4.446 -0.8659 -0.4299  0.0599
  109MOL   C14141397   6.348   5.843   4.553 -0.3111  0.3650 -0.1502
  109MOL   H14241398   6.362   6.253   4.765  0.7194 -1.5913 -0.1092
  109MOL   H14341399   6.380   6.161   4.915  0.4461 -0.2387 -0.1686
  109MOL   H14441400   6.131   6.183   4.751  0.2284  0.2489  0.2725
  109MOL   H14541401   6.185   6.144   4.544 -0.0297  0.1335  0.9003
  109MOL   H14641402   6.125   5.989   4.575  0.4025 -0.4277  1.5514
  109MOL   H14741403   6.249   5.957   4.387 -0.1455  1.0767  0.1415
  109MOL   H14841404   6.408   6.151   4.401  1.1760 -1.6013 -3.7521
  109MOL   H14941405   6.492   5.997   4.375 -0.7531 -0.8489  0.4879
  109MOL   H15041406   6.485   6.077   4.537 -0.7185 -1.4809  0.2461
  109MOL   H15141407   6.405   5.776   4.487 -0.6047  0.1965 -0.2348
  109MOL   H15241408   6.413   5.863   4.638  0.3587  0.5785 -0.7048
  109MOL   H15341409   6.258   5.794   4.589  2.3572 -4.4480  0.4547
  109MOL   C15441410   6.150   6.044   4.916 -0.2381  0.1224  0.4403
  109MOL   C15541411   6.032   5.952   4.882  0.1634 -0.3259  0.5873
  109MOL   O15641412   6.049   5.837   4.961 -0.1928 -0.3325  0.3453
  109MOL   C15741413   6.128   5.725   4.906  0.6374 -0.0601  0.1561
  109MOL   C15841414   6.084   5.598   4.980  1.0849  0.8277  0.5909
  109MOL   C15941415   6.170   5.478   4.928  0.0427 -0.9023  0.0935
  109MOL   C16041416   6.122   5.617   5.129 -0.2336 -0.0617  0.4896
  109MOL   H16141417   6.134   6.095   5.010  1.0446 -0.9183  1.2520
  109MOL   H16241418   6.236   5.982   4.942 -0.4612  0.1656  1.2891
  109MOL   H16341419   6.034   5.922   4.777 -1.6550 -0.3035  0.5239
  109MOL   H16441420   6.229   5.755   4.933  1.7861 -3.1410 -0.5327
  109MOL   H16541421   6.114   5.716   4.798  0.0985 -0.7275  0.2757
  109MOL   H16641422   5.979   5.569   4.973  0.4226  2.5745  2.6413
  109MOL   H16741423   6.277   5.493   4.939 -0.1606  0.0194  0.9763
  109MOL   H16841424   6.149   5.462   4.822 -0.6691 -0.1676  0.1138
  109MOL   H16941425   6.139   5.395   4.991 -2.2798 -1.9057 -2.2904
  109MOL   H17041426   6.060   5.696   5.170 -0.5018  0.5022 -0.9979
  109MOL   H17141427   6.104   5.527   5.188  0.8938 -0.6945 -0.1185
  109MOL   H17241428   6.228   5.634   5.150  0.0244  1.7121 -1.9993
  109MOL   C17341429   5.897   6.020   4.918 -0.1822  0.1710 -0.6631
  109MOL   C17441430   5.762   5.952   4.876 -0.7874  0.5507 -0.3437
  109MOL   O17541431   5.759   5.904   4.740  0.0817  0.0747 -0.6158
  109MOL   C17641432   5.780   6.006   4.641 -0.5552 -0.0432  0.1435
  109MOL   C17741433   5.741   5.940   4.502  0.3545 -0.7487  0.0406
  109MOL   C17841434   5.676   6.038   4.397  0.2479  0.0157  0.2504
  109MOL   C17941435   5.859   5.873   4.438  0.3961  0.4533 -0.4796
  109MOL   H18041436   5.897   6.045   5.024  0.8772  0.1289 -0.6524
  109MOL   H18141437   5.881   6.112   4.861 -3.1073 -0.4655 -0.9718
  109MOL   H18241438   5.682   6.023   4.897 -0.1288  1.3648 -0.5635
  109MOL   H18341439   5.880   6.046   4.626 -1.1848  1.0481 -1.2731
  109MOL   H18441440   5.709   6.087   4.658 -0.5563  0.2269 -1.1231
  109MOL   H18541441   5.672   5.859   4.527  0.5740 -0.1800  2.5682
  109MOL   H18641442   5.688   5.993   4.298  0.0865 -1.6789  0.9765
  109MOL   H18741443   5.571   6.051   4.421 -0.3475 -0.6757 -1.8341
  109MOL   H18841444   5.728   6.133   4.390 -0.5538  0.4434  0.1344
  109MOL   H18941445   5.927   5.943   4.388 -0.1294  1.6511  0.4413
  109MOL   H19041446   5.828   5.794   4.370  1.1568 -0.9447  0.7620
  109MOL   H19141447   5.910   5.814   4.514 -1.1110 -0.9390 -0.5224
  109MOL   C19241448   5.729   5.833   4.968 -0.0855 -0.4429 -0.1109
  109MOL   C19341449   5.663   5.876   5.107 -0.5733 -0.6008 -1.0907
  109MOL   O19441450   5.661   5.757   5.188  0.0810 -0.1141 -0.3009
  109MOL   C19541451   5.774   5.737   5.268 -0.9379  0.2740 -0.1741
  109MOL   C19641452   5.751   5.602   5.330  0.2762 -0.1717  0.2769
  109MOL   C19741453   5.868   5.564   5.425 -0.4637  0.4138  0.4398
  109MOL   C19841454   5.719   5.502   5.224  0.7615  0.3024  0.2261
  109MOL   H19941455   5.819   5.772   4.975 -0.1502 -0.5144  0.0912
  109MOL   H20041456   5.651   5.769   4.925  1.2320 -1.8642 -0.4042
  109MOL   H20141457   5.717   5.952   5.163  3.4238 -3.3261 -1.0847
  109MOL   H20241458   5.796   5.821   5.333  0.5715 -0.2002 -0.0587
  109MOL   H20341459   5.865   5.738   5.208 -0.5534 -0.2523  0.4004
  109MOL   H20441460   5.679   5.604   5.412  0.2360  2.5173  0.2022
  109MOL   H20541461   5.855   5.466   5.471  2.6763  0.1335  0.8299
  109MOL   H20641462   5.968   5.563   5.381 -0.1067 -4.4777  1.0948
  109MOL   H20741463   5.881   5.642   5.499  0.1489 -1.0247  1.8887
  109MOL   H20841464   5.730   5.403   5.268 -0.0012  0.5438  0.9778
  109MOL   H20941465   5.615   5.509   5.194  0.8622 -1.1285 -0.5133
  109MOL   H21041466   5.777   5.504   5.132 -0.4186 -1.0545 -0.5693
  109MOL   C21141467   5.522   5.927   5.084 -0.4159 -0.4236  0.3935
  109MOL   C21241468   5.467   6.027   5.193  0.1971 -0.1325 -0.1182
  109MOL   O21341469   5.488   6.162   5.142  0.2715  0.1877  0.6305
  109MOL   C21441470   5.514   6.259   5.244 -0.1588 -0.0607  0.1530
  109MOL   C21541471   5.511   6.396   5.178 -0.2510 -0.4289  0.0852
  109MOL   C21641472   5.466   6.505   5.276 -0.7565  0.2745 -0.0787
  109MOL   C21741473   5.656   6.424   5.129  0.6833 -0.1754 -0.4298
  109MOL   H21841474   5.465   5.834   5.089 -0.4366 -0.6820 -3.2215
  109MOL   H21941475   5.502   5.973   4.987  2.5828 -0.4560 -0.3004
  109MOL   H22041476   5.517   6.002   5.286 -0.8751  3.2798  1.4175
  109MOL   H22141477   5.607   6.225   5.290 -0.3313 -1.2095 -0.3324
  109MOL   H22241478   5.438   6.243   5.320 -1.3040 -0.6101 -1.0812
  109MOL   H22341479   5.442   6.390   5.094 -0.7773  0.4912  0.4454
  109MOL   H22441480   5.513   6.489   5.373  0.5278  2.0727 -0.3727
  109MOL   H22541481   5.488   6.606   5.241 -0.9519 -0.1569 -1.4930
  109MOL   H22641482   5.358   6.503   5.290 -0.7330 -0.0414  0.0656
  109MOL   H22741483   5.683   6.348   5.055 -0.1890  0.4113 -1.3629
  109MOL   H22841484   5.722   6.421   5.216 -0.5633  0.3062  0.5489
  109MOL   H22941485   5.664   6.522   5.084 -1.7198 -0.4512 -1.5356
  109MOL   C23041486   5.314   6.006   5.212 -0.5914 -0.7763 -0.3148
  109MOL   C23141487   5.252   5.881   5.274 -0.1128  0.9821 -0.7548
  109MOL   O23241488   5.324   5.861   5.403  0.0229 -0.9847  0.3691
  109MOL   C23341489   5.401   5.739   5.402 -0.3830 -0.4145 -0.2281
  109MOL   C23441490   5.449   5.703   5.546 -0.4263  0.2218  0.0161
  109MOL   C23541491   5.548   5.796   5.609  0.8087 -0.5733 -0.1679
  109MOL   C23641492   5.335   5.673   5.649  0.3393 -0.3540  0.6376
  109MOL   H23741493   5.268   6.025   5.115 -0.8276 -3.0005 -0.6631
  109MOL   H23841494   5.285   6.093   5.272  1.6419  1.6344 -2.6402
  109MOL   H23941495   5.258   5.790   5.215  1.3964  0.1360  0.6481
  109MOL   H24041496   5.343   5.658   5.358 -0.5122 -0.3900 -0.1043
  109MOL   H24141497   5.482   5.753   5.332 -0.0405  1.4200  0.5153
  109MOL   H24241498   5.496   5.605   5.537  0.5006  0.4607  1.8589
  109MOL   H24341499   5.645   5.773   5.563  1.5824 -0.8407  1.5702
  109MOL   H24441500   5.552   5.785   5.717 -0.7481  0.3073 -0.0032
  109MOL   H24541501   5.523   5.898   5.580 -0.0061 -0.7530 -0.0938
  109MOL   H24641502   5.274   5.590   5.614 -1.6010  1.8125 -1.3219
  109MOL   H24741503   5.373   5.639   5.746  0.2932 -0.1181  0.7381
  109MOL   H24841504   5.280   5.764   5.672 -0.3300 -0.4591 -0.5232
  109MOL   C24941505   5.098   5.905   5.314 -0.4718 -0.5385  0.4223
  109MOL   C25041506   5.004   5.795   5.363  0.2010  0.2821  0.2591
  109MOL   O25141507   4.919   5.863   5.455  0.1394 -0.1805 -0.4854
  109MOL   C25241508   4.947   5.842   5.594  0.1700  0.1460  0.9090
  109MOL   C25341509   4.888   5.714   5.651  0.2969  0.5441 -0.1230
  109MOL   C25441510   4.733   5.724   5.650  0.0732  0.4048 -0.3766
  109MOL   C25541511   4.934   5.680   5.794 -0.6234 -0.2583 -0.4611
  109MOL   H25641512   5.049   5.965   5.238  1.2458 -0.7538 -0.8853
  109MOL   H25741513   5.105   5.989   5.384  1.1950  1.2377 -1.7858
  109MOL   H25841514   5.062   5.715   5.411 -0.6766  0.9713  2.5208
  109MOL   H25941515   5.053   5.825   5.617  0.7835 -0.6587 -2.2657
  109MOL   H26041516   4.920   5.933   5.647  0.9124  1.8009 -1.4728
  109MOL   H26141517   4.920   5.635   5.583  0.0225  0.1937  0.1537
  109MOL   H26241518   4.689   5.802   5.712 -2.2573 -0.3457 -1.0434
  109MOL   H26341519   4.690   5.630   5.686  0.2672  1.1996  2.0386
  109MOL   H26441520   4.704   5.733   5.545  0.0101  2.1791 -0.2214
  109MOL   H26541521   5.022   5.743   5.812 -0.3069 -0.7993 -0.1059
  109MOL   H26641522   4.865   5.709   5.874  0.1902 -1.1560  0.5969
  109MOL   H26741523   4.955   5.574   5.806  0.7442  0.1405  0.8863
  109MOL   C26841524   4.911   5.738   5.261 -0.4101 -0.0919  0.1729
  109MOL   C26941525   4.978   5.672   5.135  0.4091 -0.2046  0.2155
  109MOL   O27041526   5.084   5.583   5.164 -0.0629 -0.0135 -0.0694
  109MOL   C27141527   5.042   5.463   5.230 -0.5722  0.1166  0.3704
  109MOL   C27241528   5.146   5.348   5.222  0.0668  0.3758  0.1756
  109MOL   C27341529   5.196   5.329   5.078  0.0313  0.4167  1.1478
  109MOL   C27441530   5.256   5.369   5.326  0.4356 -0.0273  0.7552
  109MOL   H27541531   4.834   5.810   5.234 -0.8646  0.3334  2.4956
  109MOL   H27641532   4.861   5.656   5.314 -0.8158  1.3048  2.0055
  109MOL   H27741533   4.904   5.607   5.087 -2.0652  2.2965  0.4839
  109MOL   H27841534   5.041   5.491   5.336 -0.7370  1.1878  0.0929
  109MOL   H27941535   4.953   5.423   5.182 -0.2855  1.8567 -1.6995
  109MOL   H28041536   5.089   5.262   5.256  0.7449 -0.4011 -0.6131
  109MOL   H28141537   5.117   5.300   5.009  1.3158  1.0576 -0.6428
  109MOL   H28241538   5.277   5.258   5.065 -0.1184  0.3138  0.7675
  109MOL   H28341539   5.231   5.420   5.029 -2.9100  0.7155 -0.5389
  109MOL   H28441540   5.223   5.352   5.429  1.3806 -0.5005  0.9815
  109MOL   H28541541   5.298   5.469   5.328  1.0286 -0.2803  1.6990
  109MOL   H28641542   5.343   5.306   5.305 -1.5543 -2.3126 -0.9380
  109MOL   C28741543   5.018   5.779   5.029  0.1629 -0.2657  0.1054
  109MOL   C28841544   5.016   5.703   4.891 -0.0250 -0.3129  0.3422
  109MOL   O28941545   5.069   5.791   4.795 -0.3846  0.1714  0.2699
  109MOL   C29041546   5.209   5.807   4.791  0.2111  0.4100 -0.2027
  109MOL   C29141547   5.239   5.878   4.652  0.3769  0.0022 -0.1698
  109MOL   C29241548   5.213   5.779   4.536  0.2617  0.1775 -0.0473
  109MOL   C29341549   5.383   5.930   4.656  0.1436  0.3042  0.1214
  109MOL   H29441550   5.119   5.816   5.046 -0.5096  1.7861 -0.2831
  109MOL   H29541551   4.952   5.865   5.029  1.1200  0.5365 -2.3680
  109MOL   H29641552   5.081   5.615   4.892  0.1198 -0.2065  0.2804
  109MOL   H29741553   5.250   5.873   4.867  0.9543 -0.8166  0.4855
  109MOL   H29841554   5.266   5.714   4.804 -1.6759 -0.5345  1.7512
  109MOL   H29941555   5.175   5.965   4.641  0.9860  0.2566 -2.0279
  109MOL   H30041556   5.107   5.753   4.538  0.2874 -0.0135 -1.1236
  109MOL   H30141557   5.271   5.690   4.559 -1.3188 -0.1185  3.1614
  109MOL   H30241558   5.235   5.821   4.438 -2.2011  2.6961  0.4344
  109MOL   H30341559   5.460   5.853   4.667  1.3511  1.0951 -2.4601
  109MOL   H30441560   5.411   5.976   4.562  0.0890 -2.4493 -1.2856
  109MOL   H30541561   5.406   6.004   4.733 -0.2093  0.0582  0.4695
  109MOL   C30641562   4.881   5.670   4.840  0.0501 -0.0912 -0.1505
  109MOL   C30741563   4.870   5.531   4.782 -0.3277  0.1760  0.0729
  109MOL   O30841564   4.735   5.508   4.740 -0.4620 -0.5279  0.4996
  109MOL   C30941565   4.675   5.420   4.830 -0.1388  0.3832 -0.3245
  109MOL   C31041566   4.528   5.406   4.791 -0.2534  0.0760  0.0072
  109MOL   C31141567   4.512   5.374   4.639 -0.3791 -0.0940  0.0535
  109MOL   C31241568   4.457   5.533   4.818 -0.0017  0.0878 -0.0972
  109MOL   H31341569   4.852   5.749   4.771  1.1000 -0.6483 -1.2362
  109MOL   H31441570   4.809   5.691   4.919 -0.6119  0.4950 -0.9113
  109MOL   H31541571   4.890   5.457   4.859  0.2675  2.3637  2.0964
  109MOL   H31641572   4.680   5.449   4.934  2.8849  0.0231 -0.3076
  109MOL   H31741573   4.721   5.321   4.824  0.8422  0.8046  0.0837
  109MOL   H31841574   4.475   5.335   4.855 -0.8292  0.6767  0.2011
  109MOL   H31941575   4.409   5.396   4.612 -0.9168  0.2962  2.2728
  109MOL   H32041576   4.546   5.271   4.630 -0.2136 -0.0574  0.2331
  109MOL   H32141577   4.590   5.427   4.585  0.4773 -1.0122  0.3657
  109MOL   H32241578   4.502   5.621   4.773 -0.9833 -0.3786 -2.0239
  109MOL   H32341579   4.456   5.551   4.926  5.8299 -1.4884  0.3789
  109MOL   H32441580   4.351   5.536   4.790  0.2069 -1.4621 -1.0828
  109MOL   C32541581   4.953   5.504   4.656 -0.1977  0.3753 -0.3473
  109MOL   C32641582   4.949   5.358   4.607 -0.4552 -0.3898  0.1486
  109MOL   O32741583   4.999   5.347   4.476 -0.0472  0.0223  0.5709
  109MOL   C32841584   5.140   5.359   4.451 -0.4767  0.5193  0.4966
  109MOL   C32941585   5.168   5.292   4.319  0.3971 -0.2534  0.2682
  109MOL   C33041586   5.310   5.263   4.294  0.1321 -0.2786 -0.5358
  109MOL   C33141587   5.087   5.164   4.295 -0.4994 -0.0102  0.3385
  109MOL   H33241588   5.053   5.541   4.678  0.5512 -0.8876 -1.5527
  109MOL   H33341589   4.929   5.576   4.578 -2.4895  1.1369  0.9959
  109MOL   H33441590   4.844   5.329   4.607 -0.2815 -1.1054  2.1687
  109MOL   H33541591   5.188   5.457   4.454  0.7875 -0.1009  0.6779
  109MOL   H33641592   5.201   5.299   4.519 -0.1305  1.5645  1.1360
  109MOL   H33741593   5.130   5.361   4.244  0.7957  0.5392  0.7924
  109MOL   H33841594   5.327   5.216   4.197  1.0538 -1.5758  0.2314
  109MOL   H33941595   5.364   5.357   4.282  2.3302 -1.3711  0.4809
  109MOL   H34041596   5.350   5.201   4.374  0.4242 -1.3131 -1.4663
  109MOL   H34141597   5.109   5.137   4.191 -0.0168  0.1435  0.3995
  109MOL   H34241598   5.128   5.083   4.355  2.5028  1.4303  0.2775
  109MOL   H34341599   4.978   5.168   4.299 -0.5339 -0.8262  0.3268
  109MOL   C34441600   5.017   5.256   4.706  0.1347  0.3416 -0.0834
  109MOL   C34541601   5.046   5.109   4.669  0.0829 -0.8218 -0.5297
  109MOL   O34641602   5.158   5.074   4.746 -0.5973  0.3809 -0.1600
  109MOL   C34741603   5.272   5.025   4.665 -0.3667 -0.8286 -0.0074
  109MOL   C34841604   5.412   5.016   4.741 -0.7059 -0.0306  0.3947
  109MOL   C34941605   5.442   5.152   4.803 -0.2933 -0.1536  0.5817
  109MOL   C35041606   5.527   4.981   4.645 -0.0382  0.0551  0.1201
  109MOL   H35141607   4.956   5.248   4.796  1.2818  1.3509  0.8109
  109MOL   H35241608   5.115   5.295   4.732  0.7779 -0.7826 -0.7997
  109MOL   H35341609   5.054   5.095   4.561 -2.5245  0.8649 -0.9823
  109MOL   H35441610   5.278   5.089   4.577 -0.1061 -3.3386 -1.8664
  109MOL   H35541611   5.252   4.927   4.623  0.3372 -0.3930 -1.3634
  109MOL   H35641612   5.406   4.940   4.819 -0.6560 -0.0194  0.4086
  109MOL   H35741613   5.542   5.156   4.846  0.8008 -1.9684 -1.7190
  109MOL   H35841614   5.372   5.185   4.880 -1.3210 -1.1836  0.1078
  109MOL   H35941615   5.439   5.233   4.730  1.7464  0.0729  0.7118
  109MOL   H36041616   5.499   4.908   4.569  0.5252  0.7609 -0.7852
  109MOL   H36141617   5.563   5.069   4.591 -0.6742  0.0775 -0.2757
  109MOL   H36241618   5.616   4.944   4.696  0.8055  1.0764 -0.5843
  109MOL   C36341619   4.937   5.001   4.693  0.2591 -0.7908  0.1948
  109MOL   C36441620   4.800   5.023   4.630 -0.3401 -0.1042 -0.1086
  109MOL   O36541621   4.725   4.908   4.656  0.3065  0.0414  0.3899
  109MOL   C36641622   4.592   4.912   4.608 -0.1428 -0.0591 -0.5168
  109MOL   C36741623   4.525   4.791   4.656 -0.4259  0.2267  0.7379
  109MOL   C36841624   4.566   4.678   4.569 -0.2537 -0.2519 -0.5818
  109MOL   C36941625   4.365   4.809   4.661  0.6438 -0.6416  0.1745
  109MOL   H37041626   4.983   4.904   4.679 -1.0358 -1.3204 -0.4918
  109MOL   H37141627   4.926   5.001   4.802  1.0014  0.7474  0.2859
  109MOL   H37241628   4.819   5.020   4.523  1.7344  0.5549  0.2158
  109MOL   H37341629   4.546   4.992   4.666  0.3324 -0.4004  0.3319
  109MOL   H37441630   4.578   4.932   4.501  2.3844 -1.3923 -1.1177
  109MOL   H37541631   4.553   4.774   4.760 -0.6247  0.4208  0.8250
  109MOL   H37641632   4.550   4.694   4.462 -0.0239 -1.5394 -0.8184
  109MOL   H37741633   4.510   4.586   4.586 -1.6465  1.0483  2.1114
  109MOL   H37841634   4.670   4.650   4.582 -0.5511 -2.0364 -1.8379
  109MOL   H37941635   4.321   4.863   4.577  2.0017  1.7728  0.9692
  109MOL   H38041636   4.343   4.863   4.753 -2.1164 -3.2440  1.1518
  109MOL   H38141637   4.318   4.712   4.677 -0.2539  0.3064  3.9004
  109MOL   H38241638   4.759   5.117   4.670  2.4094  0.5940  1.1742
  110MOL     C141639   2.699   6.233   5.220  0.8296  0.0181 -0.4595
  110MOL     C241640   2.629   6.241   5.355 -1.1660  0.4169 -0.0252
  110MOL     O341641   2.495   6.288   5.336 -0.2581 -0.5455  0.5757
  110MOL     C441642   2.498   6.432   5.331 -0.2754  0.5791 -0.3669
  110MOL     C541643   2.362   6.499   5.349  0.3699 -0.8629  0.4191
  110MOL     C641644   2.350   6.649   5.328 -0.4342 -0.2655  0.8418
  110MOL     C741645   2.293   6.460   5.486 -0.3600  0.1231  0.7557
  110MOL     H841646   2.791   6.175   5.226  0.4290 -0.6264 -0.4617
  110MOL     H941647   2.635   6.167   5.161 -0.3596 -0.6262  1.4892
  110MOL    H1041648   2.678   6.315   5.419 -1.0926 -0.5779  1.0866
  110MOL    H1141649   2.546   6.468   5.241  0.1054 -2.3791 -1.4067
  110MOL    H1241650   2.561   6.478   5.407  0.6178 -1.9515  0.4898
  110MOL    H1341651   2.306   6.459   5.265 -0.2400  0.0391  0.3884
  110MOL    H1441652   2.248   6.687   5.342 -1.0744 -1.1909 -1.1089
  110MOL    H1541653   2.408   6.698   5.405  1.0480 -1.2703  0.3732
  110MOL    H1641654   2.366   6.679   5.224 -0.0930 -1.2249  0.6081
  110MOL    H1741655   2.355   6.494   5.569 -0.4373 -1.1908  1.3615
  110MOL    H1841656   2.198   6.511   5.499 -0.0847  0.7177  0.4984
  110MOL    H1941657   2.283   6.352   5.498 -0.1056 -0.3710 -2.8091
  110MOL    H2041658   2.723   6.327   5.171  0.9970  0.2016 -0.0312
  110MOL    C2141659   2.608   6.102   5.428 -0.2080  0.3881 -0.1762
  110MOL    C2241660   2.738   6.042   5.487  0.2799 -0.5414  0.2929
  110MOL    O2341661   2.763   6.126   5.599 -0.0464 -0.0279 -0.2370
  110MOL    C2441662   2.888   6.193   5.606 -0.3372  0.2679  0.9286
  110MOL    C2541663   2.880   6.274   5.730  1.1120 -0.3132  0.1755
  110MOL    C2641664   2.753   6.368   5.731  0.0686 -0.2750 -0.7183
  110MOL    C2741665   2.890   6.190   5.862 -0.2901 -0.2811 -0.5952
  110MOL    H2841666   2.539   6.119   5.510  1.1399  2.6640  0.5013
  110MOL    H2941667   2.561   6.025   5.366 -0.2148  0.1486  0.1271
  110MOL    H3041668   2.814   6.023   5.411 -0.0295  2.7936 -0.9573
  110MOL    H3141669   2.889   6.265   5.525  1.9676  0.3276  0.9909
  110MOL    H3241670   2.974   6.127   5.601  0.5905  1.5385  0.0770
  110MOL    H3341671   2.963   6.344   5.740  0.8747 -0.0193  0.0947
  110MOL    H3441672   2.658   6.315   5.738 -1.3982  2.3908  0.0283
  110MOL    H3541673   2.754   6.438   5.648 -1.9661 -2.4300 -2.6563
  110MOL    H3641674   2.743   6.424   5.823 -0.4490  0.2743 -1.1027
  110MOL    H3741675   2.887   6.249   5.954  0.6931  0.7904 -1.2403
  110MOL    H3841676   2.808   6.119   5.873 -0.9942  0.7943  1.4528
  110MOL    H3941677   2.981   6.132   5.853 -1.2934 -1.7765 -1.3459
  110MOL    C4041678   2.708   5.906   5.544 -0.2487  0.6004  0.4982
  110MOL    C4141679   2.831   5.822   5.574 -0.2584 -0.0797 -0.3681
  110MOL    O4241680   2.793   5.686   5.590 -0.1562 -0.0748 -0.6361
  110MOL    C4341681   2.819   5.607   5.469 -0.3103 -0.1091 -0.8565
  110MOL    C4441682   2.759   5.465   5.482 -0.0675  0.0729  0.7362
  110MOL    C4541683   2.789   5.381   5.359  0.0136 -1.0040 -0.2081
  110MOL    C4641684   2.810   5.389   5.611  0.3202  0.6953 -0.2641
  110MOL    H4741685   2.660   5.839   5.473 -2.1726  1.4686  0.9708
  110MOL    H4841686   2.638   5.927   5.625 -1.0165 -1.2096  0.3315
  110MOL    H4941687   2.903   5.835   5.493  1.2877 -1.6099  0.7305
  110MOL    H5041688   2.927   5.598   5.458 -0.4570 -0.5422 -1.9843
  110MOL    H5141689   2.772   5.669   5.393  1.6887  1.0111 -1.2078
  110MOL    H5241690   2.654   5.494   5.492 -0.9482 -2.9085  0.7400
  110MOL    H5341691   2.795   5.458   5.282  0.4977  0.1845  0.9996
  110MOL    H5441692   2.886   5.332   5.354 -0.3420 -1.7774  0.5025
  110MOL    H5541693   2.710   5.313   5.327 -0.7225  0.5318 -1.7769
  110MOL    H5641694   2.740   5.314   5.648  1.3166 -0.8780 -1.4887
  110MOL    H5741695   2.816   5.462   5.692  0.0818  0.9051 -0.4329
  110MOL    H5841696   2.901   5.330   5.602 -0.1508 -1.0516  5.0930
  110MOL    C5941697   2.903   5.853   5.706 -0.3065  0.1057  0.3873
  110MOL    C6041698   3.046   5.797   5.725  0.5255  0.1512  0.1983
  110MOL    O6141699   3.059   5.756   5.862 -0.3471 -0.2496 -0.4311
  110MOL    C6241700   3.011   5.623   5.896 -0.0591  0.0459  0.2598
  110MOL    C6341701   3.091   5.563   6.016  0.1495  0.7936  0.8740
  110MOL    C6441702   3.244   5.557   5.983  0.0317 -0.6002  0.5910
  110MOL    C6541703   3.076   5.638   6.144  0.0007  0.2719 -0.6579
  110MOL    H6641704   2.839   5.815   5.785 -0.6409  0.0851  0.1087
  110MOL    H6741705   2.912   5.961   5.718 -1.5929  0.5548 -2.4253
  110MOL    H6841706   3.042   5.712   5.657  0.6125  1.7034 -1.7698
  110MOL    H6941707   2.907   5.631   5.926 -0.5164 -1.8631 -0.7523
  110MOL    H7041708   3.014   5.547   5.818  2.0002  0.2659  0.0792
  110MOL    H7141709   3.058   5.461   6.035  1.4955  0.3759  1.0152
  110MOL    H7241710   3.305   5.517   6.063 -0.5039  0.0455  1.3310
  110MOL    H7341711   3.280   5.654   5.947  1.2553 -1.2874 -0.0659
  110MOL    H7441712   3.264   5.496   5.895 -0.5599 -1.6295  1.1689
  110MOL    H7541713   3.119   5.576   6.222 -0.8383 -1.2548 -1.3816
  110MOL    H7641714   3.124   5.735   6.131  0.8849 -0.3496 -2.2087
  110MOL    H7741715   2.974   5.670   6.166  0.3052  0.5436  0.3910
  110MOL    C7841716   3.164   5.887   5.684 -0.3091  0.8591  0.9087
  110MOL    C7941717   3.276   5.795   5.625 -0.3563  0.2662  0.9714
  110MOL    O8041718   3.212   5.750   5.504 -0.1737  0.3695  0.4417
  110MOL    C8141719   3.275   5.633   5.444 -0.1846  0.8422 -0.9556
  110MOL    C8241720   3.188   5.575   5.331  0.0248 -0.5007 -0.6578
  110MOL    C8341721   3.254   5.464   5.246 -0.3696 -0.2832  0.6541
  110MOL    C8441722   3.137   5.679   5.239  0.2221 -0.2937  0.3723
  110MOL    H8541723   3.195   5.947   5.769  0.7524 -1.4738  2.2249
  110MOL    H8641724   3.139   5.958   5.605 -0.9650 -0.6217 -0.2282
  110MOL    H8741725   3.280   5.706   5.688 -0.1280  0.2839  0.9825
  110MOL    H8841726   3.376   5.654   5.409 -0.1795  0.6679 -1.0449
  110MOL    H8941727   3.292   5.554   5.517  0.4237  1.7095 -0.1357
  110MOL    H9041728   3.113   5.521   5.388  1.4348 -1.1106  0.6734
  110MOL    H9141729   3.182   5.432   5.170 -1.6688  2.3009  0.7466
  110MOL    H9241730   3.277   5.374   5.303  1.5070  0.5838  1.2939
  110MOL    H9341731   3.348   5.499   5.205 -1.6168  1.7414 -0.5559
  110MOL    H9441732   3.070   5.745   5.294 -0.0823 -0.9389  0.7826
  110MOL    H9541733   3.070   5.647   5.159 -0.3779  1.5737  0.0895
  110MOL    H9641734   3.215   5.736   5.189 -0.0642 -0.7617 -0.6119
  110MOL    C9741735   3.412   5.866   5.600  0.0917 -0.7001 -0.1451
  110MOL    C9841736   3.422   5.987   5.499  0.3204 -0.4110  0.1036
  110MOL    O9941737   3.365   6.103   5.548  0.0911  0.3613  0.2807
  110MOL   C10041738   3.446   6.162   5.647 -0.3337  0.5830 -0.1218
  110MOL   C10141739   3.376   6.290   5.691 -0.5737  0.3914  0.0040
  110MOL   C10241740   3.232   6.260   5.743 -0.5018 -0.6986  0.2024
  110MOL   C10341741   3.451   6.369   5.792 -0.5760 -0.1110 -0.0956
  110MOL   H10441742   3.475   5.787   5.559  3.2162  1.2276  0.7217
  110MOL   H10541743   3.467   5.892   5.691  0.5330 -2.7097  0.1893
  110MOL   H10641744   3.526   6.012   5.476 -0.0296 -0.0686 -1.1707
  110MOL   H10741745   3.539   6.198   5.604  1.8255 -2.6088  1.7378
  110MOL   H10841746   3.464   6.096   5.732  0.1596  1.6643  0.6175
  110MOL   H10941747   3.358   6.363   5.612 -0.1538  1.1165  0.5749
  110MOL   H11041748   3.164   6.230   5.662  0.2780  3.5087 -2.1418
  110MOL   H11141749   3.236   6.190   5.826  1.2655  1.4059  1.9239
  110MOL   H11241750   3.190   6.353   5.781  0.4284  0.9627 -2.6564
  110MOL   H11341751   3.486   6.314   5.879  0.0457  1.9317  0.9963
  110MOL   H11441752   3.543   6.413   5.753 -0.7878  2.4464  2.0847
  110MOL   H11541753   3.391   6.455   5.824  0.2513  0.2149  0.6057
  110MOL   C11641754   3.365   5.959   5.357  1.0932 -0.1797 -0.0934
  110MOL   C11741755   3.401   6.070   5.254 -0.1619 -0.1852 -0.0558
  110MOL   O11841756   3.538   6.053   5.215  0.8106  0.2859  0.5810
  110MOL   C11941757   3.616   6.172   5.193  0.2819  0.2132  0.1991
  110MOL   C12041758   3.740   6.135   5.116  0.0688 -0.1988 -0.0329
  110MOL   C12141759   3.848   6.051   5.190  0.3746 -0.1890 -0.1519
  110MOL   C12241760   3.697   6.059   4.986 -0.9748 -0.0089  0.2134
  110MOL   H12341761   3.414   5.869   5.321 -1.2998 -1.5014 -0.1901
  110MOL   H12441762   3.257   5.946   5.363  1.0567 -0.4142 -1.2159
  110MOL   H12541763   3.399   6.172   5.292 -2.1676  0.3019 -1.3617
  110MOL   H12641764   3.654   6.211   5.287 -0.3494 -2.2245  1.5261
  110MOL   H12741765   3.556   6.241   5.134 -1.2285 -0.9607  0.3166
  110MOL   H12841766   3.791   6.227   5.090 -1.5668  0.2411 -1.8011
  110MOL   H12941767   3.935   6.031   5.126  0.6016  0.1148  0.0624
  110MOL   H13041768   3.819   5.951   5.224  2.1929 -0.4188  0.7829
  110MOL   H13141769   3.885   6.110   5.273  0.9230 -0.0909 -0.4612
  110MOL   H13241770   3.781   6.064   4.916 -0.6607 -1.3379  0.4801
  110MOL   H13341771   3.667   5.957   5.009  0.5699 -0.4067  0.5258
  110MOL   H13441772   3.623   6.121   4.937 -0.1597  0.9873  0.2243
  110MOL   C13541773   3.320   6.062   5.126  0.5750  0.1131  0.6068
  110MOL   C13641774   3.174   6.112   5.133  0.2640  0.2910 -0.6534
  110MOL   O13741775   3.185   6.244   5.191 -0.1409  0.5834  0.3132
  110MOL   C13841776   3.092   6.294   5.284 -0.2991  0.3018 -0.2159
  110MOL   C13941777   3.122   6.442   5.330 -0.5801  0.0936 -0.0072
  110MOL   C14041778   3.093   6.532   5.207 -0.2119  0.0265  0.4293
  110MOL   C14141779   3.043   6.500   5.447  0.4444 -0.1998 -0.5064
  110MOL   H14241780   3.370   6.121   5.049  0.2403 -1.5027 -0.8621
  110MOL   H14341781   3.322   5.963   5.081  1.8014  0.4863 -0.2030
  110MOL   H14441782   3.129   6.041   5.202  3.2711 -0.1584  0.9062
  110MOL   H14541783   3.095   6.237   5.377  3.4780  2.3517  1.0471
  110MOL   H14641784   2.997   6.302   5.231 -0.7676 -0.8138  0.4393
  110MOL   H14741785   3.228   6.449   5.354  0.3790 -3.5592 -2.6258
  110MOL   H14841786   3.114   6.636   5.232 -0.1521  0.3477 -0.9271
  110MOL   H14941787   2.992   6.526   5.166  0.8008 -0.0123 -2.1249
  110MOL   H15041788   3.156   6.498   5.125 -2.4074 -1.6825 -0.5918
  110MOL   H15141789   3.077   6.442   5.533 -0.0650 -0.1679 -0.2833
  110MOL   H15241790   3.073   6.602   5.472  2.7609 -0.7244 -1.0684
  110MOL   H15341791   2.935   6.499   5.435  0.4642 -0.2202 -0.6753
  110MOL   C15441792   3.101   6.124   4.999  0.3213 -0.3556 -0.5361
  110MOL   C15541793   3.061   5.991   4.942  0.5828  0.5636  0.7694
  110MOL   O15641794   2.941   6.019   4.861 -0.8057  0.3976  0.2022
  110MOL   C15741795   2.814   5.988   4.914  0.8002 -0.2581  0.0096
  110MOL   C15841796   2.716   5.987   4.804 -0.2642 -0.3786 -0.3183
  110MOL   C15941797   2.575   5.965   4.861 -0.0185 -0.3141  0.3004
  110MOL   C16041798   2.724   6.108   4.708 -0.0269 -0.1734 -0.8258
  110MOL   H16141799   3.160   6.171   4.920  1.6281 -2.2256 -0.6920
  110MOL   H16241800   3.009   6.181   5.017  0.7172  0.3288 -0.6562
  110MOL   H16341801   3.028   5.917   5.015 -0.7163 -1.1023 -1.4259
  110MOL   H16441802   2.806   6.055   4.999 -0.3951  0.2689 -0.5063
  110MOL   H16541803   2.816   5.888   4.957  1.0308  1.4403  4.1864
  110MOL   H16641804   2.740   5.903   4.738  2.0379  0.5920 -0.7928
  110MOL   H16741805   2.559   6.032   4.945  0.1014  0.5316 -0.3499
  110MOL   H16841806   2.565   5.865   4.903  0.3460 -0.2922  0.4379
  110MOL   H16941807   2.498   5.984   4.786 -0.9397  1.2174  1.6077
  110MOL   H17041808   2.824   6.142   4.684  0.0539  0.6795  0.7040
  110MOL   H17141809   2.679   6.077   4.613 -0.8703  1.1000 -0.8499
  110MOL   H17241810   2.664   6.193   4.740 -0.3474 -0.4876 -0.5866
  110MOL   C17341811   3.163   5.904   4.856  0.1284  0.5129 -0.0388
  110MOL   C17441812   3.256   5.979   4.758  0.1711 -0.1689 -0.3553
  110MOL   O17541813   3.325   5.878   4.691 -0.1401 -0.0438 -0.1634
  110MOL   C17641814   3.471   5.896   4.712 -0.9100  0.1150 -0.7553
  110MOL   C17741815   3.563   5.820   4.608  0.6356 -0.0704  0.1108
  110MOL   C17841816   3.514   5.838   4.466  0.1509  0.2075  0.0019
  110MOL   C17941817   3.712   5.865   4.619 -0.4503  0.1184 -0.2162
  110MOL   H18041818   3.222   5.853   4.932 -2.2935 -0.5070  1.2084
  110MOL   H18141819   3.112   5.822   4.805 -0.1068  1.3472 -1.1783
  110MOL   H18241820   3.313   6.044   4.825 -0.9766  0.0935  0.3691
  110MOL   H18341821   3.488   5.859   4.813  0.0068  4.0301  0.6242
  110MOL   H18441822   3.508   5.998   4.720 -0.6633 -0.1068  1.0993
  110MOL   H18541823   3.557   5.713   4.632 -0.0487  0.0990  0.7257
  110MOL   H18641824   3.524   5.943   4.440 -4.7054  0.8525  0.3462
  110MOL   H18741825   3.575   5.783   4.395 -2.0476 -0.3178 -1.5195
  110MOL   H18841826   3.409   5.813   4.455  0.5243 -0.4064 -2.3416
  110MOL   H18941827   3.718   5.973   4.632 -2.5703  0.4909 -1.9213
  110MOL   H19041828   3.773   5.836   4.533  2.4484  1.1247  1.4418
  110MOL   H19141829   3.751   5.822   4.711 -1.9191  1.4985  1.0701
  110MOL   C19241830   3.196   6.076   4.654  0.0652  0.0402  0.0185
  110MOL   C19341831   3.296   6.188   4.607 -0.2595 -0.0309  0.8868
  110MOL   O19441832   3.342   6.261   4.715  1.0926  0.3816 -0.2816
  110MOL   C19541833   3.464   6.328   4.712 -0.5139  0.0706 -0.6837
  110MOL   C19641834   3.490   6.400   4.841  0.0460 -0.4824  0.0457
  110MOL   C19741835   3.390   6.513   4.861 -0.4082  0.1350 -0.0683
  110MOL   C19841836   3.636   6.451   4.856 -0.6407 -0.2604 -0.1280
  110MOL   H19941837   3.105   6.115   4.700  0.6393  1.8204 -0.3286
  110MOL   H20041838   3.165   6.007   4.576 -0.6690 -1.6702  1.7753
  110MOL   H20141839   3.374   6.132   4.556 -1.8552 -0.2038 -1.4221
  110MOL   H20241840   3.460   6.401   4.630  2.3023  1.7903  0.6137
  110MOL   H20341841   3.545   6.259   4.687  0.7666  0.4028  2.3879
  110MOL   H20441842   3.473   6.321   4.914  0.3529 -0.4121  0.1934
  110MOL   H20541843   3.387   6.540   4.967  0.2740  0.7037 -0.1885
  110MOL   H20641844   3.405   6.603   4.801  0.5247 -0.8392 -1.3058
  110MOL   H20741845   3.294   6.473   4.828 -0.5064  0.4461 -0.1644
  110MOL   H20841846   3.661   6.508   4.766  0.9990  0.1735  0.5883
  110MOL   H20941847   3.635   6.506   4.950 -0.4015 -3.3792  1.7708
  110MOL   H21041848   3.716   6.377   4.869 -0.1269  0.3363  0.1329
  110MOL   C21141849   3.218   6.283   4.514  0.3413 -0.4708  0.6751
  110MOL   C21241850   3.290   6.336   4.392  0.1639 -0.5068  0.4996
  110MOL   O21341851   3.304   6.234   4.296 -0.3661 -0.3025  0.5902
  110MOL   C21441852   3.437   6.203   4.266 -0.1015  0.0608 -1.0263
  110MOL   C21541853   3.425   6.106   4.145 -0.1189 -0.5912 -0.4796
  110MOL   C21641854   3.562   6.076   4.086  0.1714 -0.3386  0.8482
  110MOL   C21741855   3.356   5.973   4.172  0.3452  0.2144 -0.0730
  110MOL   H21841856   3.179   6.365   4.576 -2.1002 -0.4210 -0.8626
  110MOL   H21941857   3.125   6.243   4.474  0.2905  1.8016 -1.6213
  110MOL   H22041858   3.385   6.383   4.415 -0.6955  1.9138 -0.6893
  110MOL   H22141859   3.491   6.141   4.337 -1.3178 -1.1978 -1.1853
  110MOL   H22241860   3.497   6.291   4.242 -0.7468  0.7555 -0.1488
  110MOL   H22341861   3.354   6.152   4.076  0.5958  0.6058 -0.4324
  110MOL   H22441862   3.606   6.170   4.051 -0.2622 -0.3564  0.2593
  110MOL   H22541863   3.634   6.026   4.151 -0.0050  1.5929  2.5800
  110MOL   H22641864   3.551   6.010   4.000 -1.6065 -0.0707  0.8569
  110MOL   H22741865   3.404   5.898   4.235 -0.6061 -1.4172 -1.2473
  110MOL   H22841866   3.315   5.921   4.086  1.6405 -0.2014 -0.4412
  110MOL   H22941867   3.263   5.999   4.223 -0.7767 -0.9001 -1.5376
  110MOL   C23041868   3.207   6.438   4.315  0.3744  0.1998  0.7788
  110MOL   C23141869   3.202   6.572   4.394  0.1814 -0.0839  0.5896
  110MOL   O23241870   3.331   6.635   4.386  0.0213  0.5782  0.2272
  110MOL   C23341871   3.356   6.716   4.505  0.3479  0.1448 -0.2678
  110MOL   C23441872   3.482   6.788   4.468  0.1302 -0.1890  0.5026
  110MOL   C23541873   3.610   6.708   4.435  0.9684 -0.4351  0.7377
  110MOL   C23641874   3.465   6.894   4.357 -0.8275 -0.2307  0.5814
  110MOL   H23741875   3.103   6.405   4.306 -0.2874  1.0764  4.3554
  110MOL   H23841876   3.259   6.446   4.219  2.4378  1.7774  1.9751
  110MOL   H23941877   3.181   6.560   4.500 -0.3092  1.9217  0.7441
  110MOL   H24041878   3.277   6.782   4.542 -0.4870 -0.1485 -1.4687
  110MOL   H24141879   3.383   6.644   4.582  0.8893  1.9696  1.2992
  110MOL   H24241880   3.509   6.839   4.560  0.5700  1.2830 -0.4223
  110MOL   H24341881   3.697   6.774   4.441  0.1287  0.7854 -0.4367
  110MOL   H24441882   3.612   6.653   4.341  0.9037  1.8796 -0.6524
  110MOL   H24541883   3.626   6.629   4.509  0.0132 -1.9729 -0.6477
  110MOL   H24641884   3.445   6.847   4.261 -1.6139 -0.0258  0.6389
  110MOL   H24741885   3.390   6.964   4.392 -0.4450  0.7931 -0.6273
  110MOL   H24841886   3.563   6.940   4.346 -0.8638 -0.6330 -1.6331
  110MOL   C24941887   3.100   6.656   4.334 -0.6479 -0.1434 -0.1483
  110MOL   C25041888   2.955   6.634   4.385  0.8203 -0.4394  0.4421
  110MOL   O25141889   2.955   6.636   4.533 -0.2934 -0.4154  0.2636
  110MOL   C25241890   2.878   6.537   4.593  0.7530  0.3393  0.7978
  110MOL   C25341891   2.872   6.569   4.745  0.8411 -0.1115 -0.1150
  110MOL   C25441892   3.007   6.548   4.809  0.1313  0.2185 -0.4210
  110MOL   C25541893   2.754   6.505   4.811 -0.4143  0.2567  0.1974
  110MOL   H25641894   3.105   6.647   4.226  0.5425 -0.2182 -0.0915
  110MOL   H25741895   3.105   6.756   4.378  1.2536 -0.7532  1.0871
  110MOL   H25841896   2.920   6.536   4.353  1.0520 -0.2117 -0.5360
  110MOL   H25941897   2.779   6.537   4.546  1.0840 -1.1185  0.0884
  110MOL   H26041898   2.922   6.440   4.571 -2.1818 -0.8139 -0.3244
  110MOL   H26141899   2.850   6.675   4.741  3.1748  0.4137  0.4584
  110MOL   H26241900   3.013   6.585   4.911  2.0969 -1.5371  0.1317
  110MOL   H26341901   3.080   6.606   4.753  0.8893  2.0251  2.3638
  110MOL   H26441902   3.030   6.442   4.814  0.5874  0.4227  2.9751
  110MOL   H26541903   2.737   6.543   4.912 -1.7823  2.0165 -0.6630
  110MOL   H26641904   2.659   6.502   4.758 -0.7170  1.3252  0.6483
  110MOL   H26741905   2.792   6.409   4.846  1.0394 -0.0645 -2.1724
  110MOL   C26841906   2.861   6.741   4.330 -0.1186  0.2124  0.2405
  110MOL   C26941907   2.831   6.753   4.182 -0.0697 -0.9075  0.6512
  110MOL   O27041908   2.771   6.885   4.158  0.2905 -0.4297 -0.3530
  110MOL   C27141909   2.782   6.942   4.030  0.0591  0.0981 -0.0206
  110MOL   C27241910   2.744   7.091   4.027  0.4386 -0.1423 -0.4205
  110MOL   C27341911   2.768   7.149   3.886  0.2034 -0.0389 -0.3917
  110MOL   C27441912   2.607   7.111   4.083 -0.2812  0.0996 -0.9287
  110MOL   H27541913   2.905   6.836   4.361 -0.4548  0.3261  0.3725
  110MOL   H27641914   2.769   6.736   4.389  0.4227 -1.4314  0.9821
  110MOL   H27741915   2.919   6.755   4.117 -1.7365  0.0757 -1.6469
  110MOL   H27841916   2.888   6.948   4.008  0.3262  1.3534  1.5016
  110MOL   H27941917   2.732   6.879   3.956 -1.9294  3.2269 -1.4411
  110MOL   H28041918   2.820   7.143   4.085 -1.1019 -0.2207  1.7208
  110MOL   H28141919   2.740   7.254   3.881  0.7657  0.0677 -1.2704
  110MOL   H28241920   2.705   7.095   3.816 -0.2662 -1.6640  1.2372
  110MOL   H28341921   2.873   7.131   3.860 -0.3594 -1.2437 -1.8903
  110MOL   H28441922   2.574   7.213   4.104 -1.0148 -0.3924  0.3295
  110MOL   H28541923   2.586   7.047   4.168  1.5546  1.8328  0.8737
  110MOL   H28641924   2.540   7.071   4.007  0.0015 -0.5698 -0.8313
  110MOL   C28741925   2.741   6.636   4.132  0.6098 -0.2651  0.3306
  110MOL   C28841926   2.788   6.562   4.005  0.2331 -0.2154  0.2381
  110MOL   O28941927   2.687   6.479   3.951 -0.7895 -0.4260 -0.0478
  110MOL   C29041928   2.573   6.539   3.887 -0.2406  0.3523 -0.2289
  110MOL   C29141929   2.498   6.430   3.804 -0.6013 -0.8143 -0.3945
  110MOL   C29241930   2.425   6.326   3.893 -0.8258 -0.6864 -0.5755
  110MOL   C29341931   2.594   6.360   3.708  0.1504  0.3006 -0.2072
  110MOL   H29441932   2.644   6.683   4.113 -0.7360 -2.2585  2.1055
  110MOL   H29541933   2.710   6.566   4.209 -1.0301  0.4466  0.3457
  110MOL   H29641934   2.822   6.626   3.923  1.7964 -0.8963  0.3358
  110MOL   H29741935   2.512   6.604   3.949  0.5338  0.8376  0.0256
  110MOL   H29841936   2.619   6.616   3.825 -2.0673  0.8957 -0.9526
  110MOL   H29941937   2.414   6.480   3.756 -1.2920  0.6426  2.2419
  110MOL   H30041938   2.489   6.274   3.966 -1.8987 -2.2286 -0.6976
  110MOL   H30141939   2.396   6.247   3.824  0.3949 -1.0946 -0.6517
  110MOL   H30241940   2.342   6.372   3.945  0.0282 -0.7780  0.9068
  110MOL   H30341941   2.645   6.429   3.642 -2.2370  1.0776 -1.2787
  110MOL   H30441942   2.680   6.303   3.745 -0.0518  0.6072  0.7297
  110MOL   H30541943   2.544   6.290   3.641  0.1595  1.2504 -1.2230
  110MOL   C30641944   2.916   6.478   4.021  0.5075  0.3518 -0.5564
  110MOL   C30741945   2.945   6.396   3.895  0.7889  0.0823 -0.3847
  110MOL   O30841946   2.985   6.485   3.796 -0.4699 -1.1604 -0.0001
  110MOL   C30941947   2.973   6.447   3.665  0.7279  0.5933  0.3099
  110MOL   C31041948   3.023   6.563   3.582 -0.0091  0.5326  1.2517
  110MOL   C31141949   2.924   6.683   3.589  0.2216  0.1467 -0.3148
  110MOL   C31241950   3.033   6.535   3.437 -0.4762 -0.3112 -0.6590
  110MOL   H31341951   2.919   6.406   4.102 -0.6255  0.7893 -0.1307
  110MOL   H31441952   2.999   6.546   4.041  0.8835 -1.0366  2.8991
  110MOL   H31541953   2.859   6.338   3.859  0.8968  0.9503 -2.1087
  110MOL   H31641954   2.869   6.423   3.643  0.4470  1.4098  0.7042
  110MOL   H31741955   3.038   6.363   3.640 -1.8884 -1.0445 -1.1410
  110MOL   H31841956   3.119   6.600   3.619 -0.2680  2.5975 -0.0520
  110MOL   H31941957   2.823   6.647   3.566 -0.5318  0.6824  2.0447
  110MOL   H32041958   2.938   6.772   3.526 -3.4981  0.5075 -0.7786
  110MOL   H32141959   2.922   6.722   3.690 -1.2955 -1.1741  0.1863
  110MOL   H32241960   3.108   6.457   3.422  0.3346  0.7347 -2.1286
  110MOL   H32341961   3.068   6.617   3.375 -1.3766 -1.3917 -2.6361
  110MOL   H32441962   2.941   6.504   3.388 -0.2031 -1.7551 -0.2922
  110MOL   C32541963   3.064   6.298   3.938 -0.3697 -0.1885 -0.4966
  110MOL   C32641964   3.018   6.160   4.003 -0.3554  0.0412  0.0096
  110MOL   O32741965   2.932   6.178   4.112 -0.2824 -0.1211 -0.4710
  110MOL   C32841966   2.973   6.099   4.221 -0.0855 -0.2459 -0.1014
  110MOL   C32941967   2.868   6.102   4.329 -0.6046  0.1142  0.4337
  110MOL   C33041968   2.835   6.238   4.390  0.3088  0.4474  0.1695
  110MOL   C33141969   2.741   6.030   4.278  0.4671  0.5062 -0.9375
  110MOL   H33241970   3.139   6.347   4.000 -1.9356  0.0657  1.2338
  110MOL   H33341971   3.113   6.270   3.845  1.1480 -0.0457  0.2442
  110MOL   H33441972   3.105   6.103   4.036 -0.8012 -0.9368 -0.4528
  110MOL   H33541973   2.995   5.999   4.185  1.9672  1.0165 -2.5080
  110MOL   H33641974   3.069   6.133   4.260  0.2277 -1.7902  0.5095
  110MOL   H33741975   2.917   6.045   4.408 -0.2361  1.2950  1.0700
  110MOL   H33841976   2.788   6.305   4.317  0.4751 -1.9191 -2.2072
  110MOL   H33941977   2.774   6.236   4.480 -1.5768  0.6411 -1.0492
  110MOL   H34041978   2.929   6.285   4.420  1.1494 -0.9179 -0.3129
  110MOL   H34141979   2.683   6.079   4.200  0.9346  0.6030 -1.2243
  110MOL   H34241980   2.762   5.928   4.243  0.2064  0.6414 -1.4989
  110MOL   H34341981   2.669   5.994   4.351  1.3146  0.5930 -0.0409
  110MOL   C34441982   2.960   6.070   3.892  0.0135 -0.8355  0.9165
  110MOL   C34541983   2.904   5.937   3.935 -0.2658 -0.3444 -1.3492
  110MOL   O34641984   2.806   5.891   3.847  0.3194 -0.0013 -0.4058
  110MOL   C34741985   2.669   5.920   3.892  0.1258  0.3971  0.1624
  110MOL   C34841986   2.562   5.869   3.783 -0.2650 -1.0590  0.0777
  110MOL   C34941987   2.574   5.959   3.658 -0.1491  0.3265  0.1518
  110MOL   C35041988   2.424   5.847   3.839 -0.3460 -0.4146  0.1002
  110MOL   H35141989   3.039   6.065   3.818 -0.2136  0.0929  0.6062
  110MOL   H35241990   2.870   6.111   3.846 -0.0007  0.6899  2.2474
  110MOL   H35341991   2.854   5.953   4.030 -0.0524  0.9310 -1.4472
  110MOL   H35441992   2.659   6.025   3.920  0.1222  0.2006  0.9120
  110MOL   H35541993   2.656   5.861   3.983  1.5898 -1.7669 -0.9766
  110MOL   H35641994   2.598   5.770   3.755  3.2551  0.2885 -0.5100
  110MOL   H35741995   2.679   5.969   3.627 -0.2667  1.0342 -0.0375
  110MOL   H35841996   2.546   6.061   3.683 -1.5411  0.0997 -0.4457
  110MOL   H35941997   2.522   5.907   3.578  1.9463 -2.4086  0.5067
  110MOL   H36041998   2.382   5.937   3.884 -1.0984 -1.1922  0.9665
  110MOL   H36141999   2.369   5.832   3.746 -1.5450  1.1172  0.5543
  110MOL   H36242000   2.416   5.754   3.896 -0.7426  0.7979  2.0625
  110MOL   C36342001   3.011   5.828   3.940  0.1609 -0.1876 -0.0247
  110MOL   C36442002   2.955   5.709   4.026  0.0436 -0.5423  0.0129
  110MOL   O36542003   2.975   5.742   4.163  0.0387 -0.0133  0.1872
  110MOL   C36642004   2.933   5.644   4.261 -0.3730  0.0423  0.4490
  110MOL   C36742005   2.948   5.701   4.404 -0.3849  0.6466  0.5363
  110MOL   C36842006   3.096   5.706   4.454  0.1165 -0.3431  0.4869
  110MOL   C36942007   2.872   5.609   4.500  0.4748  0.5950 -0.6368
  110MOL   H37042008   3.024   5.787   3.840  1.2723 -1.6424  0.6913
  110MOL   H37142009   3.103   5.865   3.984  0.3140 -0.1813 -0.3511
  110MOL   H37242010   3.013   5.618   4.011 -0.0841 -0.6741  0.3125
  110MOL   H37342011   2.827   5.623   4.246 -0.7024  2.3451 -0.8564
  110MOL   H37442012   2.990   5.553   4.244  0.7313  1.0244 -1.2210
  110MOL   H37542013   2.900   5.798   4.402 -2.0351 -0.1028 -4.3393
  110MOL   H37642014   3.137   5.609   4.480 -0.0642 -0.8434 -1.0560
  110MOL   H37742015   3.115   5.764   4.544  0.5382 -2.0848  1.5418
  110MOL   H37842016   3.159   5.762   4.385  0.9495  0.4939  1.8992
  110MOL   H37942017   2.873   5.656   4.599  1.0763  1.7733 -1.1928
  110MOL   H38042018   2.920   5.512   4.517 -0.4483 -0.2901 -2.9185
  110MOL   H38142019   2.767   5.591   4.478  0.1843  0.2539  0.9400
  110MOL   H38242020   2.850   5.685   4.007 -0.0749 -1.3585  1.6135
  111MOL     C142021   6.494   3.863   3.156  0.0760 -0.0279 -0.3975
  111MOL     C242022   6.521   3.761   3.050  0.8174 -0.3341  0.1899
  111MOL     O342023   6.441   3.648   3.077  0.2561  0.0718  0.0184
  111MOL     C442024   6.506   3.530   3.021 -0.4507 -0.5804  0.1427
  111MOL     C542025   6.550   3.447   3.140 -0.9904 -0.4799 -0.0451
  111MOL     C642026   6.680   3.493   3.212  0.3020 -0.9815 -0.2137
  111MOL     C742027   6.549   3.300   3.086  0.2155  0.9356 -0.0604
  111MOL     H842028   6.539   3.845   3.254  0.9586 -0.7984 -0.9392
  111MOL     H942029   6.542   3.955   3.122 -0.7411  1.2814  1.8750
  111MOL    H1042030   6.625   3.732   3.059  1.3451  0.8243 -1.9892
  111MOL    H1142031   6.587   3.546   2.951 -0.8795  1.2961  0.0343
  111MOL    H1242032   6.427   3.479   2.965 -0.0106  0.3052 -1.3110
  111MOL    H1342033   6.477   3.445   3.221  0.4028  0.3712  1.2662
  111MOL    H1442034   6.756   3.510   3.135 -1.2488 -1.6355 -1.9514
  111MOL    H1542035   6.655   3.587   3.260  1.8656 -0.1028 -1.1068
  111MOL    H1642036   6.700   3.424   3.294 -0.8069 -0.0409  0.8707
  111MOL    H1742037   6.458   3.276   3.032  0.3908  1.4145 -0.5679
  111MOL    H1842038   6.639   3.284   3.026  0.1105 -1.6165  0.4065
  111MOL    H1942039   6.555   3.227   3.167 -0.8289  0.3436 -0.5247
  111MOL    H2042040   6.389   3.873   3.183  0.1263  1.2770 -0.6403
  111MOL    C2142041   6.470   3.808   2.910 -0.8963  0.2623  0.3380
  111MOL    C2242042   6.587   3.831   2.814 -0.3268 -0.0776  0.0393
  111MOL    O2342043   6.531   3.835   2.691  0.0548 -0.6091  1.0326
  111MOL    C2442044   6.501   3.705   2.637 -0.0294 -0.1012  0.3206
  111MOL    C2542045   6.504   3.725   2.481 -0.0448 -0.4777  0.1912
  111MOL    C2642046   6.632   3.770   2.415 -0.0372  0.8318  0.0340
  111MOL    C2742047   6.443   3.595   2.416 -0.1030 -0.2784  0.0599
  111MOL    H2842048   6.397   3.733   2.880 -1.9476  0.8657  1.3706
  111MOL    H2942049   6.410   3.898   2.917 -1.9984 -0.4744  0.3582
  111MOL    H3042050   6.652   3.743   2.816  0.5485  0.4223 -3.5344
  111MOL    H3142051   6.403   3.667   2.668 -0.1021  0.0721  0.3083
  111MOL    H3242052   6.578   3.634   2.668  0.6390  1.2818  1.8944
  111MOL    H3342053   6.425   3.799   2.467 -0.3680 -0.7273  0.6807
  111MOL    H3442054   6.605   3.823   2.324 -0.5685  0.3403 -0.0982
  111MOL    H3542055   6.695   3.682   2.404 -0.8534  0.3234 -0.5732
  111MOL    H3642056   6.671   3.837   2.492 -1.1497 -0.9828  2.2390
  111MOL    H3742057   6.454   3.609   2.309  1.4112  2.3384  0.5227
  111MOL    H3842058   6.488   3.508   2.464 -0.4161 -1.5413 -1.9027
  111MOL    H3942059   6.338   3.586   2.444 -0.1860 -1.2024 -0.5412
  111MOL    C4042060   6.673   3.958   2.832 -0.1392  0.1825 -0.2402
  111MOL    C4142061   6.815   3.943   2.781  0.4371  0.3741  0.5603
  111MOL    O4242062   6.870   3.823   2.842 -0.5352 -0.0245 -0.3515
  111MOL    C4342063   6.938   3.745   2.750 -0.5194  0.5934  0.0987
  111MOL    C4442064   6.975   3.611   2.809  0.3808 -0.4763 -0.5955
  111MOL    C4542065   7.092   3.640   2.897  0.5889  0.1494  0.3392
  111MOL    C4642066   6.852   3.548   2.882 -0.2884 -0.4714  0.5030
  111MOL    H4742067   6.683   3.978   2.939  0.1244 -1.4537  0.0517
  111MOL    H4842068   6.632   4.049   2.789  2.9140  1.7264  0.0093
  111MOL    H4942069   6.805   3.947   2.672  0.5944 -2.3917  0.4133
  111MOL    H5042070   7.021   3.797   2.701 -0.7616 -0.2993 -1.2928
  111MOL    H5142071   6.878   3.729   2.660  0.8081  1.2419 -0.9217
  111MOL    H5242072   7.001   3.546   2.726  1.7315  0.0919 -0.6240
  111MOL    H5342073   7.163   3.716   2.864  0.8727  0.7128  2.1717
  111MOL    H5442074   7.053   3.678   2.991 -1.6561 -1.0568 -0.0505
  111MOL    H5542075   7.138   3.549   2.934 -0.6759  0.5820  3.1382
  111MOL    H5642076   6.767   3.545   2.814  0.2986  1.1628 -0.3301
  111MOL    H5742077   6.820   3.609   2.967 -0.6871 -0.9446  0.6908
  111MOL    H5842078   6.861   3.443   2.908  1.4574 -0.6532 -0.7650
  111MOL    C5942079   6.908   4.062   2.804 -0.3593  0.4313  0.0675
  111MOL    C6042080   6.869   4.204   2.753 -0.3463 -0.0271 -0.9633
  111MOL    O6142081   6.863   4.187   2.613  0.3059 -0.0299 -0.2010
  111MOL    C6242082   6.755   4.269   2.549  0.4157 -0.1352 -1.0103
  111MOL    C6342083   6.782   4.258   2.397  0.7898  0.7999  0.2851
  111MOL    C6442084   6.930   4.305   2.364 -0.0468 -0.0287 -0.1701
  111MOL    C6542085   6.749   4.115   2.349 -0.3306 -0.1664 -0.1721
  111MOL    H6642086   7.007   4.051   2.758  1.2586  3.9986  2.4203
  111MOL    H6742087   6.920   4.060   2.912 -0.5717  2.1954  0.1473
  111MOL    H6842088   6.765   4.224   2.776 -0.5314 -1.1127 -0.7932
  111MOL    H6942089   6.658   4.227   2.576  1.7281 -1.7237  1.4520
  111MOL    H7042090   6.763   4.367   2.596  2.4755 -0.1415 -1.2736
  111MOL    H7142091   6.710   4.324   2.348  1.6877  1.4430 -0.1732
  111MOL    H7242092   6.941   4.409   2.396 -0.3685  1.4076 -4.3707
  111MOL    H7342093   6.949   4.305   2.256  1.7594 -1.1014  0.1143
  111MOL    H7442094   7.011   4.256   2.419  1.3284  1.5061 -0.7899
  111MOL    H7542095   6.825   4.046   2.385 -1.2889 -0.3689  1.5037
  111MOL    H7642096   6.654   4.085   2.392 -0.5420  0.9727  0.1629
  111MOL    H7742097   6.744   4.110   2.240 -0.7798  1.6075 -0.2408
  111MOL    C7842098   6.964   4.324   2.786 -0.6370  0.2691  0.2055
  111MOL    C7942099   6.986   4.330   2.944  0.1136 -0.4267 -0.7716
  111MOL    O8042100   7.071   4.223   3.002 -0.0458 -0.1243 -0.9545
  111MOL    C8142101   7.204   4.216   2.964  0.2216 -0.4553 -0.0849
  111MOL    C8242102   7.271   4.100   3.040 -0.9156  0.7954  0.3584
  111MOL    C8342103   7.200   3.964   3.002  0.5547  0.1520  0.0733
  111MOL    C8442104   7.258   4.128   3.185  0.1680  0.0688  0.7495
  111MOL    H8542105   6.910   4.413   2.756  1.1873  0.5882 -2.2285
  111MOL    H8642106   7.061   4.309   2.739 -0.5104 -1.6304  1.0186
  111MOL    H8742107   6.883   4.328   2.980 -0.2320  1.1939 -1.5943
  111MOL    H8842108   7.215   4.200   2.857 -0.7711  1.4798 -0.5010
  111MOL    H8942109   7.246   4.311   2.996 -3.1085  0.7985  0.8303
  111MOL    H9042110   7.377   4.083   3.020 -0.9932  2.5126 -1.7384
  111MOL    H9142111   7.225   3.876   3.061 -2.2272 -1.7076 -1.3880
  111MOL    H9242112   7.234   3.940   2.901 -1.0518 -0.6015 -0.3100
  111MOL    H9342113   7.092   3.966   3.006  0.5505 -0.2343  0.1674
  111MOL    H9442114   7.311   4.222   3.201 -0.4268  0.2292  1.7897
  111MOL    H9542115   7.301   4.047   3.243 -0.6115 -2.8533 -2.5816
  111MOL    H9642116   7.156   4.145   3.220  1.1357 -0.1953  3.8832
  111MOL    C9742117   7.032   4.469   3.005  0.3995 -0.0918  0.7469
  111MOL    C9842118   6.929   4.588   2.976 -0.1169 -1.2386  0.1318
  111MOL    O9942119   6.938   4.650   2.847 -0.5299 -0.3693  0.3935
  111MOL   C10042120   6.809   4.692   2.799  0.0687 -0.0184  0.2318
  111MOL   C10142121   6.818   4.764   2.666 -0.0146 -0.2757 -0.0722
  111MOL   C10242122   6.889   4.902   2.683 -0.0440  0.4711  0.0726
  111MOL   C10342123   6.882   4.687   2.563 -0.6490  0.1708  0.2048
  111MOL   H10442124   7.124   4.504   2.960  0.6004  0.0750  1.2936
  111MOL   H10542125   7.055   4.446   3.109  1.8182 -0.8557  0.2787
  111MOL   H10642126   6.832   4.544   3.002 -0.9893  2.2964  3.2455
  111MOL   H10742127   6.769   4.771   2.862  0.2158  1.6533 -1.6974
  111MOL   H10842128   6.738   4.609   2.791 -0.8134  0.9099 -2.1828
  111MOL   H10942129   6.719   4.791   2.631 -1.4075 -4.8213  0.0861
  111MOL   H11042130   6.829   4.968   2.746  1.1082  1.7815 -0.1674
  111MOL   H11142131   6.988   4.882   2.725 -0.5984 -2.2355  0.1651
  111MOL   H11242132   6.900   4.963   2.593 -0.1154  1.2821  0.6063
  111MOL   H11342133   6.983   4.660   2.593 -1.5486 -3.2173  0.4006
  111MOL   H11442134   6.821   4.597   2.550  0.6744 -0.7622  0.3692
  111MOL   H11542135   6.889   4.735   2.465  0.2416  1.5738  0.9355
  111MOL   C11642136   6.972   4.700   3.071 -0.4195  0.6502  0.2880
  111MOL   C11742137   6.886   4.705   3.195  0.5699 -0.3258 -0.6400
  111MOL   O11842138   6.886   4.583   3.266 -0.3023 -0.3672 -0.3516
  111MOL   C11942139   6.762   4.554   3.326 -0.2833  0.7097 -0.0396
  111MOL   C12042140   6.758   4.439   3.431  0.3431 -0.5787  0.3557
  111MOL   C12142141   6.813   4.314   3.368 -0.2508 -0.6533  0.0729
  111MOL   C12242142   6.825   4.474   3.563 -0.4886 -0.2249 -0.5176
  111MOL   H12342143   7.077   4.715   3.096 -0.9054 -0.1142  2.9405
  111MOL   H12442144   6.938   4.786   3.013 -2.5168 -1.0716 -1.1488
  111MOL   H12542145   6.785   4.724   3.158  0.5314 -0.9170 -0.8451
  111MOL   H12642146   6.694   4.537   3.243 -0.5269 -0.7959  0.4446
  111MOL   H12742147   6.713   4.643   3.365 -0.6488  0.6449 -0.3538
  111MOL   H12842148   6.654   4.413   3.450 -0.2612  1.2322 -0.3889
  111MOL   H12942149   6.917   4.330   3.340  0.0775  0.9719  2.1370
  111MOL   H13042150   6.774   4.287   3.270  0.4575 -0.5046 -0.2544
  111MOL   H13142151   6.821   4.223   3.427  0.5544 -0.2857  0.5302
  111MOL   H13242152   6.932   4.485   3.550 -0.4758  2.2372  1.3701
  111MOL   H13342153   6.797   4.570   3.606  1.1090 -0.6580  1.5287
  111MOL   H13442154   6.812   4.388   3.629  1.4403  0.2615  0.5192
  111MOL   C13542155   6.929   4.804   3.300 -0.2849  0.0787 -0.5819
  111MOL   C13642156   6.872   4.941   3.262 -0.0000 -0.3901 -0.1583
  111MOL   O13742157   6.731   4.925   3.273  0.2026 -0.2749 -0.2421
  111MOL   C13842158   6.661   5.008   3.181  0.8809 -0.3293  0.4466
  111MOL   C13942159   6.508   4.991   3.184 -0.4925  0.1296  0.1243
  111MOL   C14042160   6.462   4.842   3.159 -0.2093  0.2089  0.0061
  111MOL   C14142161   6.451   5.037   3.319 -0.4647  0.2536  0.7303
  111MOL   H14242162   6.890   4.782   3.400  1.6241  0.5638  0.2868
  111MOL   H14342163   7.037   4.814   3.299 -0.3411  0.6553 -0.9878
  111MOL   H14442164   6.907   4.947   3.159  1.9831  1.0180  0.5594
  111MOL   H14542165   6.692   4.988   3.079 -0.9883  1.1385 -0.4378
  111MOL   H14642166   6.677   5.114   3.202 -3.6502  1.1391 -2.7476
  111MOL   H14742167   6.464   5.052   3.105  0.2571  0.7647  0.1930
  111MOL   H14842168   6.473   4.818   3.054  0.1996 -3.4770  0.8187
  111MOL   H14942169   6.355   4.829   3.171 -0.2948  0.0302 -0.9187
  111MOL   H15042170   6.514   4.774   3.226 -2.6027 -0.4982  1.2192
  111MOL   H15142171   6.467   4.976   3.407 -1.7033 -0.2028  0.6442
  111MOL   H15242172   6.469   5.142   3.341  1.5733  0.0537  0.1858
  111MOL   H15342173   6.342   5.042   3.321 -0.6512 -1.7620 -1.4961
  111MOL   C15442174   6.917   5.063   3.348 -0.2671 -0.3744  0.0007
  111MOL   C15542175   7.070   5.077   3.359  0.0316  0.0755  0.7568
  111MOL   O15642176   7.141   5.093   3.238  0.0316 -0.1541 -0.2335
  111MOL   C15742177   7.102   5.204   3.152  0.0970 -0.0426 -0.4611
  111MOL   C15842178   7.166   5.180   3.013  0.6030  0.7117 -0.1899
  111MOL   C15942179   7.319   5.164   3.027  0.0723  0.6567  0.1859
  111MOL   C16042180   7.100   5.062   2.936 -0.3423  0.3790 -0.0735
  111MOL   H16142181   6.878   5.056   3.450  2.6151 -1.2218  1.0869
  111MOL   H16242182   6.874   5.157   3.314 -2.3222 -1.2134  0.2029
  111MOL   H16342183   7.113   4.987   3.402 -2.2441  0.3528  3.7288
  111MOL   H16442184   7.117   5.303   3.194 -0.6958 -0.3674  0.6126
  111MOL   H16542185   6.995   5.209   3.132  0.1629  1.6845 -0.4216
  111MOL   H16642186   7.134   5.270   2.960  1.9083  0.6274 -1.1425
  111MOL   H16742187   7.360   5.137   2.930 -0.5399 -0.5811  0.2520
  111MOL   H16842188   7.338   5.083   3.097 -0.5817 -0.1124 -0.5068
  111MOL   H16942189   7.367   5.251   3.071 -0.9882  0.5877  1.5378
  111MOL   H17042190   7.152   4.970   2.960 -0.9280 -0.3562 -1.5859
  111MOL   H17142191   6.996   5.051   2.967 -0.7360 -0.6530 -1.7412
  111MOL   H17242192   7.120   5.081   2.831 -1.5366 -1.1336 -0.5891
  111MOL   C17342193   7.113   5.189   3.451 -0.1481  1.0117  0.2148
  111MOL   C17442194   7.257   5.228   3.462 -0.0867  0.7704  0.0032
  111MOL   O17542195   7.254   5.365   3.515 -0.0929 -0.1974  0.3445
  111MOL   C17642196   7.359   5.447   3.468  0.1498  0.2357  0.3275
  111MOL   C17742197   7.365   5.577   3.542 -0.4644 -0.3361 -0.0892
  111MOL   C17842198   7.220   5.640   3.531 -0.9453  0.6834 -0.8517
  111MOL   C17942199   7.402   5.555   3.691  0.2660 -0.2994  0.0578
  111MOL   H18042200   7.050   5.272   3.418 -0.1383  1.1658  0.5715
  111MOL   H18142201   7.085   5.166   3.554  0.3974  0.6606  0.2895
  111MOL   H18242202   7.296   5.226   3.360 -1.4276 -1.6480 -0.5153
  111MOL   H18342203   7.340   5.456   3.361 -2.1402  0.2043  0.7154
  111MOL   H18442204   7.461   5.408   3.460 -0.8770 -2.9145  1.9406
  111MOL   H18542205   7.433   5.640   3.485 -3.2104  1.3994 -1.5395
  111MOL   H18642206   7.142   5.565   3.547  0.8095 -1.0845 -0.4425
  111MOL   H18742207   7.208   5.724   3.600  0.3977 -1.1287  1.6500
  111MOL   H18842208   7.217   5.676   3.428  1.7235 -0.6304 -1.4245
  111MOL   H18942209   7.501   5.509   3.695 -0.3408 -1.5006  1.2467
  111MOL   H19042210   7.341   5.490   3.752  0.9911 -0.7873  0.2679
  111MOL   H19142211   7.404   5.650   3.746 -0.3023  0.2920 -0.9277
  111MOL   C19242212   7.356   5.150   3.553  0.1677 -0.1790  0.7328
  111MOL   C19342213   7.405   5.016   3.500  0.2203 -0.1396 -0.3672
  111MOL   O19442214   7.469   4.952   3.614 -0.3626  0.0605  0.1150
  111MOL   C19542215   7.374   4.888   3.703 -1.0878  0.3814 -0.6987
  111MOL   C19642216   7.456   4.814   3.807  0.2171  0.5926  0.0361
  111MOL   C19742217   7.526   4.907   3.904 -0.3246 -0.2356 -0.0349
  111MOL   C19842218   7.555   4.715   3.746 -0.1297  0.3323 -0.6847
  111MOL   H19942219   7.309   5.144   3.652 -0.7154  1.3632  0.4223
  111MOL   H20042220   7.447   5.206   3.572  0.0026  1.4110 -2.7970
  111MOL   H20142221   7.327   4.952   3.460  0.1855 -0.3898  0.0923
  111MOL   H20242222   7.322   4.821   3.634  1.5014 -2.0001 -0.4557
  111MOL   H20342223   7.307   4.955   3.757 -1.2288 -0.5913  0.3585
  111MOL   H20442224   7.382   4.756   3.862 -0.9408  0.5778 -1.5117
  111MOL   H20542225   7.578   4.847   3.978  0.9502 -0.2628 -0.9292
  111MOL   H20642226   7.603   4.970   3.858  0.3233  1.3344  3.0804
  111MOL   H20742227   7.463   4.974   3.962  2.0569  0.7235  1.5118
  111MOL   H20842228   7.585   4.738   3.644  0.0333 -0.3723 -0.7995
  111MOL   H20942229   7.646   4.702   3.803 -0.9947  2.7517  1.2867
  111MOL   H21042230   7.502   4.620   3.732  0.2226 -0.3978  2.6127
  111MOL   C21142231   7.523   5.043   3.403 -0.5743  0.1760  0.5327
  111MOL   C21242232   7.599   4.926   3.354  0.1923 -0.5691 -0.1379
  111MOL   O21342233   7.515   4.829   3.298  0.3335  0.1689  0.3238
  111MOL   C21442234   7.514   4.708   3.372 -0.1995 -0.4328  0.3681
  111MOL   C21542235   7.433   4.594   3.315 -0.4386 -0.0376  0.4741
  111MOL   C21642236   7.448   4.461   3.384 -0.5865 -0.0226 -0.0647
  111MOL   C21742237   7.288   4.635   3.290  0.0242 -0.1372 -0.1831
  111MOL   H21842238   7.604   5.104   3.443  0.1387  2.0887 -3.5313
  111MOL   H21942239   7.470   5.094   3.322 -1.5473 -0.6329  0.6436
  111MOL   H22042240   7.662   4.890   3.435  1.2404  2.3037  0.4115
  111MOL   H22142241   7.480   4.722   3.474  2.2820  0.8763  1.0528
  111MOL   H22242242   7.614   4.664   3.382 -0.1301 -0.1289  1.0049
  111MOL   H22342243   7.476   4.573   3.217  2.6287  1.2453  1.5108
  111MOL   H22442244   7.422   4.395   3.301 -1.2169  1.7401 -1.2867
  111MOL   H22542245   7.554   4.452   3.409 -0.7741  0.7749  1.0457
  111MOL   H22642246   7.377   4.446   3.465 -1.5830  0.6049 -0.8227
  111MOL   H22742247   7.295   4.721   3.225  0.7511 -0.2020 -0.1954
  111MOL   H22842248   7.249   4.656   3.390 -0.0845 -1.4013  0.0499
  111MOL   H22942249   7.228   4.559   3.239 -1.3065  1.0505 -0.4228
  111MOL   C23042250   7.693   4.971   3.241  0.5502  0.5299 -0.3282
  111MOL   C23142251   7.780   4.852   3.181 -0.5235 -1.0990 -0.6233
  111MOL   O23242252   0.009   4.899   3.055 -0.0466  0.1782 -0.0301
  111MOL   C23342253   7.768   4.845   2.940 -0.0846  0.3313 -0.1738
  111MOL   C23442254   0.009   4.900   2.811  0.1465  0.4447  0.1020
  111MOL   C23542255   7.777   4.828   2.684 -0.3827 -0.0273  0.1601
  111MOL   C23642256   7.823   5.048   2.801 -0.7818  0.1310  0.4680
  111MOL   H23742257   7.764   5.049   3.268  1.7395  0.1334 -2.2794
  111MOL   H23842258   7.633   5.013   3.160 -0.3732 -2.4249 -1.2462
  111MOL   H23942259   7.719   4.765   3.157 -0.9769 -1.5888  2.0788
  111MOL   H24042260   7.770   4.736   2.938  0.3209  0.3175  0.6280
  111MOL   H24142261   7.665   4.880   2.945 -0.7826 -1.6470  0.1152
  111MOL   H24242262   0.113   4.865   2.814  0.1547  0.3795 -0.7291
  111MOL   H24342263   0.017   4.844   2.598 -1.6748 -0.9622 -1.0037
  111MOL   H24442264   7.681   4.867   2.651 -0.0501  1.0114  0.4188
  111MOL   H24542265   7.781   4.721   2.708 -0.2617  0.2872  1.5560
  111MOL   H24642266   0.079   5.108   2.845  2.4303 -2.4387 -1.6632
  111MOL   H24742267   7.810   5.066   2.695 -1.9853 -1.5255  0.3151
  111MOL   H24842268   7.732   5.086   2.848  0.7223  0.8108  2.9160
  111MOL   C24942269   0.067   4.811   3.280  0.3571  0.9668  0.2100
  111MOL   C25042270   0.170   4.709   3.219  0.7682  0.4850 -0.1537
  111MOL   O25142271   0.295   4.714   3.296 -0.3024 -0.0584  0.2091
  111MOL   C25242272   0.401   4.779   3.241  0.2174  0.0135 -0.2382
  111MOL   C25342273   0.514   4.789   3.340  0.0376  0.1665  0.6131
  111MOL   C25442274   0.466   4.845   3.471 -0.1289 -0.2547 -0.0670
  111MOL   C25542275   0.616   4.885   3.274 -0.5537  0.0257 -0.3339
  111MOL   H25642276   0.026   4.759   3.367  1.2811  0.3030  0.2591
  111MOL   H25742277   0.127   4.894   3.316  1.9799 -0.2682  0.4718
  111MOL   H25842278   0.184   4.725   3.112 -3.2677 -0.1718 -0.8625
  111MOL   H25942279   0.435   4.738   3.146 -0.8964 -1.3631 -0.0655
  111MOL   H26042280   0.367   4.880   3.219 -2.4509 -0.3325  1.9740
  111MOL   H26142281   0.565   4.695   3.362 -1.4894 -0.5257  1.3434
  111MOL   H26242282   0.540   4.844   3.551 -0.4627  0.2851  0.2512
  111MOL   H26342283   0.384   4.782   3.504 -2.4678  1.9466 -1.4882
  111MOL   H26442284   0.426   4.946   3.457 -0.1194  0.0452  2.0426
  111MOL   H26542285   0.651   4.856   3.175 -1.8686 -1.1926 -0.4497
  111MOL   H26642286   0.571   4.984   3.266 -2.0601 -0.5808  0.5063
  111MOL   H26742287   0.706   4.890   3.335  0.2555 -0.7549 -1.4413
  111MOL   C26842288   0.119   4.560   3.218 -0.0156 -0.3000 -0.8703
  111MOL   C26942289   0.208   4.469   3.139  0.4099  0.1548 -0.1263
  111MOL   O27042290   0.201   4.516   3.005 -0.1536  0.1631 -0.1131
  111MOL   C27142291   0.302   4.477   2.915 -0.8710 -0.0333 -0.6214
  111MOL   C27242292   0.265   4.532   2.777  0.3207 -0.3463 -0.4901
  111MOL   C27342293   0.381   4.538   2.669  0.6193 -0.2560  0.1269
  111MOL   C27442294   0.140   4.467   2.731 -0.3199 -0.8455  0.2204
  111MOL   H27542295   0.016   4.554   3.184 -0.5456 -0.4668  0.7019
  111MOL   H27642296   0.117   4.536   3.325  2.2423 -0.0218 -0.7501
  111MOL   H27742297   0.308   4.459   3.180 -0.3891 -0.8037  1.6646
  111MOL   H27842298   0.392   4.532   2.941 -0.3045 -0.6385 -1.2484
  111MOL   H27942299   0.308   4.368   2.907 -0.1624 -0.2282  2.1781
  111MOL   H28042300   0.240   4.637   2.795  0.5214  0.0607 -2.4821
  111MOL   H28142301   0.387   4.444   2.614 -0.7358 -1.7070  2.3759
  111MOL   H28242302   0.481   4.538   2.711  0.9641 -2.8030 -0.6154
  111MOL   H28342303   0.367   4.626   2.605 -1.9760 -0.6299  0.1093
  111MOL   H28442304   0.058   4.480   2.801 -2.4213  0.0132 -2.3363
  111MOL   H28542305   0.150   4.359   2.716 -0.5512 -0.6721 -1.2538
  111MOL   H28642306   0.103   4.494   2.633  1.0264 -1.4918 -0.4876
  111MOL   C28742307   0.140   4.327   3.136  0.2252  0.1602 -0.1811
  111MOL   C28842308   0.154   4.254   3.271  0.3394 -0.5271 -0.2412
  111MOL   O28942309   0.289   4.218   3.284  0.3002  0.0910 -0.0852
  111MOL   C29042310   0.359   4.285   3.390  0.0289 -0.8111  0.3637
  111MOL   C29142311   0.488   4.209   3.408  0.1560 -0.1799 -0.1545
  111MOL   C29242312   0.549   4.232   3.546 -0.2303  0.0912  0.7456
  111MOL   C29342313   0.584   4.233   3.294 -0.7971  0.2806 -0.2728
  111MOL   H29442314   0.182   4.263   3.059 -2.5574  1.0837 -2.5603
  111MOL   H29542315   0.038   4.357   3.112  0.0820 -0.1972 -0.0229
  111MOL   H29642316   0.120   4.312   3.357 -0.6034 -1.1927 -0.1545
  111MOL   H29742317   0.360   4.392   3.370  0.1217 -0.6026  1.4775
  111MOL   H29842318   0.299   4.274   3.480 -0.3328 -0.3417  0.1798
  111MOL   H29942319   0.451   4.107   3.394  1.7496 -0.9678  1.1347
  111MOL   H30042320   0.491   4.212   3.636 -0.4099 -1.5342  0.2889
  111MOL   H30142321   0.571   4.339   3.550 -1.6751  0.5597 -2.2027
  111MOL   H30242322   0.645   4.181   3.553 -0.2792  0.1393  1.7904
  111MOL   H30342323   0.678   4.182   3.317 -0.1383  0.8588 -1.6818
  111MOL   H30442324   0.547   4.198   3.198  0.1388 -1.2643 -0.0920
  111MOL   H30542325   0.610   4.339   3.288 -3.2162  0.9193 -0.1563
  111MOL   C30642326   0.067   4.124   3.260 -0.2445  0.0693 -0.8393
  111MOL   C30742327   0.062   4.050   3.392 -0.9364  0.4884 -0.7173
  111MOL   O30842328   7.807   4.127   3.484 -0.0111  0.5480 -0.4653
  111MOL   C30942329   0.002   4.106   3.619 -0.0568  0.0966 -0.2037
  111MOL   C31042330   7.726   4.194   3.699 -0.5284  0.3783 -0.0456
  111MOL   C31142331   7.578   4.174   3.656 -0.1469  0.5350  0.2107
  111MOL   C31242332   7.748   4.344   3.695 -0.2237 -0.2121 -0.1191
  111MOL   H31342333   0.105   4.064   3.177 -1.6868 -0.9380 -0.7894
  111MOL   H31442334   7.794   4.156   3.224 -1.2495 -0.7066  1.1310
  111MOL   H31542335   0.156   4.017   3.437 -0.8093  2.9746  0.9734
  111MOL   H31642336   0.106   4.130   3.638  0.7293 -1.6278 -2.1212
  111MOL   H31742337   7.814   4.002   3.649 -0.8998  0.7452  1.7964
  111MOL   H31842338   7.738   4.157   3.801  0.6608 -1.9330 -0.9728
  111MOL   H31942339   7.540   4.072   3.645  0.1684  0.4445 -0.0744
  111MOL   H32042340   7.562   4.210   3.554  0.0770 -1.8139 -0.6863
  111MOL   H32142341   7.511   4.223   3.726  0.3945  2.5445 -0.6372
  111MOL   H32242342   7.687   4.404   3.762  0.7335  0.9471 -0.2801
  111MOL   H32342343   7.753   4.383   3.594 -2.6650  0.4289 -0.0059
  111MOL   H32442344   0.026   4.364   3.726  0.2956  0.2303 -2.0857
  111MOL   C32542345   7.803   3.924   3.378  0.5775  0.0126  1.0337
  111MOL   C32642346   0.005   3.837   3.249  0.1713 -0.7223 -0.1346
  111MOL   O32742347   0.139   3.778   3.267  0.0017  0.0830  0.4803
  111MOL   C32842348   0.250   3.838   3.210 -0.0862  0.4778 -0.3870
  111MOL   C32942349   0.375   3.756   3.254  0.7415  0.1329 -0.3011
  111MOL   C33042350   0.360   3.623   3.178  0.7789 -0.2144 -0.2183
  111MOL   C33142351   0.502   3.834   3.215 -0.2077 -0.0262  0.0164
  111MOL   H33242352   7.698   3.951   3.378  0.6012  0.1070  1.0229
  111MOL   H33342353   7.817   3.859   3.465 -0.7222 -1.4860  0.1501
  111MOL   H33442354   7.824   3.893   3.155 -2.0356  0.2758  0.5401
  111MOL   H33542355   0.240   3.830   3.102 -0.1972  1.2156 -0.4353
  111MOL   H33642356   0.260   3.944   3.231 -0.2569  0.4045  0.0614
  111MOL   H33742357   0.375   3.739   3.362 -0.9513 -1.1173 -0.4677
  111MOL   H33842358   0.437   3.553   3.212 -1.3518 -3.0991 -1.1330
  111MOL   H33942359   0.258   3.586   3.191  0.6076  0.4270  0.2967
  111MOL   H34042360   0.370   3.639   3.071  0.5686  1.9510  0.0646
  111MOL   H34142361   0.479   3.889   3.124  0.6171 -0.4589 -0.4605
  111MOL   H34242362   0.535   3.911   3.284 -1.2979 -1.1709  1.8582
  111MOL   H34342363   0.592   3.775   3.197  0.9599  1.7085  0.1535
  111MOL   C34442364   7.743   3.711   3.241 -0.2670  0.4762  0.0877
  111MOL   C34542365   7.776   3.605   3.126 -0.1515 -1.2954 -0.5246
  111MOL   O34642366   7.660   3.535   3.100  0.6503  0.0964  0.0864
  111MOL   C34742367   7.626   3.414   3.173 -0.2249 -0.1093 -0.3172
  111MOL   C34842368   7.490   3.362   3.116 -0.5385  0.4156 -0.1267
  111MOL   C34942369   7.382   3.473   3.112  0.6171  0.5639 -0.0559
  111MOL   C35042370   7.444   3.224   3.170  0.1862  0.7833 -0.9464
  111MOL   H35142371   7.637   3.735   3.239 -0.3185  0.1613 -2.1156
  111MOL   H35242372   7.757   3.671   3.342  0.0155  2.1837  0.7424
  111MOL   H35342373   0.027   3.535   3.161 -1.3065 -2.4515 -0.2774
  111MOL   H35442374   7.613   3.444   3.277  2.9615  1.4694 -0.3163
  111MOL   H35542375   7.699   3.335   3.163 -1.1866 -1.0078 -0.3437
  111MOL   H35642376   7.509   3.338   3.011  0.9436  2.8937 -0.4671
  111MOL   H35742377   7.402   3.529   3.204  0.9870  2.0560 -1.0256
  111MOL   H35842378   7.278   3.439   3.112  1.0496 -0.7962 -0.8079
  111MOL   H35942379   7.396   3.549   3.036  1.2245  0.0412 -0.4685
  111MOL   H36042380   7.340   3.199   3.145 -0.6656 -0.1002  3.1676
  111MOL   H36142381   7.504   3.157   3.108  0.5457  1.4106 -1.2843
  111MOL   H36242382   7.465   3.212   3.276 -0.2729  1.1706 -0.8043
  111MOL   C36342383   0.003   3.659   2.989  0.0583  0.2060 -0.1409
  111MOL   C36442384   0.008   3.540   2.895 -0.0552  0.4954  0.1854
  111MOL   O36542385   0.087   3.593   2.789 -0.3908  0.1701 -0.6750
  111MOL   C36642386   0.099   3.493   2.693 -0.0051 -0.0285  0.2749
  111MOL   C36742387   0.155   3.552   2.555  0.3106  0.2829 -0.0564
  111MOL   C36842388   0.067   3.664   2.504 -0.1364 -0.2703 -0.1275
  111MOL   C36942389   0.169   3.445   2.451  0.4121 -0.3460  0.1426
  111MOL   H37042390   7.773   3.744   2.950  1.3940  0.9804 -0.3467
  111MOL   H37142391   0.102   3.692   3.020 -0.7829 -0.4145  3.4546
  111MOL   H37242392   7.730   3.529   2.861 -0.5592  1.3664  1.3674
  111MOL   H37342393   0.173   3.428   2.741  0.9798  1.9687  1.5659
  111MOL   H37442394   0.005   3.441   2.674 -0.2957  0.9596 -1.0226
  111MOL   H37542395   0.255   3.594   2.568  1.0417 -0.9557 -1.4367
  111MOL   H37642396   0.060   3.739   2.583 -1.6252 -2.3355  1.8017
  111MOL   H37742397   7.788   3.643   2.474 -0.4622 -1.4504  1.7139
  111MOL   H37842398   0.118   3.720   2.427  2.6056 -1.2172  0.9512
  111MOL   H37942399   0.076   3.440   2.395  0.5057 -0.8016  0.0256
  111MOL   H38042400   0.195   3.347   2.492 -0.3857 -0.7652 -0.3364
  111MOL   H38142401   0.241   3.467   2.373  1.1549  0.8647  1.1435
  111MOL   H38242402   0.047   3.447   2.936 -0.2722  0.1401 -0.4220
  112MOL     C142403   5.041   0.638   6.585  0.2611  0.8854  0.4539
  112MOL     C242404   5.105   0.753   6.507  0.0503  0.1743  0.0180
  112MOL     O342405   5.015   0.804   6.410  0.4476 -0.3516 -0.0366
  112MOL     C442406   5.011   0.717   6.292  0.0303  0.0834  0.7782
  112MOL     C542407   4.899   0.774   6.201 -0.3781 -0.0436  0.0183
  112MOL     C642408   4.763   0.792   6.275 -0.1610  0.0432 -0.0209
  112MOL     C742409   4.878   0.685   6.080  0.4800 -0.2547  0.1366
  112MOL     H842410   5.020   0.562   6.511  0.6473 -1.8654  3.0520
  112MOL     H942411   5.105   0.598   6.663 -2.4961 -2.6574  1.0593
  112MOL    H1042412   5.198   0.728   6.457 -0.6026  0.8903 -1.5992
  112MOL    H1142413   4.989   0.614   6.318  1.2589 -0.4845 -0.3694
  112MOL    H1242414   5.109   0.713   6.244  0.1290 -1.0460  1.0708
  112MOL    H1342415   4.934   0.873   6.171  0.0112  0.1498  1.0882
  112MOL    H1442416   4.775   0.841   6.372 -1.3884 -0.4129  0.3657
  112MOL    H1542417   4.691   0.843   6.210 -0.1270 -1.1779 -1.0149
  112MOL    H1642418   4.726   0.691   6.294 -1.4561  0.8695  2.1641
  112MOL    H1742419   4.848   0.584   6.109  1.4223 -0.6187 -0.1506
  112MOL    H1842420   4.796   0.713   6.014 -0.2610 -0.8418  0.7986
  112MOL    H1942421   4.975   0.675   6.033  0.7018  1.9202  0.0977
  112MOL    H2042422   4.945   0.671   6.626 -0.3062  0.3009 -0.4141
  112MOL    C2142423   5.144   0.871   6.603 -0.4081  1.2532 -0.6335
  112MOL    C2242424   5.257   0.852   6.702  0.4470  0.4869 -0.0455
  112MOL    O2342425   5.212   0.780   6.818  0.7109  0.2479  0.0252
  112MOL    C2442426   5.134   0.855   6.910  0.2529  0.2362 -0.2461
  112MOL    C2542427   5.031   0.766   6.976  0.2859 -0.4448  0.7927
  112MOL    C2642428   5.097   0.631   7.019 -1.0212  0.0160 -0.1523
  112MOL    C2742429   4.964   0.834   7.095  0.4914 -0.7982 -0.5140
  112MOL    H2842430   5.174   0.958   6.544  0.3743 -0.6359 -3.0937
  112MOL    H2942431   5.055   0.903   6.657 -0.5280 -0.5251  0.2457
  112MOL    H3042432   5.278   0.954   6.734 -2.1344  0.3601  2.2386
  112MOL    H3142433   5.088   0.938   6.858 -0.6631  0.5871  1.0870
  112MOL    H3242434   5.198   0.892   6.990 -0.8236  0.9172  0.3059
  112MOL    H3342435   4.950   0.735   6.909 -0.3234  2.2060  0.2733
  112MOL    H3442436   5.108   0.551   6.945 -0.0387  0.8465 -0.9182
  112MOL    H3542437   5.041   0.593   7.104  2.1520  1.3763  2.6666
  112MOL    H3642438   5.199   0.651   7.053 -1.3203  0.0107  0.7746
  112MOL    H3742439   4.920   0.931   7.071  2.0343  0.1046  0.2522
  112MOL    H3842440   4.884   0.776   7.141  0.1704 -0.7112 -0.9596
  112MOL    H3942441   5.028   0.854   7.181  0.9244  0.6985 -1.1654
  112MOL    C4042442   5.378   0.773   6.652  0.4036  0.1510 -0.6631
  112MOL    C4142443   5.476   0.856   6.571 -0.0423  0.2691 -0.4117
  112MOL    O4242444   5.412   0.896   6.452  0.2777 -0.2317  0.4395
  112MOL    C4342445   5.389   1.038   6.448  0.0653  0.2199 -0.1113
  112MOL    C4442446   5.297   1.068   6.329  0.5410  0.4584  0.4085
  112MOL    C4542447   5.272   1.218   6.305  0.9718  0.6214  0.3492
  112MOL    C4642448   5.350   1.001   6.203  0.0201 -1.0471 -0.1893
  112MOL    H4742449   5.345   0.689   6.590 -1.9147  1.7740 -1.6803
  112MOL    H4842450   5.422   0.727   6.740 -2.3805 -0.0298  0.6790
  112MOL    H4942451   5.494   0.943   6.634  0.3245 -0.3803  0.3848
  112MOL    H5042452   5.482   1.089   6.424 -2.0095  3.3073 -1.9286
  112MOL    H5142453   5.361   1.087   6.541  1.5444  3.1346 -1.1544
  112MOL    H5242454   5.200   1.021   6.340  0.8212 -0.0672  0.6506
  112MOL    H5342455   5.358   1.274   6.268 -0.2294  1.7705 -0.7334
  112MOL    H5442456   5.200   1.230   6.224  0.9696  2.8875  0.6439
  112MOL    H5542457   5.244   1.277   6.392 -1.7645 -2.4645  1.6628
  112MOL    H5642458   5.287   1.014   6.115  2.5037 -4.1033 -2.5126
  112MOL    H5742459   5.347   0.893   6.212 -0.3085 -0.7788  3.5231
  112MOL    H5842460   5.450   1.040   6.182  1.0734 -1.0241  4.3003
  112MOL    C5942461   5.608   0.775   6.552 -0.2148 -0.5111 -0.3775
  112MOL    C6042462   5.723   0.844   6.478 -0.5661 -0.3770 -0.1332
  112MOL    O6142463   5.825   0.742   6.466 -0.6389 -0.0198 -0.0386
  112MOL    C6242464   5.825   0.681   6.338 -0.4699 -0.0841  0.4319
  112MOL    C6342465   5.933   0.568   6.340 -1.1202 -0.4413  0.6699
  112MOL    C6442466   5.881   0.459   6.436  0.2661  0.0871 -0.0615
  112MOL    C6542467   5.972   0.521   6.195 -0.1329  0.1733 -0.1670
  112MOL    H6642468   5.586   0.682   6.499 -3.2462 -0.3205  0.4883
  112MOL    H6742469   5.651   0.739   6.645 -0.0942  1.1374  0.2144
  112MOL    H6842470   5.685   0.879   6.381 -0.2210  2.0548  0.5866
  112MOL    H6942471   5.721   0.655   6.321 -0.2710 -1.0694  0.7136
  112MOL    H7042472   5.856   0.758   6.268  0.4775 -1.2320 -0.4318
  112MOL    H7142473   6.014   0.623   6.388 -2.2751 -0.1372  2.3004
  112MOL    H7242474   5.878   0.484   6.542 -3.4020  1.6454 -0.4598
  112MOL    H7342475   5.938   0.366   6.432 -1.3993 -1.0158  1.1673
  112MOL    H7442476   5.778   0.443   6.405 -0.0816  3.5937 -0.9414
  112MOL    H7542477   5.987   0.613   6.137  2.1982  0.3535  0.6640
  112MOL    H7642478   6.069   0.471   6.186  1.1595  2.3612  1.1269
  112MOL    H7742479   5.902   0.460   6.139 -0.2304 -0.7732  0.9669
  112MOL    C7842480   5.801   0.969   6.545  0.1326 -1.0468 -0.7817
  112MOL    C7942481   5.866   1.067   6.446  0.6167  0.5668 -0.6415
  112MOL    O8042482   5.764   1.172   6.431  0.2375 -0.2644  0.4610
  112MOL    C8142483   5.745   1.203   6.291  0.0603 -0.2299 -0.4294
  112MOL    C8242484   5.674   1.330   6.281  0.0128  0.2207  0.2020
  112MOL    C8342485   5.659   1.369   6.131 -0.2275 -0.2271  0.3080
  112MOL    C8442486   5.747   1.442   6.356  0.7064 -0.0656 -0.1999
  112MOL    H8542487   5.879   0.937   6.613 -0.3891  0.8799  0.7687
  112MOL    H8642488   5.737   1.021   6.616  0.2035 -0.0018 -1.4705
  112MOL    H8742489   5.873   1.009   6.354  0.0361 -0.7399  0.1413
  112MOL    H8842490   5.837   1.198   6.232  1.9179 -0.1720  2.3636
  112MOL    H8942491   5.689   1.115   6.258 -1.0960  1.2054 -2.4041
  112MOL    H9042492   5.580   1.317   6.335 -0.9368  0.1211 -1.4672
  112MOL    H9142493   5.633   1.474   6.125 -1.4578 -0.6917 -3.6748
  112MOL    H9242494   5.575   1.309   6.096  1.3917 -0.0352 -4.2687
  112MOL    H9342495   5.752   1.356   6.075  0.0580  1.2433  0.4300
  112MOL    H9442496   5.852   1.446   6.328  0.6108  0.8800 -0.4307
  112MOL    H9542497   5.737   1.430   6.464  0.2582  1.4809 -0.0573
  112MOL    H9642498   5.702   1.538   6.330 -0.4749 -0.4560  0.3488
  112MOL    C9742499   6.002   1.131   6.502 -0.5690  0.5097 -0.0185
  112MOL    C9842500   6.112   1.182   6.401  0.4341 -0.0551  0.2833
  112MOL    O9942501   6.214   1.087   6.393  0.1356  0.3908 -0.2360
  112MOL   C10042502   6.180   0.971   6.317  0.2769  0.2490  0.1391
  112MOL   C10142503   6.300   0.873   6.313  0.1267 -0.5343  0.8270
  112MOL   C10242504   6.335   0.811   6.449 -0.7556 -0.0459 -0.3046
  112MOL   C10342505   6.281   0.767   6.208  0.3712  0.2788 -0.1245
  112MOL   H10442506   6.056   1.061   6.565 -0.8503  0.7503  0.4904
  112MOL   H10542507   5.977   1.206   6.577  2.8480  1.0560  0.6840
  112MOL   H10642508   6.063   1.198   6.305  0.4265 -0.8018  0.1567
  112MOL   H10742509   6.149   0.992   6.215 -1.4526  0.4868  0.6925
  112MOL   H10842510   6.098   0.918   6.365 -0.6408  0.3327 -1.3296
  112MOL   H10942511   6.380   0.932   6.269 -1.7121  1.0486 -0.4938
  112MOL   H11042512   6.370   0.889   6.515 -3.2836  0.9798 -0.1374
  112MOL   H11142513   6.243   0.763   6.484 -0.5892  1.0148  1.6080
  112MOL   H11242514   6.409   0.730   6.441  0.9727  1.3172  1.5655
  112MOL   H11342515   6.174   0.745   6.216  0.5158 -0.1996  0.4877
  112MOL   H11442516   6.303   0.806   6.109  0.8690 -0.4068 -0.2857
  112MOL   H11542517   6.325   0.668   6.222 -0.4436 -0.1974 -0.7930
  112MOL   C11642518   6.189   1.306   6.459 -0.1958 -0.1494 -0.3336
  112MOL   C11742519   6.309   1.354   6.382 -0.3866  0.6956 -0.8819
  112MOL   O11842520   6.260   1.410   6.258 -0.0555 -0.4780  0.0098
  112MOL   C11942521   6.285   1.340   6.147 -0.2016 -0.1164  0.2296
  112MOL   C12042522   6.196   1.393   6.023  0.4921  0.5695  0.3213
  112MOL   C12142523   6.047   1.390   6.053  0.4950  0.2192  0.4855
  112MOL   C12242524   6.252   1.527   5.964 -1.0216 -0.1032 -0.3239
  112MOL   H12342525   6.117   1.382   6.490 -2.7023 -2.8132  0.5502
  112MOL   H12442526   6.231   1.278   6.556  1.0986  1.1427 -0.4940
  112MOL   H12542527   6.369   1.267   6.356  0.7869  0.6005  1.9741
  112MOL   H12642528   6.260   1.235   6.166  0.8769 -0.2341  1.0309
  112MOL   H12742529   6.392   1.340   6.130  0.1766  2.4447  2.4436
  112MOL   H12842530   6.208   1.315   5.947  0.5154  0.6392  0.2535
  112MOL   H12942531   5.989   1.419   5.966  0.4165 -2.9415 -0.5783
  112MOL   H13042532   6.012   1.447   6.139 -3.0261 -1.6943  0.4052
  112MOL   H13142533   6.015   1.288   6.078 -0.2506  0.2959 -0.1429
  112MOL   H13242534   6.256   1.610   6.035 -2.4659 -0.0791 -0.2557
  112MOL   H13342535   6.350   1.505   5.922  0.4802 -0.2504  3.0401
  112MOL   H13442536   6.183   1.559   5.887 -1.5397  1.3159  0.6937
  112MOL   C13542537   6.384   1.449   6.468 -0.2562 -0.1863  0.1016
  112MOL   C13642538   6.499   1.523   6.407  0.2782  0.1090  0.4467
  112MOL   O13742539   6.559   1.615   6.490  0.1885 -0.4549  0.0629
  112MOL   C13842540   6.521   1.754   6.481  0.2815  0.4274 -0.3459
  112MOL   C13942541   6.613   1.844   6.565 -0.5735  0.0337 -0.1837
  112MOL   C14042542   6.767   1.822   6.529  0.3865 -0.0599 -0.0158
  112MOL   C14142543   6.572   1.995   6.561 -0.2334 -0.3211  0.5823
  112MOL   H14242544   6.304   1.519   6.493  0.8860  0.0916  3.0869
  112MOL   H14342545   6.420   1.397   6.556 -0.6002 -1.1938 -0.3443
  112MOL   H14442546   6.459   1.564   6.314  0.9878  0.9695  0.5090
  112MOL   H14542547   6.424   1.757   6.529 -0.0524 -0.4768 -0.9553
  112MOL   H14642548   6.512   1.770   6.373  1.1430  0.2508 -0.4470
  112MOL   H14742549   6.604   1.823   6.672  0.5442 -0.2468 -0.1305
  112MOL   H14842550   6.826   1.891   6.590  1.4541 -0.0978 -0.9936
  112MOL   H14942551   6.799   1.837   6.426 -0.1961  1.3057 -0.0112
  112MOL   H15042552   6.800   1.725   6.567 -0.8873 -0.6414 -0.3579
  112MOL   H15142553   6.595   2.026   6.459 -3.2846  3.8813  1.0316
  112MOL   H15242554   6.465   2.014   6.568 -0.4360 -0.6075 -1.4696
  112MOL   H15342555   6.616   2.052   6.644  1.6779  0.6819 -1.0816
  112MOL   C15442556   6.606   1.429   6.354  0.2458  0.4933  0.5110
  112MOL   C15542557   6.729   1.498   6.283  0.3813 -0.3685  0.0424
  112MOL   O15642558   6.837   1.406   6.288  0.3195  0.6658  0.1869
  112MOL   C15742559   6.919   1.429   6.406  0.5565 -0.0625 -0.2116
  112MOL   C15842560   7.031   1.331   6.402 -0.1144 -0.3319  0.1138
  112MOL   C15942561   6.980   1.192   6.381 -0.2978 -0.9886  0.2363
  112MOL   C16042562   7.142   1.368   6.297  0.2433 -0.3059  0.1665
  112MOL   H16142563   6.554   1.367   6.281 -3.2959  2.7087  1.0619
  112MOL   H16242564   6.641   1.371   6.439 -0.4681  1.4673  1.4756
  112MOL   H16342565   6.756   1.589   6.337  0.1327  0.2214 -0.8252
  112MOL   H16442566   6.857   1.439   6.495 -0.7652  0.7204 -1.2040
  112MOL   H16542567   6.963   1.529   6.400 -0.1236  0.4243  2.2580
  112MOL   H16642568   7.082   1.334   6.499  1.0528  0.8558 -0.5203
  112MOL   H16742569   6.907   1.184   6.300 -0.8272 -0.1780  0.6242
  112MOL   H16842570   6.930   1.161   6.473 -2.0581  0.4451 -0.2067
  112MOL   H16942571   7.058   1.118   6.363  0.8906  0.7293 -1.8172
  112MOL   H17042572   7.108   1.362   6.194  0.8919  1.5505 -0.1802
  112MOL   H17142573   7.184   1.467   6.319 -1.7974  0.8655 -1.0610
  112MOL   H17242574   7.217   1.290   6.287  1.0479  0.5037 -0.2405
  112MOL   C17342575   6.680   1.535   6.138 -0.1190 -0.0449 -0.3305
  112MOL   C17442576   6.729   1.671   6.086 -0.5029 -0.3691 -0.1506
  112MOL   O17542577   6.783   1.670   5.955  0.5282 -0.1572 -0.1696
  112MOL   C17642578   6.923   1.642   5.954 -0.3361 -1.0852  0.0215
  112MOL   C17742579   6.986   1.649   5.821 -0.2886  0.1082  0.3303
  112MOL   C17842580   6.988   1.794   5.770  0.2196  0.3857 -0.0274
  112MOL   C17942581   7.130   1.593   5.818  0.5281  0.1485 -0.3710
  112MOL   H18042582   6.713   1.458   6.067  1.4247 -0.7859  1.1436
  112MOL   H18142583   6.572   1.533   6.131  0.0462  0.5189 -3.6877
  112MOL   H18242584   6.812   1.704   6.149  0.8341  1.1836 -2.6343
  112MOL   H18342585   6.929   1.540   5.992 -0.4008 -0.9497  0.4031
  112MOL   H18442586   6.970   1.712   6.024 -1.3115  1.6841 -1.9998
  112MOL   H18542587   6.925   1.584   5.757  0.7040  1.8220 -2.4391
  112MOL   H18642588   6.892   1.845   5.773  0.7128  1.2076  2.8348
  112MOL   H18742589   7.065   1.851   5.822  1.9848 -0.1785 -1.9299
  112MOL   H18842590   7.024   1.786   5.667 -0.2469  1.0878 -0.2478
  112MOL   H18942591   7.176   1.623   5.724 -0.2678 -0.1604 -0.8637
  112MOL   H19042592   7.134   1.485   5.835  0.0042  0.1176 -0.4406
  112MOL   H19142593   7.188   1.646   5.893  0.2836 -0.5231  0.2992
  112MOL   C19242594   6.614   1.776   6.072  0.3444 -0.3881 -0.2245
  112MOL   C19342595   6.642   1.928   6.080 -0.3648 -0.0189  0.2038
  112MOL   O19442596   6.512   1.978   6.060 -0.0327 -0.0020 -0.0898
  112MOL   C19542597   6.465   2.044   6.179  0.1509  0.8481 -0.1144
  112MOL   C19642598   6.318   2.043   6.173 -0.4181 -0.6723  0.0357
  112MOL   C19742599   6.264   2.145   6.280 -0.2304  0.5904  0.4030
  112MOL   C19842600   6.263   1.898   6.192 -0.2951 -0.3711  0.1447
  112MOL   H19942601   6.547   1.749   6.153  0.8860 -0.9033  0.0491
  112MOL   H20042602   6.550   1.748   5.989 -0.9253  0.5413  0.4193
  112MOL   H20142603   6.695   1.962   6.169  0.9296 -0.1206 -0.5191
  112MOL   H20242604   6.510   2.144   6.171  1.2589  0.3286 -0.5359
  112MOL   H20342605   6.499   1.992   6.269  1.7646  3.0432  0.6195
  112MOL   H20442606   6.285   2.086   6.078  2.0900  1.4150  0.0768
  112MOL   H20542607   6.322   2.237   6.272 -1.2305  1.0749 -1.9632
  112MOL   H20642608   6.160   2.169   6.257 -0.9293 -2.9890 -0.4454
  112MOL   H20742609   6.255   2.115   6.384  0.3112  0.6851  0.4791
  112MOL   H20842610   6.155   1.899   6.208 -0.2030 -2.4594  1.0197
  112MOL   H20942611   6.292   1.832   6.111  0.8510  1.0723 -0.6300
  112MOL   H21042612   6.317   1.841   6.268  1.7507  1.3293  0.0118
  112MOL   C21142613   6.728   1.976   5.961 -0.6075  0.8192 -0.4720
  112MOL   C21242614   6.746   2.125   5.963 -0.2032 -0.1091  0.1274
  112MOL   O21342615   6.835   2.155   6.073  0.1267  0.1880  0.2182
  112MOL   C21442616   6.831   2.295   6.108  0.3655  0.3485 -0.0783
  112MOL   C21542617   6.858   2.309   6.265 -0.6355  0.0303  0.0658
  112MOL   C21642618   6.849   2.458   6.308  0.1863 -0.4148  0.3682
  112MOL   C21742619   6.753   2.238   6.351 -0.3827  0.0133 -0.6833
  112MOL   H21842620   6.670   1.938   5.876 -0.9959  0.0960  0.1106
  112MOL   H21942621   6.823   1.924   5.954 -0.2351  1.4574 -0.1889
  112MOL   H22042622   6.652   2.179   5.976  0.0903  0.6590 -0.8983
  112MOL   H22142623   6.731   2.336   6.093 -0.3326 -1.2462  0.1894
  112MOL   H22242624   6.904   2.347   6.047  1.0973 -0.2374  0.3020
  112MOL   H22342625   6.956   2.267   6.287 -0.9178 -0.5471  0.2316
  112MOL   H22442626   6.864   2.468   6.416 -1.3979 -0.6544  0.6233
  112MOL   H22542627   6.926   2.512   6.253 -0.1598 -2.0411 -1.7815
  112MOL   H22642628   6.752   2.503   6.286  0.0257 -1.3764 -0.9493
  112MOL   H22742629   6.750   2.135   6.317  2.8785 -1.2020  2.5000
  112MOL   H22842630   6.655   2.286   6.350  0.0513  0.9182 -2.5723
  112MOL   H22942631   6.798   2.224   6.449  2.4191  1.9495 -1.6111
  112MOL   C23042632   6.814   2.178   5.829  0.0994  0.8470 -0.0310
  112MOL   C23142633   6.723   2.180   5.704 -0.1785 -0.0375  0.0505
  112MOL   O23242634   6.778   2.267   5.606 -0.3909  0.5585  0.1241
  112MOL   C23342635   6.741   2.408   5.621  0.2336 -0.2244 -0.2790
  112MOL   C23442636   6.605   2.427   5.541 -0.0412 -0.7275  0.7367
  112MOL   C23542637   6.545   2.565   5.555 -1.2527 -0.0112 -0.1398
  112MOL   C23642638   6.626   2.412   5.389  0.2683 -0.3454  0.1431
  112MOL   H23742639   6.913   2.136   5.811  0.2440  0.4535  1.6260
  112MOL   H23842640   6.840   2.282   5.848  1.7618  0.6127 -0.9372
  112MOL   H23942641   6.624   2.208   5.739 -0.5763 -0.1467 -0.9952
  112MOL   H24042642   6.743   2.439   5.726 -0.5319  1.2523 -0.6840
  112MOL   H24142643   6.828   2.460   5.579  0.3733  0.0348  0.3279
  112MOL   H24242644   6.531   2.353   5.573  1.2066 -1.9290  0.9366
  112MOL   H24342645   6.618   2.645   5.547 -1.6285  0.2042 -1.4810
  112MOL   H24442646   6.508   2.594   5.654 -2.2105 -0.2182 -0.4300
  112MOL   H24542647   6.454   2.582   5.498 -0.9286  1.5017 -0.2225
  112MOL   H24642648   6.530   2.437   5.344  1.2044  0.1475 -1.6337
  112MOL   H24742649   6.700   2.482   5.351 -0.7871  0.1955 -0.9208
  112MOL   H24842650   6.648   2.309   5.359 -0.9951 -0.8116  0.7904
  112MOL   C24942651   6.707   2.046   5.630 -0.5597 -0.8042  0.1072
  112MOL   C25042652   6.563   2.040   5.563  0.0540  0.4388  0.2685
  112MOL   O25142653   6.561   1.959   5.442 -0.0590 -0.2626  0.1706
  112MOL   C25242654   6.582   2.028   5.318  1.0948 -0.1696  0.5191
  112MOL   C25342655   6.577   1.936   5.195  1.0363 -0.4526  0.5513
  112MOL   C25442656   6.640   2.012   5.075 -0.1318  0.6608  0.0960
  112MOL   C25542657   6.428   1.897   5.169  0.3171  0.8787 -0.4871
  112MOL   H25642658   6.725   1.956   5.688 -1.9677 -0.0309  1.8238
  112MOL   H25742659   6.782   2.043   5.551 -1.8007  1.9816 -1.2630
  112MOL   H25842660   6.532   2.138   5.527  2.1680  0.2442 -2.2219
  112MOL   H25942661   6.522   2.119   5.306 -1.1357 -1.7405 -0.7085
  112MOL   H26042662   6.683   2.067   5.330  1.0595  0.1966 -0.3303
  112MOL   H26142663   6.628   1.843   5.220  1.5416 -0.2382  0.3110
  112MOL   H26242664   6.660   1.949   4.989  0.8874 -0.8667  1.4306
  112MOL   H26342665   6.743   2.041   5.095 -0.1005  1.0694 -0.6436
  112MOL   H26442666   6.576   2.096   5.049  0.8965  1.6460  0.7184
  112MOL   H26542667   6.374   1.990   5.158 -0.7739  0.1242 -1.6665
  112MOL   H26642668   6.415   1.834   5.081  0.4687 -0.1546  0.2228
  112MOL   H26742669   6.394   1.846   5.259 -1.4432 -0.1190 -1.6872
  112MOL   C26842670   6.467   1.986   5.675 -0.8641  0.6542 -0.1593
  112MOL   C26942671   6.321   1.967   5.623 -0.3596  0.5248 -0.2407
  112MOL   O27042672   6.257   2.092   5.623 -0.5238  0.2766  0.2570
  112MOL   C27142673   6.188   2.137   5.508 -0.0470  0.4890  0.1809
  112MOL   C27242674   6.165   2.293   5.521  0.4540  0.6110 -0.1258
  112MOL   C27342675   6.113   2.346   5.393 -0.3235 -0.0227  0.4542
  112MOL   C27442676   6.066   2.321   5.635 -0.5079 -0.3577 -0.9150
  112MOL   H27542677   6.460   2.043   5.768  0.9329 -1.4738  1.3589
  112MOL   H27642678   6.511   1.891   5.706  0.7325  1.0628 -1.1334
  112MOL   H27742679   6.327   1.928   5.521 -0.6579 -0.4017  0.0892
  112MOL   H27842680   6.231   2.112   5.410  1.4327 -2.0960  1.4352
  112MOL   H27942681   6.086   2.098   5.507  0.2191 -0.2256 -1.0008
  112MOL   H28042682   6.258   2.346   5.543  0.0583  0.5106  1.8861
  112MOL   H28142683   6.169   2.304   5.309  3.0019  3.5789  0.7604
  112MOL   H28242684   6.122   2.454   5.392 -0.1320 -0.0021  2.8143
  112MOL   H28342685   6.004   2.332   5.390 -0.7136  2.3280  2.1959
  112MOL   H28442686   6.122   2.308   5.728 -2.1150 -1.6533 -0.1039
  112MOL   H28542687   5.993   2.240   5.633 -1.5019  0.5382 -1.8511
  112MOL   H28642688   6.025   2.421   5.647  0.0014 -0.3970  1.2294
  112MOL   C28742689   6.230   1.872   5.709 -0.4429 -0.3129  0.1834
  112MOL   C28842690   6.083   1.855   5.667 -0.4942  0.2781  0.2371
  112MOL   O28942691   6.019   1.790   5.779  0.0956  0.2704  0.7265
  112MOL   C29042692   5.952   1.878   5.870  0.0295 -0.4706  0.1897
  112MOL   C29142693   5.911   1.807   6.004  0.3685  0.2615 -0.0723
  112MOL   C29242694   5.796   1.711   5.974  0.2532 -0.2231  0.2321
  112MOL   C29342695   5.881   1.901   6.124  0.0006  0.5071 -0.3983
  112MOL   H29442696   6.222   1.915   5.809  0.8305 -0.7719  0.4870
  112MOL   H29542697   6.278   1.776   5.727  1.0936  0.2482 -0.8178
  112MOL   H29642698   6.051   1.959   5.656 -1.7993 -0.0480  0.7775
  112MOL   H29742699   6.013   1.966   5.887 -2.0191  1.2675 -1.1795
  112MOL   H29842700   5.860   1.919   5.829  0.4042 -0.5641 -0.7448
  112MOL   H29942701   5.995   1.741   6.028  1.6462  1.7089 -0.4384
  112MOL   H30042702   5.705   1.767   5.957 -0.4543 -2.1048 -2.3718
  112MOL   H30142703   5.770   1.656   6.064 -0.8986  0.7963  0.5339
  112MOL   H30242704   5.805   1.643   5.890  0.3840  0.1198 -0.0303
  112MOL   H30342705   5.794   1.962   6.098 -0.2779  0.2789 -0.0131
  112MOL   H30442706   5.854   1.838   6.209 -0.5551  2.5208  0.9651
  112MOL   H30542707   5.968   1.958   6.154  0.2018  0.1727 -0.3467
  112MOL   C30642708   6.049   1.778   5.540  0.4417 -0.7301 -0.0968
  112MOL   C30742709   5.898   1.768   5.504 -0.0261 -0.0374 -0.1050
  112MOL   O30842710   5.864   1.907   5.494 -0.6721 -0.2303 -0.5603
  112MOL   C30942711   5.733   1.929   5.557 -0.2714 -0.3318 -0.0322
  112MOL   C31042712   5.718   2.072   5.612  0.2590  0.9824  0.1273
  112MOL   C31142713   5.568   2.089   5.663 -0.0789  0.4383  0.0329
  112MOL   C31242714   5.744   2.182   5.504 -0.2910 -0.9420  0.3829
  112MOL   H31342715   6.091   1.677   5.541  1.3861 -0.3206  1.3729
  112MOL   H31442716   6.107   1.839   5.470 -0.1732  0.4922  0.4431
  112MOL   H31542717   5.853   1.704   5.580  0.1181  1.0953  0.9624
  112MOL   H31642718   5.709   1.868   5.644 -0.4296  1.0974  0.9389
  112MOL   H31742719   5.659   1.903   5.481 -0.5731  0.3899  0.0065
  112MOL   H31842720   5.782   2.080   5.700 -0.2642 -1.6514  0.7983
  112MOL   H31942721   5.488   2.051   5.600  0.8329  2.8413 -2.7053
  112MOL   H32042722   5.554   2.196   5.668 -0.6262  0.3165  1.0050
  112MOL   H32142723   5.549   2.046   5.761  0.9288  1.4988  0.6999
  112MOL   H32242724   5.725   2.279   5.550 -2.2501 -1.5552  0.9012
  112MOL   H32342725   5.674   2.167   5.423  1.7445  1.2966 -1.8705
  112MOL   H32442726   5.844   2.183   5.461  0.3711 -0.4921  1.8648
  112MOL   C32542727   5.868   1.707   5.366  0.5639  0.6660  0.1716
  112MOL   C32642728   5.928   1.771   5.248  0.1531 -0.4893  0.1743
  112MOL   O32742729   5.982   1.668   5.157  0.6519  0.2780 -0.4146
  112MOL   C32842730   6.097   1.597   5.198 -0.1158  0.7610 -0.0277
  112MOL   C32942731   6.147   1.504   5.087 -0.0943 -1.1781 -0.4263
  112MOL   C33042732   6.266   1.417   5.130  0.5211  0.1596  0.1668
  112MOL   C33142733   6.033   1.416   5.023 -0.5230  0.5981  0.3217
  112MOL   H33242734   5.761   1.700   5.348  0.3338 -0.0740  1.7922
  112MOL   H33342735   5.897   1.602   5.370 -0.3951  0.3931 -0.0078
  112MOL   H33442736   6.014   1.829   5.281 -0.1184  0.2659 -0.4404
  112MOL   H33542737   6.177   1.669   5.213 -0.7200  2.0604 -2.7030
  112MOL   H33642738   6.088   1.531   5.284  2.2295 -1.3583 -1.3587
  112MOL   H33742739   6.177   1.577   5.013  1.8141  1.6346  2.9431
  112MOL   H33842740   6.297   1.345   5.053  0.8587 -1.6626  1.9679
  112MOL   H33942741   6.351   1.471   5.172  2.0876 -0.3574 -2.2182
  112MOL   H34042742   6.235   1.355   5.214 -0.2087 -1.6519 -1.4014
  112MOL   H34142743   5.947   1.473   4.987 -0.6741 -0.2474 -0.6874
  112MOL   H34242744   6.072   1.346   4.950  0.5815  2.2639 -0.7253
  112MOL   H34342745   5.989   1.347   5.095  1.6146 -2.1726 -0.9356
  112MOL   C34442746   5.826   1.856   5.175  0.2380 -0.8272  0.2287
  112MOL   C34542747   5.881   1.914   5.039 -0.2036 -0.0731  0.5412
  112MOL   O34642748   5.796   2.022   4.990  0.3854 -0.2318 -0.1619
  112MOL   C34742749   5.730   1.998   4.869 -0.2508  0.2607  0.6257
  112MOL   C34842750   5.671   2.130   4.815 -0.4781  0.1843  0.5010
  112MOL   C34942751   5.773   2.226   4.761  0.3055  1.1689 -0.2196
  112MOL   C35042752   5.567   2.177   4.921 -0.7028  0.7390 -0.0969
  112MOL   H35142753   5.784   1.935   5.237  0.7594 -0.3159 -0.0688
  112MOL   H35242754   5.741   1.792   5.150  0.4590 -0.3237 -1.8979
  112MOL   H35342755   5.898   1.837   4.963  0.0355 -0.5984  1.1273
  112MOL   H35442756   5.647   1.934   4.898  0.6966 -0.5340  1.5938
  112MOL   H35542757   5.784   1.947   4.789 -1.4792  0.0151 -0.0522
  112MOL   H35642758   5.609   2.104   4.729  0.6402  2.3537 -0.9988
  112MOL   H35742759   5.841   2.248   4.844 -0.3080  1.7691  0.1331
  112MOL   H35842760   5.723   2.314   4.720 -1.9465  0.4835  1.0129
  112MOL   H35942761   5.837   2.168   4.695  0.5532  0.9011  0.2517
  112MOL   H36042762   5.529   2.275   4.894 -0.1100  1.1606  0.6053
  112MOL   H36142763   5.484   2.107   4.931  1.4371 -1.7342  1.0405
  112MOL   H36242764   5.605   2.177   5.023 -1.7448 -3.7569  0.4029
  112MOL   C36342765   6.027   1.974   5.049  0.3455  0.5802  0.3846
  112MOL   C36442766   6.080   2.010   4.907 -0.0657 -0.1871 -0.2051
  112MOL   O36542767   6.204   1.942   4.897 -0.5398  0.4223  0.5000
  112MOL   C36642768   6.272   1.942   4.771 -0.2846  0.7038  1.2897
  112MOL   C36742769   6.395   1.841   4.778 -0.0637 -0.9826 -0.0371
  112MOL   C36842770   6.487   1.855   4.648 -0.4751  0.2967 -0.0544
  112MOL   C36942771   6.339   1.696   4.800 -0.2397 -0.4123  0.2147
  112MOL   H37042772   6.023   2.064   5.110  3.9584  0.4218  0.9815
  112MOL   H37142773   6.089   1.895   5.092 -1.5307 -0.8028  0.6110
  112MOL   H37242774   6.096   2.118   4.907 -0.1435 -0.1739 -0.7455
  112MOL   H37342775   6.201   1.917   4.693  1.2048 -1.7828  0.6660
  112MOL   H37442776   6.299   2.047   4.755 -0.2556  0.8268  2.1394
  112MOL   H37542777   6.456   1.863   4.865  0.0428  0.0317 -0.3631
  112MOL   H37642778   6.580   1.803   4.670 -0.6156  0.2914  0.5568
  112MOL   H37742779   6.507   1.957   4.616 -2.2839  1.1984  1.5572
  112MOL   H37842780   6.440   1.802   4.565 -1.4134 -0.4380  0.9285
  112MOL   H37942781   6.255   1.662   4.740  2.0179 -2.8343 -1.7112
  112MOL   H38042782   6.324   1.678   4.906 -0.0642 -0.6517  0.1985
  112MOL   H38142783   6.416   1.622   4.777  0.7286  1.0134 -1.2889
  112MOL   H38242784   6.014   1.986   4.823 -0.4202 -0.5793  0.1878
  113MOL     C142785   1.343   3.228   5.134  0.0289 -0.4265 -0.2350
  113MOL     C242786   1.273   3.259   5.266  0.0791 -0.2177 -0.2998
  113MOL     O342787   1.150   3.189   5.271 -0.0663 -0.3528  0.2642
  113MOL     C442788   1.050   3.229   5.177 -0.1098  0.0627  0.5909
  113MOL     C542789   0.933   3.126   5.195 -0.3104  0.2796 -0.7112
  113MOL     C642790   0.835   3.121   5.071 -0.5985  0.0445  0.1813
  113MOL     C742791   0.855   3.156   5.332 -0.2495  0.5135  0.0410
  113MOL     H842792   1.448   3.248   5.156 -0.3266 -2.8850  4.2829
  113MOL     H942793   1.330   3.128   5.094 -0.3444 -0.0501 -1.0610
  113MOL    H1042794   1.257   3.365   5.252  0.3198 -0.1664 -0.1833
  113MOL    H1142795   1.098   3.215   5.081  0.3343  1.4396  0.6056
  113MOL    H1242796   1.018   3.332   5.190 -1.0941 -0.1438 -0.1827
  113MOL    H1342797   0.979   3.029   5.210  1.4571  1.2531  0.4213
  113MOL    H1442798   0.739   3.073   5.087  0.4905 -2.8852 -1.6446
  113MOL    H1542799   0.813   3.217   5.023  0.4693 -0.6334 -1.7005
  113MOL    H1642800   0.880   3.062   4.991 -1.9759  1.1012 -1.4118
  113MOL    H1742801   0.851   3.263   5.351 -1.6669  0.0460  2.6475
  113MOL    H1842802   0.750   3.127   5.327 -0.0854  0.1612 -1.7092
  113MOL    H1942803   0.902   3.105   5.416  0.3119 -0.4261 -0.8342
  113MOL    H2042804   1.314   3.295   5.053  0.8651  0.1869 -0.0411
  113MOL    C2142805   1.357   3.223   5.395 -0.4438  0.2342  0.0850
  113MOL    C2242806   1.279   3.257   5.526 -0.2302  0.0144 -0.3898
  113MOL    O2342807   1.286   3.138   5.609  0.1501 -0.7440 -0.0630
  113MOL    C2442808   1.161   3.108   5.674 -0.1154 -0.0505 -0.0801
  113MOL    C2542809   1.159   2.952   5.700  0.4117 -0.0433  0.0199
  113MOL    C2642810   1.074   2.908   5.830  0.0182 -0.0937 -0.2080
  113MOL    C2742811   1.120   2.869   5.576  0.6171  0.2107  0.0208
  113MOL    H2842812   1.391   3.119   5.389 -1.3103  0.0245 -1.6859
  113MOL    H2942813   1.450   3.279   5.395  2.1574 -3.7484  3.9074
  113MOL    H3042814   1.177   3.291   5.509  0.1724  2.4456  1.8418
  113MOL    H3142815   1.068   3.140   5.627 -0.2030  0.4383  0.4200
  113MOL    H3242816   1.157   3.168   5.765 -0.1668 -1.7735  1.0616
  113MOL    H3342817   1.252   2.910   5.737  1.5401  1.0080 -1.5773
  113MOL    H3442818   1.051   2.801   5.831 -1.7290  0.2523 -1.2616
  113MOL    H3542819   0.977   2.954   5.844 -0.8525 -2.0633  0.4479
  113MOL    H3642820   1.128   2.924   5.923 -1.6247  1.7519  0.4509
  113MOL    H3742821   1.180   2.907   5.494 -2.0628  1.2108 -1.5231
  113MOL    H3842822   1.132   2.762   5.596 -0.0301 -0.1771 -1.5733
  113MOL    H3942823   1.020   2.885   5.538  0.0535 -3.3566 -0.1954
  113MOL    C4042824   1.338   3.371   5.615 -0.3499  0.7739  0.0103
  113MOL    C4142825   1.231   3.462   5.685  0.3745  0.0983 -0.3198
  113MOL    O4242826   1.173   3.550   5.587 -0.3645 -0.4633 -0.2840
  113MOL    C4342827   1.048   3.614   5.630 -0.2280 -0.1377  0.5459
  113MOL    C4442828   0.995   3.694   5.511 -0.4436 -0.2386  0.3103
  113MOL    C4542829   1.100   3.801   5.455 -0.2645  0.6316 -1.0393
  113MOL    C4642830   0.955   3.604   5.389 -0.1301 -0.1789 -0.3889
  113MOL    H4742831   1.406   3.429   5.553 -0.1246 -0.6331 -1.1077
  113MOL    H4842832   1.412   3.325   5.680 -0.3157 -1.1626 -1.3267
  113MOL    H4942833   1.145   3.404   5.718 -0.9654  0.2483 -3.3507
  113MOL    H5042834   1.073   3.678   5.715 -0.5050  2.1978 -1.0899
  113MOL    H5142835   0.973   3.548   5.673  1.0128 -1.3507  0.8822
  113MOL    H5242836   0.907   3.754   5.533 -0.2419  0.2202 -0.1095
  113MOL    H5342837   1.186   3.751   5.411 -0.6779 -0.2558 -0.8567
  113MOL    H5442838   1.067   3.859   5.369 -1.2487 -0.9545 -1.7476
  113MOL    H5542839   1.141   3.876   5.523  3.1713  0.6237 -2.9505
  113MOL    H5642840   1.047   3.558   5.356 -0.4462  0.4023 -2.0978
  113MOL    H5742841   0.925   3.663   5.303 -3.2777 -2.5389 -1.0074
  113MOL    H5842842   0.885   3.522   5.407  2.0743 -1.4897  2.6062
  113MOL    C5942843   1.310   3.543   5.790 -0.0975 -0.1222 -1.1195
  113MOL    C6042844   1.319   3.466   5.923  0.2300 -0.5452  1.0668
  113MOL    O6142845   1.193   3.461   5.979  0.1203 -0.1779  0.2678
  113MOL    C6242846   1.171   3.357   6.070 -0.1847  0.4633 -0.4627
  113MOL    C6342847   1.021   3.370   6.109 -0.1999  0.6883  0.4706
  113MOL    C6442848   0.980   3.260   6.208 -0.2910  0.1303  0.0502
  113MOL    C6542849   0.984   3.507   6.158 -0.1552  0.4798  0.8864
  113MOL    H6642850   1.260   3.638   5.810  0.0499  0.0734 -1.6701
  113MOL    H6742851   1.408   3.584   5.765 -0.0086 -0.0573 -0.6802
  113MOL    H6842852   1.346   3.363   5.901  3.2520  0.1763  1.2602
  113MOL    H6942853   1.191   3.256   6.034 -0.1483  1.1422 -2.4274
  113MOL    H7042854   1.233   3.366   6.159  2.3132 -3.5765 -1.6807
  113MOL    H7142855   0.962   3.358   6.018 -1.8758 -2.1111  1.8473
  113MOL    H7242856   0.875   3.274   6.237 -0.3076  2.6460 -1.0694
  113MOL    H7342857   1.041   3.270   6.298 -0.1542 -1.1262  0.1065
  113MOL    H7442858   1.004   3.162   6.168 -1.8790 -0.0525 -0.4985
  113MOL    H7542859   1.049   3.535   6.241  1.5352  0.1477 -0.2937
  113MOL    H7642860   0.984   3.580   6.076 -1.5703 -3.3688 -2.7129
  113MOL    H7742861   0.881   3.509   6.194 -0.5920 -0.1403 -0.2976
  113MOL    C7842862   1.420   3.522   6.020  0.0726 -0.3806  0.1409
  113MOL    C7942863   1.567   3.496   5.988 -0.5000  0.2380  0.5976
  113MOL    O8042864   1.638   3.579   6.064  0.4305 -0.9060 -0.0315
  113MOL    C8142865   1.693   3.689   5.982 -0.4313  0.2249  0.0026
  113MOL    C8242866   1.765   3.772   6.083  0.8163  0.2369  0.0744
  113MOL    C8342867   1.822   3.902   6.014 -0.5781 -0.6991 -0.4508
  113MOL    C8442868   1.874   3.697   6.159 -0.3872  0.4437 -0.0438
  113MOL    H8542869   1.397   3.489   6.121  0.9769 -1.2904  0.0532
  113MOL    H8642870   1.404   3.630   6.015 -0.2282 -0.5005 -2.2622
  113MOL    H8742871   1.580   3.522   5.883 -0.5517  0.6786  0.6974
  113MOL    H8842872   1.770   3.643   5.919  1.3779 -1.1719  3.0905
  113MOL    H8942873   1.617   3.740   5.924 -0.8517  1.5670  1.7026
  113MOL    H9042874   1.693   3.800   6.159  3.0992  0.8810  2.0641
  113MOL    H9142875   1.740   3.948   5.958 -0.5030 -2.3989 -2.0269
  113MOL    H9242876   1.904   3.879   5.946 -0.4605  0.7841 -0.8316
  113MOL    H9342877   1.852   3.981   6.083 -1.6093  1.0866 -1.9919
  113MOL    H9442878   1.847   3.613   6.224 -1.4494 -0.5533 -1.7436
  113MOL    H9542879   1.930   3.768   6.219 -2.0463  2.4296 -0.7983
  113MOL    H9642880   1.945   3.651   6.090  1.3813 -1.5660  2.9561
  113MOL    C9742881   1.621   3.359   6.015 -0.5648  0.3069 -0.3602
  113MOL    C9842882   1.763   3.322   5.955  0.2195  0.4967  0.5712
  113MOL    O9942883   1.753   3.302   5.814  0.4937 -0.1303 -0.2159
  113MOL   C10042884   1.809   3.402   5.738  0.3228  0.4452 -0.1129
  113MOL   C10142885   1.854   3.353   5.604 -0.2860  0.3103 -0.5019
  113MOL   C10242886   1.948   3.238   5.619 -0.0393 -0.1312  0.3377
  113MOL   C10342887   1.739   3.319   5.515  0.4641  0.8823  0.0053
  113MOL   H10442888   1.556   3.276   5.988 -1.6341  1.6107 -1.8803
  113MOL   H10542889   1.623   3.357   6.124  1.2239  1.3569 -0.3511
  113MOL   H10642890   1.828   3.405   5.982  1.1585  0.4512 -1.5258
  113MOL   H10742891   1.898   3.437   5.792 -0.3858 -2.0142  2.7531
  113MOL   H10842892   1.739   3.484   5.722  0.1576  0.4893  0.7944
  113MOL   H10942893   1.902   3.440   5.561  0.9603 -0.5826 -0.9564
  113MOL   H11042894   2.021   3.259   5.697 -1.6211  1.7766  1.3600
  113MOL   H11142895   1.903   3.149   5.663 -0.5061  0.3830  0.8994
  113MOL   H11242896   1.995   3.221   5.522 -1.2933  2.5535 -0.8151
  113MOL   H11342897   1.772   3.276   5.420 -0.3392  1.0617 -0.3540
  113MOL   H11442898   1.681   3.236   5.554  2.0680  0.1045  0.8173
  113MOL   H11542899   1.676   3.405   5.491  0.5251  1.6527  2.4845
  113MOL   C11642900   1.816   3.188   6.001 -0.3313 -0.4018 -0.4697
  113MOL   C11742901   1.862   3.172   6.149  0.3526 -0.1632 -0.0471
  113MOL   O11842902   1.935   3.047   6.162 -0.5571  0.1819 -0.6254
  113MOL   C11942903   1.841   2.949   6.216 -0.3042  0.2346 -0.6221
  113MOL   C12042904   1.916   2.809   6.236 -0.0078 -0.1839 -0.2119
  113MOL   C12142905   1.815   2.721   6.297 -0.0455 -0.4207 -0.2683
  113MOL   C12242906   1.966   2.763   6.099 -0.0010 -0.4606 -0.3052
  113MOL   H12342907   1.743   3.108   5.987 -1.3799  0.9979 -3.3194
  113MOL   H12442908   1.900   3.176   5.933  0.4983 -2.1773  0.8351
  113MOL   H12542909   1.779   3.184   6.219  0.5312 -0.1335  0.1601
  113MOL   H12642910   1.751   2.941   6.154 -0.0910 -2.2353 -0.6702
  113MOL   H12742911   1.801   2.987   6.310  1.4438 -0.6687  0.5210
  113MOL   H12842912   1.999   2.822   6.305  0.9933 -1.5474 -1.1379
  113MOL   H12942913   1.728   2.698   6.236 -0.9539  0.6477  0.6024
  113MOL   H13042914   1.768   2.771   6.381  0.8756  1.6576 -0.9433
  113MOL   H13142915   1.853   2.621   6.316 -2.9924 -1.4052  0.6304
  113MOL   H13242916   1.905   2.804   6.018 -0.5849 -0.1095  0.2991
  113MOL   H13342917   2.061   2.812   6.082 -0.8619  1.2801 -0.2482
  113MOL   H13442918   1.979   2.655   6.094  3.9000 -0.1500  1.4462
  113MOL   C13542919   1.964   3.276   6.192 -0.2948  0.6242  0.8525
  113MOL   C13642920   2.002   3.261   6.342 -0.5679  0.3426 -0.2702
  113MOL   O13742921   2.123   3.326   6.383 -0.1575  0.0506 -0.3026
  113MOL   C13842922   2.231   3.244   6.351 -0.5090  0.4413 -0.4189
  113MOL   C13942923   2.354   3.304   6.434  0.3327  0.2731  0.2154
  113MOL   C14042924   2.347   3.277   6.586  0.5337  0.1356 -0.0237
  113MOL   C14142925   2.490   3.265   6.382  0.1115 -0.4461  0.0997
  113MOL   H14242926   2.055   3.258   6.135  0.7283 -0.0500  2.6265
  113MOL   H14342927   1.931   3.377   6.171  0.0154  1.1999  3.0087
  113MOL   H14442928   2.002   3.156   6.368  0.5276  0.1404 -1.0496
  113MOL   H14542929   2.247   3.233   6.244  0.3595  3.3248 -0.6498
  113MOL   H14642930   2.227   3.142   6.389 -0.6943  0.0356 -1.5225
  113MOL   H14742931   2.369   3.411   6.422 -0.6885  0.3958 -0.0125
  113MOL   H14842932   2.434   3.318   6.638 -0.8016  0.8928  1.6932
  113MOL   H14942933   2.333   3.170   6.604 -0.4359 -0.0478 -1.8123
  113MOL   H15042934   2.260   3.327   6.630 -1.3695 -2.4501 -0.6932
  113MOL   H15142935   2.494   3.293   6.277  2.7945 -0.9517  0.0359
  113MOL   H15242936   2.572   3.308   6.440  1.6131 -0.8704 -1.6627
  113MOL   H15342937   2.508   3.159   6.396  1.1891 -0.2640  0.0780
  113MOL   C15442938   1.903   3.333   6.442 -0.2068 -0.0577  0.8927
  113MOL   C15542939   1.924   3.275   6.583 -0.0198 -0.7682 -0.2906
  113MOL   O15642940   1.879   3.379   6.676 -0.1316  0.0318  0.0623
  113MOL   C15742941   1.915   3.341   6.810 -0.2039  0.1079 -1.1552
  113MOL   C15842942   1.881   3.461   6.894  0.4703  0.2124  0.4905
  113MOL   C15942943   1.917   3.449   7.045  0.1858 -0.2766  0.5461
  113MOL   C16042944   1.941   3.589   6.831  0.3382 -0.7311  0.3208
  113MOL   H16142945   1.805   3.305   6.402 -0.1519 -2.3063  2.2652
  113MOL   H16242946   1.912   3.442   6.433  2.1037 -0.1843  1.4680
  113MOL   H16342947   2.029   3.258   6.605  0.4062  0.1266 -1.6286
  113MOL   H16442948   2.024   3.332   6.811  0.2532  4.4572  1.7186
  113MOL   H16542949   1.859   3.251   6.835  0.0780 -1.3042 -5.1940
  113MOL   H16642950   1.774   3.482   6.895  0.2803 -0.7376 -0.0455
  113MOL   H16742951   1.864   3.370   7.099 -1.6268  0.1069 -0.6364
  113MOL   H16842952   1.886   3.537   7.101  2.0426 -0.5237  2.0168
  113MOL   H16942953   2.021   3.447   7.078  0.6276  1.3540 -0.6801
  113MOL   H17042954   2.050   3.586   6.836  0.3335 -0.2642  0.7563
  113MOL   H17142955   1.909   3.602   6.728  1.3261 -2.5540 -0.2195
  113MOL   H17242956   1.924   3.679   6.890 -2.5788 -0.8179 -0.3072
  113MOL   C17342957   1.853   3.136   6.606 -0.0419 -0.7295 -0.0188
  113MOL   C17442958   1.931   3.021   6.677  0.6097  0.3668  0.5318
  113MOL   O17542959   1.842   2.907   6.683 -0.0315 -0.5972  0.2162
  113MOL   C17642960   1.739   2.911   6.787 -0.1392 -0.9543 -0.0808
  113MOL   C17742961   1.651   2.786   6.773 -0.3297 -0.1061 -0.5253
  113MOL   C17842962   1.580   2.785   6.637 -0.1626 -0.4764 -0.0197
  113MOL   C17942963   1.724   2.656   6.808 -0.4303  0.2389 -0.1264
  113MOL   H18042964   1.761   3.155   6.662  2.3843  1.0296  3.6273
  113MOL   H18142965   1.814   3.095   6.513 -0.0800 -0.5770 -0.0717
  113MOL   H18242966   1.965   3.058   6.774 -0.0712  1.5787  0.3113
  113MOL   H18342967   1.689   3.007   6.797  3.7103  1.2096 -0.4960
  113MOL   H18442968   1.791   2.905   6.883  2.9718  1.9798 -1.4864
  113MOL   H18542969   1.578   2.784   6.853 -0.3920 -1.0906 -0.6018
  113MOL   H18642970   1.652   2.797   6.556  0.4931 -0.2972  0.5815
  113MOL   H18742971   1.537   2.686   6.622 -0.4177 -0.4558  0.5621
  113MOL   H18842972   1.501   2.859   6.620  0.9384  0.5548 -0.7759
  113MOL   H18942973   1.766   2.648   6.909  0.2602 -0.7467 -0.4866
  113MOL   H19042974   1.812   2.634   6.748 -0.4422  0.7827 -0.3451
  113MOL   H19142975   1.664   2.567   6.790  1.9946 -1.6010  0.5039
  113MOL   C19242976   2.049   2.973   6.586  0.2641 -0.3985 -0.0708
  113MOL   C19342977   2.142   2.864   6.656  0.4695 -0.6309  0.8311
  113MOL   O19442978   2.170   2.918   6.784  0.1005 -0.1527  0.2128
  113MOL   C19542979   2.133   2.856   6.910  0.8985  0.0671 -0.5875
  113MOL   C19642980   2.161   2.937   7.034 -1.2492  0.2914 -0.4667
  113MOL   C19742981   2.086   3.062   7.033 -0.3073 -0.5441  0.3972
  113MOL   C19842982   2.315   2.973   7.052 -0.4319  0.4879 -0.2536
  113MOL   H19942983   2.111   3.059   6.566 -1.7982  1.2715  0.5459
  113MOL   H20042984   2.007   2.942   6.490  0.2362  0.5539 -0.3631
  113MOL   H20142985   2.089   2.771   6.675  1.6755 -1.1852  1.5625
  113MOL   H20242986   2.173   2.755   6.922 -2.2852 -1.0413  1.4029
  113MOL   H20342987   2.028   2.826   6.910  1.2563 -1.2461 -1.8647
  113MOL   H20442988   2.136   2.885   7.126 -0.9876  0.5839 -0.2278
  113MOL   H20542989   1.981   3.036   7.016  0.0341 -0.0608 -2.8485
  113MOL   H20642990   2.105   3.129   7.117 -2.4723  0.4752  0.0941
  113MOL   H20742991   2.113   3.134   6.955 -0.3237  0.4457  1.2984
  113MOL   H20842992   2.342   3.056   7.118  0.4706 -2.5329  3.3854
  113MOL   H20942993   2.362   2.895   7.112 -2.7297 -0.4525  0.3816
  113MOL   H21042994   2.358   2.985   6.953  0.7237 -0.6836  0.0916
  113MOL   C21142995   2.284   2.836   6.593 -0.2403 -0.2409  0.7683
  113MOL   C21242996   2.283   2.734   6.473 -0.1582 -0.0679  0.4135
  113MOL   O21342997   2.410   2.755   6.422  0.0713  0.2770  0.0423
  113MOL   C21442998   2.409   2.776   6.284  0.2121  1.1556  0.2506
  113MOL   C21542999   2.555   2.774   6.232 -0.1553 -0.8116 -0.4211
  113MOL   C21643000   2.639   2.858   6.326 -0.5134 -0.1698  0.0910
  113MOL   C21743001   2.605   2.627   6.219  0.0082 -0.3609  0.4313
  113MOL   H21843002   2.351   2.810   6.675  2.4267  0.2455 -1.1991
  113MOL   H21943003   2.323   2.930   6.555  1.2716 -0.5783  1.4563
  113MOL   H22043004   2.207   2.757   6.398  1.6533 -0.1172 -1.4940
  113MOL   H22143005   2.367   2.876   6.272 -0.5424  0.5749 -2.2115
  113MOL   H22243006   2.350   2.707   6.223 -1.0770  1.0775  1.5789
  113MOL   H22343007   2.559   2.815   6.131  2.0979 -1.9724 -0.8211
  113MOL   H22443008   2.675   2.792   6.406  1.2147  2.2914  1.4153
  113MOL   H22543009   2.724   2.902   6.275 -1.8389  1.2701 -0.8925
  113MOL   H22643010   2.587   2.939   6.377  1.4469  2.0907 -1.3855
  113MOL   H22743011   2.708   2.634   6.185 -0.1098 -1.5307 -0.1848
  113MOL   H22843012   2.552   2.567   6.145 -0.6928  0.2556  0.4180
  113MOL   H22943013   2.589   2.574   6.313 -1.1049 -1.0719 -0.1486
  113MOL   C23043014   2.262   2.586   6.519  0.0933  0.1455  0.4119
  113MOL   C23143015   2.274   2.481   6.406  0.9848 -0.3367 -0.0550
  113MOL   O23243016   2.266   2.358   6.482 -0.2333  0.6357  0.2073
  113MOL   C23343017   2.385   2.271   6.477 -0.1705 -0.5908  0.8682
  113MOL   C23443018   2.345   2.142   6.554  0.1264  0.3926 -0.1404
  113MOL   C23543019   2.287   2.168   6.685  0.5821  0.4099  0.0072
  113MOL   C23643020   2.259   2.056   6.468  0.0629  0.1429 -0.2691
  113MOL   H23743021   2.165   2.561   6.562 -1.0371  0.4711 -1.8950
  113MOL   H23843022   2.329   2.550   6.598  0.4571  1.5700  0.7674
  113MOL   H23943023   2.365   2.493   6.348  0.2659  0.3178 -1.0763
  113MOL   H24043024   2.409   2.255   6.371  1.2615 -0.7925  1.2227
  113MOL   H24143025   2.466   2.318   6.532  1.0173 -0.6440 -0.8015
  113MOL   H24243026   2.433   2.081   6.574  0.7497  0.8220 -1.5356
  113MOL   H24343027   2.249   2.079   6.735 -1.1215  1.6842  1.0802
  113MOL   H24443028   2.195   2.225   6.669 -0.1835 -0.4233  1.3511
  113MOL   H24543029   2.346   2.220   6.760 -0.9145  2.4889 -0.1938
  113MOL   H24643030   2.218   1.981   6.536 -0.8322  2.9984  2.4621
  113MOL   H24743031   2.169   2.109   6.435 -0.4573 -1.3136 -1.2713
  113MOL   H24843032   2.303   2.024   6.374 -1.2279 -0.5777 -0.6516
  113MOL   C24943033   2.162   2.489   6.301  0.9115  0.1298  0.3415
  113MOL   C25043034   2.168   2.382   6.194  0.1647  0.5469  0.4827
  113MOL   O25143035   2.035   2.368   6.134 -0.3518  0.2129  0.5438
  113MOL   C25243036   1.938   2.286   6.198  0.3952  0.2495 -0.4693
  113MOL   C25343037   1.825   2.257   6.096 -0.6273  0.4009 -0.1353
  113MOL   C25443038   1.857   2.145   6.000  0.4188  0.2230  0.4591
  113MOL   C25543039   1.768   2.379   6.019  0.9499  0.3985 -0.2127
  113MOL   H25643040   2.160   2.584   6.248 -0.9792 -0.5466 -0.8587
  113MOL   H25743041   2.071   2.473   6.359 -0.0883 -2.4549 -1.8405
  113MOL   H25843042   2.192   2.284   6.236 -0.1106 -0.5872 -1.9117
  113MOL   H25943043   1.970   2.186   6.230 -0.7604 -0.0740 -0.3071
  113MOL   H26043044   1.903   2.344   6.283  0.2426  0.9760 -1.0261
  113MOL   H26143045   1.738   2.220   6.151  0.1984 -0.5460  0.5507
  113MOL   H26243046   1.781   2.124   5.926 -0.6282  0.7036  1.3824
  113MOL   H26343047   1.855   2.051   6.056  1.7018  0.5657  1.1053
  113MOL   H26443048   1.948   2.175   5.947 -0.7501  1.8110 -0.6897
  113MOL   H26543049   1.715   2.457   6.075  0.7786 -0.4700  0.8513
  113MOL   H26643050   1.842   2.423   5.952  0.4051  0.0479 -1.0454
  113MOL   H26743051   1.690   2.348   5.950 -1.9598 -0.1360  3.1543
  113MOL   C26843052   2.263   2.405   6.074 -0.6538  0.1244  0.3013
  113MOL   C26943053   2.263   2.284   5.985  0.0852  0.0162  0.7502
  113MOL   O27043054   2.393   2.227   6.006  0.0913  0.1284 -0.4821
  113MOL   C27143055   2.415   2.094   5.956 -0.7098 -0.2370  0.5427
  113MOL   C27243056   2.558   2.047   5.986 -0.4686  0.3158  0.7472
  113MOL   C27343057   2.662   2.122   5.907  0.4327  0.5384  0.0316
  113MOL   C27443058   2.595   2.058   6.138 -0.2959 -0.1682  0.3218
  113MOL   H27543059   2.366   2.420   6.106 -0.0919 -1.7561 -0.6048
  113MOL   H27643060   2.230   2.495   6.021 -2.8540 -0.3885  0.7404
  113MOL   H27743061   2.183   2.211   6.001 -0.3096  0.0109 -1.0831
  113MOL   H27843062   2.346   2.026   6.007  0.0811 -0.6615  1.0537
  113MOL   H27943063   2.399   2.087   5.848 -2.5652  1.3261  0.6872
  113MOL   H28043064   2.565   1.941   5.961  0.7076  0.3765  0.7921
  113MOL   H28143065   2.664   2.230   5.924  1.2200  0.8938 -2.0994
  113MOL   H28243066   2.658   2.099   5.800  1.2653 -1.0396  0.3310
  113MOL   H28343067   2.762   2.094   5.938  1.8870  3.1845 -2.0139
  113MOL   H28443068   2.690   2.006   6.153  0.2924 -0.2376 -3.3044
  113MOL   H28543069   2.517   2.019   6.203  0.7150  1.0969  2.3425
  113MOL   H28643070   2.608   2.164   6.163  0.8096 -0.3208  0.4152
  113MOL   C28743071   2.260   2.317   5.837  0.3430 -0.4163  0.5503
  113MOL   C28843072   2.127   2.388   5.792  0.4941  0.5308  0.3008
  113MOL   O28943073   2.088   2.339   5.667  0.3190  0.1008  0.7897
  113MOL   C29043074   2.005   2.225   5.683 -0.7436  0.7122  0.2525
  113MOL   C29143075   1.978   2.175   5.540 -0.0814  0.3365  0.1363
  113MOL   C29243076   1.854   2.091   5.522  0.7719 -0.2089 -0.0636
  113MOL   C29343077   2.095   2.097   5.478 -0.1638  0.2461  0.0908
  113MOL   H29443078   2.265   2.228   5.774  0.8524 -0.0134  0.0178
  113MOL   H29543079   2.344   2.367   5.789 -1.2758  2.1887  0.3443
  113MOL   H29643080   2.054   2.383   5.873 -0.8255  0.3071 -0.8746
  113MOL   H29743081   2.061   2.141   5.724 -1.9411 -1.4121 -2.3020
  113MOL   H29843082   1.914   2.241   5.740 -0.8472  0.8861  0.0375
  113MOL   H29943083   1.959   2.265   5.482 -4.1165 -0.4618  0.1333
  113MOL   H30043084   1.824   2.076   5.419 -0.9474  0.8458  0.2587
  113MOL   H30143085   1.778   2.130   5.590  0.2704 -0.9255 -0.2127
  113MOL   H30243086   1.871   1.991   5.560 -0.4642 -1.4605 -2.6883
  113MOL   H30343087   2.184   2.153   5.507 -0.9274  0.7366  1.5568
  113MOL   H30443088   2.095   1.997   5.522 -0.4034  0.4255  0.5075
  113MOL   H30543089   2.095   2.091   5.369  2.0013 -0.7886  0.1197
  113MOL   C30643090   2.159   2.536   5.770  0.0924 -0.2084  0.5473
  113MOL   C30743091   2.041   2.636   5.776  0.0516 -0.2435 -0.0288
  113MOL   O30843092   2.086   2.760   5.824 -0.1299 -0.3942 -0.3347
  113MOL   C30943093   2.165   2.840   5.732  0.0981 -0.0974 -0.1587
  113MOL   C31043094   2.252   2.939   5.801 -0.8801  0.2192  0.2044
  113MOL   C31143095   2.327   2.871   5.912 -0.2379  0.3728 -0.2969
  113MOL   C31243096   2.169   3.053   5.857  0.0138 -0.1375 -0.3895
  113MOL   H31343097   2.202   2.548   5.670 -0.2226 -0.5055  0.3751
  113MOL   H31443098   2.237   2.569   5.839  0.2836  1.9960 -0.6501
  113MOL   H31543099   1.980   2.617   5.865  0.4519  0.1884  0.3370
  113MOL   H31643100   2.089   2.890   5.672  1.6267  1.9415 -0.4714
  113MOL   H31743101   2.227   2.789   5.658  1.5091 -0.1702  1.0416
  113MOL   H31843102   2.327   2.977   5.732 -0.3667 -1.0974  0.0112
  113MOL   H31943103   2.253   2.818   5.972 -0.8090  0.6814 -0.7226
  113MOL   H32043104   2.390   2.944   5.962 -0.0355  0.5973 -0.8693
  113MOL   H32143105   2.379   2.781   5.876 -0.9407 -0.4662  0.7651
  113MOL   H32243106   2.168   3.066   5.965  1.3790  0.4905 -0.4492
  113MOL   H32343107   2.067   3.042   5.821 -0.7311 -1.6970  2.0343
  113MOL   H32443108   2.208   3.148   5.819 -3.0986  2.0373  1.5510
  113MOL   C32543109   1.957   2.648   5.647  0.0339  0.1826  0.3880
  113MOL   C32643110   1.835   2.733   5.669 -0.2014  0.3360 -0.0548
  113MOL   O32743111   1.789   2.757   5.534  0.5020  0.5078  0.4350
  113MOL   C32843112   1.789   2.888   5.487  0.0816  0.0966  0.1018
  113MOL   C32943113   1.710   2.892   5.354  0.3324  0.2999 -0.1915
  113MOL   C33043114   1.786   2.803   5.250 -0.7341  0.1558 -0.2885
  113MOL   C33143115   1.558   2.856   5.371  0.3184  0.3735  0.2019
  113MOL   H33243116   1.923   2.547   5.624 -2.1690  0.8423  0.5914
  113MOL   H33343117   2.023   2.677   5.565  0.1129  1.5992  0.9357
  113MOL   H33443118   1.854   2.829   5.717  1.1158 -0.0682  0.2499
  113MOL   H33543119   1.725   2.949   5.551 -2.1628  1.2361 -3.0676
  113MOL   H33643120   1.884   2.941   5.491 -0.1306  0.7266 -2.2097
  113MOL   H33743121   1.712   2.992   5.311 -0.4896 -0.9374 -3.2594
  113MOL   H33843122   1.721   2.777   5.166 -1.2650 -1.0486  0.4936
  113MOL   H33943123   1.886   2.833   5.220 -0.9040  0.8753 -0.1522
  113MOL   H34043124   1.807   2.705   5.292  1.2842  0.8214  0.3147
  113MOL   H34143125   1.539   2.870   5.477  2.0359  0.2247  0.5558
  113MOL   H34243126   1.482   2.889   5.301  0.4650  0.6187  0.1561
  113MOL   H34343127   1.544   2.748   5.367  0.4972  0.3924 -1.5676
  113MOL   C34443128   1.716   2.652   5.744  0.2849  0.2437 -0.2306
  113MOL   C34543129   1.600   2.738   5.788 -0.8038 -0.0013  0.1968
  113MOL   O34643130   1.507   2.640   5.821 -0.0403 -0.0240  0.8569
  113MOL   C34743131   1.413   2.601   5.715 -0.1238  0.0042  0.7184
  113MOL   C34843132   1.359   2.467   5.745 -0.0313  0.2313  0.1660
  113MOL   C34943133   1.273   2.455   5.868  0.2736 -0.0867  0.1735
  113MOL   C35043134   1.465   2.356   5.746  0.3990 -0.0360 -0.3776
  113MOL   H35143135   1.756   2.606   5.835  0.1887 -0.6638 -0.6439
  113MOL   H35243136   1.686   2.567   5.684 -0.3533  0.4645 -0.2243
  113MOL   H35343137   1.575   2.793   5.697  0.4855  0.1506 -0.0804
  113MOL   H35443138   1.459   2.623   5.619  0.1220  2.3957  1.3664
  113MOL   H35543139   1.328   2.669   5.721  0.1692  0.5882 -1.2147
  113MOL   H35643140   1.294   2.441   5.661  0.2008  2.4424 -0.7372
  113MOL   H35743141   1.215   2.545   5.890 -1.4658 -0.7439 -1.5575
  113MOL   H35843142   1.323   2.429   5.961 -0.5703 -2.0918  0.0928
  113MOL   H35943143   1.205   2.372   5.850  0.1634  0.2461 -1.0459
  113MOL   H36043144   1.528   2.366   5.834  0.2592  0.6383 -0.3489
  113MOL   H36143145   1.403   2.267   5.761 -1.1646  1.2068  0.7179
  113MOL   H36243146   1.516   2.353   5.650  3.7547 -0.3994  1.3651
  113MOL   C36343147   1.629   2.835   5.900  0.1070  0.0208 -0.5397
  113MOL   C36443148   1.504   2.912   5.941  0.6849  0.3850  0.0634
  113MOL   O36543149   1.516   2.972   6.069  0.1642  0.5056  0.0097
  113MOL   C36643150   1.399   3.044   6.120  0.6091 -0.1303  0.5100
  113MOL   C36743151   1.399   3.026   6.271 -0.3137 -0.2880 -0.1777
  113MOL   C36843152   1.413   2.877   6.307  0.3964  0.2570  0.9507
  113MOL   C36943153   1.288   3.114   6.345 -0.4606  0.4189  0.3023
  113MOL   H37043154   1.672   2.772   5.978 -0.8289  0.5618  0.4270
  113MOL   H37143155   1.710   2.903   5.873  0.9071 -0.9493 -0.6131
  113MOL   H37243156   1.416   2.848   5.946 -0.1515  1.6451  1.8955
  113MOL   H37343157   1.390   3.144   6.078 -0.5708 -0.9040 -1.1184
  113MOL   H37443158   1.309   3.008   6.070 -0.7959  1.8741  1.5148
  113MOL   H37543159   1.494   3.066   6.307  0.4294 -1.8127 -0.4123
  113MOL   H37643160   1.330   2.827   6.257  0.7514  1.0398 -0.4515
  113MOL   H37743161   1.390   2.868   6.413  0.7658 -0.4536  0.9727
  113MOL   H37843162   1.505   2.832   6.271  0.2102  0.1897  0.5627
  113MOL   H37943163   1.300   3.221   6.327 -0.6914 -0.0227 -2.7275
  113MOL   H38043164   1.282   3.091   6.452  0.3290 -1.2239  0.0144
  113MOL   H38143165   1.193   3.088   6.299  0.9502 -0.3924 -2.2141
  113MOL   H38243166   1.476   2.991   5.872  1.2875  2.1891  1.8498
  114MOL     C143167   6.424   0.477   0.139  0.3685  0.1174  0.5400
  114MOL     C243168   6.389   0.570   0.260  0.0140  0.1798 -0.3511
  114MOL     O343169   6.284   0.654   0.227  0.6528  0.2489 -0.3439
  114MOL     C443170   6.273   0.772   0.303 -0.3592  0.1735  0.1761
  114MOL     C543171   6.152   0.853   0.252 -0.0242  0.0559 -0.5361
  114MOL     C643172   6.198   0.931   0.131 -0.4072  0.1393  0.1316
  114MOL     C743173   6.100   0.950   0.361  0.3024  0.2713 -0.1372
  114MOL     H843174   6.432   0.523   0.040 -1.9555  0.9191  0.6915
  114MOL     H943175   6.519   0.429   0.159 -0.3646 -0.9153  1.6157
  114MOL    H1043176   6.474   0.631   0.289  0.1859  0.1827 -0.8513
  114MOL    H1143177   6.365   0.825   0.284 -0.6023 -0.0367 -1.7200
  114MOL    H1243178   6.272   0.741   0.407  0.3582 -0.0862  0.1069
  114MOL    H1343179   6.064   0.792   0.233 -0.7197 -0.1788  3.0669
  114MOL    H1443180   6.105   0.975   0.094  0.1144  0.8558 -0.3273
  114MOL    H1543181   6.265   1.012   0.160  0.5589 -0.7473  0.4045
  114MOL    H1643182   6.245   0.871   0.053  0.8001  0.9316  0.2508
  114MOL    H1743183   6.026   1.020   0.322 -0.6266 -1.0131 -0.6997
  114MOL    H1843184   6.057   0.895   0.444  0.0466  0.1031 -0.3827
  114MOL    H1943185   6.184   1.014   0.389  0.9400  0.7270 -2.9676
  114MOL    H2043186   6.351   0.398   0.124  0.2163  0.6243 -1.5799
  114MOL    C2143187   6.354   0.490   0.388 -0.0737  0.0203 -0.5364
  114MOL    C2243188   6.454   0.378   0.433 -0.0863 -0.2983 -0.6066
  114MOL    O2343189   6.574   0.452   0.462 -0.0896  0.2136 -0.5878
  114MOL    C2443190   6.692   0.382   0.437 -0.3240 -0.4316  0.3598
  114MOL    C2543191   6.809   0.482   0.461  0.0888 -0.4098  0.2474
  114MOL    C2643192   6.812   0.579   0.340 -0.4846 -0.0801 -0.0045
  114MOL    C2743193   6.801   0.561   0.595  0.2457 -0.1410 -0.0972
  114MOL    H2843194   6.346   0.550   0.478  0.1940 -0.6755 -0.0391
  114MOL    H2943195   6.248   0.467   0.374 -0.5877  2.1019 -0.1719
  114MOL    H3043196   6.465   0.304   0.354 -1.3153 -0.7202 -0.4026
  114MOL    H3143197   6.692   0.334   0.339 -1.2672  1.1857 -0.4318
  114MOL    H3243198   6.700   0.302   0.511  0.9813 -0.3614  0.3132
  114MOL    H3343199   6.901   0.423   0.454 -0.2393 -1.2655  2.7572
  114MOL    H3443200   6.716   0.631   0.332 -1.4623 -1.7961  0.2878
  114MOL    H3543201   6.842   0.526   0.250  0.6671 -2.0961  1.5189
  114MOL    H3643202   6.892   0.650   0.360  1.2429 -0.8412 -3.8766
  114MOL    H3743203   6.728   0.641   0.581 -0.7953 -1.2595 -1.1865
  114MOL    H3843204   6.758   0.492   0.668 -0.9429 -1.6713 -2.1996
  114MOL    H3943205   6.896   0.602   0.630 -0.5593  0.0096  1.9947
  114MOL    C4043206   6.402   0.315   0.564 -0.3199 -0.2030  0.0179
  114MOL    C4143207   6.312   0.189   0.540  0.0175  0.0373 -0.2588
  114MOL    O4243208   6.267   0.177   0.675  0.1279 -0.3493  0.4310
  114MOL    C4343209   6.137   0.140   0.715 -0.4235  0.6150  0.5594
  114MOL    C4443210   6.041   0.261   0.712 -0.2913  0.7562 -0.0732
  114MOL    C4543211   5.897   0.216   0.728 -0.0386  0.1574  0.0802
  114MOL    C4643212   6.090   0.364   0.810  0.5679 -0.0389 -0.0066
  114MOL    H4743213   6.362   0.393   0.629 -2.0574 -0.1796 -1.0496
  114MOL    H4843214   6.488   0.287   0.625 -0.2208 -0.9174 -0.4462
  114MOL    H4943215   6.228   0.217   0.476  1.6460 -0.2279 -2.5302
  114MOL    H5043216   6.147   0.094   0.814  1.1586 -0.6657 -0.1840
  114MOL    H5143217   6.094   0.066   0.647 -2.0314  1.1525  0.9585
  114MOL    H5243218   6.051   0.306   0.613 -1.0136 -1.7180 -1.2975
  114MOL    H5343219   5.827   0.294   0.758 -0.2630  0.7715 -1.9328
  114MOL    H5443220   5.860   0.182   0.631 -3.2682 -1.1503  1.6973
  114MOL    H5543221   5.876   0.133   0.795  0.4904  0.1121  0.1915
  114MOL    H5643222   6.194   0.391   0.789  0.5637 -0.8627 -1.1175
  114MOL    H5743223   6.093   0.322   0.911 -0.0660  0.5502  0.2597
  114MOL    H5843224   6.040   0.460   0.803  1.8040  0.5066 -1.4501
  114MOL    C5943225   6.396   0.068   0.483  0.3385  0.4553 -0.2792
  114MOL    C6043226   6.319   7.765   0.457  0.2012 -0.2817 -0.3284
  114MOL    O6143227   6.394   7.646   0.424 -0.0623  0.4444 -0.2487
  114MOL    C6243228   6.517   7.625   0.503  0.1214  0.3916  0.0813
  114MOL    C6343229   6.559   7.479   0.483 -0.0940  0.3359 -0.0584
  114MOL    C6443230   6.586   7.445   0.335 -0.5550 -0.0230  0.1565
  114MOL    C6543231   6.668   7.443   0.585 -0.1987  0.1759 -0.0171
  114MOL    H6643232   6.474   0.049   0.555  0.5706 -0.5626 -0.7899
  114MOL    H6743233   6.448   0.075   0.387  2.2099 -1.8636  0.5309
  114MOL    H6843234   6.278   7.734   0.553  3.6693  0.4138  1.4543
  114MOL    H6943235   6.599   7.689   0.470  1.2887  0.6529  3.3599
  114MOL    H7043236   6.503   7.656   0.606  1.2399  3.2389 -0.5780
  114MOL    H7143237   6.477   7.413   0.511  2.2128 -1.6639  2.2402
  114MOL    H7243238   6.657   7.506   0.278  1.5266 -3.4432 -1.0672
  114MOL    H7343239   6.501   7.465   0.270  0.2591 -0.9930 -1.2522
  114MOL    H7443240   6.622   7.344   0.315  0.7667  0.0937  1.8126
  114MOL    H7543241   6.741   7.521   0.608 -1.8968  2.1848 -1.2250
  114MOL    H7643242   6.616   7.403   0.672  0.2827  0.5524  0.4467
  114MOL    H7743243   6.716   7.356   0.540  0.2707  0.5163 -0.1764
  114MOL    C7843244   6.203   7.770   0.349 -0.2430 -0.2864  0.5529
  114MOL    C7943245   6.089   7.660   0.365  0.6143  0.0285  0.0646
  114MOL    O8043246   6.011   7.696   0.478 -0.2151 -0.6118 -0.1041
  114MOL    C8143247   6.022   7.611   0.592  0.9107 -0.2282  0.2785
  114MOL    C8243248   5.904   7.626   0.686  0.0985  0.5800  0.2246
  114MOL    C8343249   5.932   7.557   0.816 -0.7824 -0.8804 -0.2084
  114MOL    C8443250   5.767   7.596   0.620 -0.2680  0.1446 -0.2234
  114MOL    H8543251   6.245   7.763   0.249  0.5762 -0.6129  0.9161
  114MOL    H8643252   6.145   0.037   0.359 -1.3564 -0.7405 -1.5843
  114MOL    H8743253   6.132   7.561   0.380 -0.2566 -0.4160 -0.3024
  114MOL    H8843254   6.026   7.506   0.565 -0.7758  0.1919 -1.7479
  114MOL    H8943255   6.117   7.629   0.643  1.9623 -0.9160 -1.3758
  114MOL    H9043256   5.890   7.731   0.709  0.8900  0.5721  0.7770
  114MOL    H9143257   5.936   7.449   0.799 -0.5797 -1.1641  1.5153
  114MOL    H9243258   5.846   7.564   0.883 -0.0440 -2.3529  0.9342
  114MOL    H9343259   6.025   7.595   0.859  0.1889 -1.6450 -1.5933
  114MOL    H9443260   5.685   7.614   0.688  0.3311  2.3590 -0.0510
  114MOL    H9543261   5.763   7.495   0.579  0.6113  1.0542 -2.6614
  114MOL    H9643262   5.746   7.654   0.530 -0.2187 -0.5181 -0.6726
  114MOL    C9743263   5.989   7.663   0.248  0.3095  0.2491  0.4892
  114MOL    C9843264   5.984   7.532   0.172  0.0253 -0.3131 -0.1856
  114MOL    O9943265   5.958   7.423   0.268 -0.2648 -0.3451  0.2164
  114MOL   C10043266   5.879   7.320   0.210  0.0486 -0.5979  0.4681
  114MOL   C10143267   5.857   7.225   0.327  0.4288  0.7706 -0.1247
  114MOL   C10243268   5.761   7.109   0.282  0.1426  0.2224  0.1201
  114MOL   C10343269   5.990   7.163   0.371 -0.2552 -0.0513  0.2065
  114MOL   H10443270   6.017   7.744   0.181 -0.9588  0.9672  0.8147
  114MOL   H10543271   5.895   7.706   0.282  1.1151  1.4954  1.1722
  114MOL   H10643272   5.898   7.541   0.106 -1.0036  0.3213  1.2240
  114MOL   H10743273   5.919   7.271   0.121 -0.0510 -1.3099  0.8130
  114MOL   H10843274   5.788   7.373   0.185 -0.1507  0.1567  2.6719
  114MOL   H10943275   5.821   7.271   0.419 -2.1075 -0.8512 -0.2417
  114MOL   H11043276   5.660   7.150   0.278 -0.4303 -0.8394  2.9719
  114MOL   H11143277   5.804   7.060   0.195  2.2213  0.2010  1.1486
  114MOL   H11243278   5.776   7.039   0.363  2.0761 -0.7383 -1.0510
  114MOL   H11343279   6.032   7.087   0.305  2.1349  1.4332 -0.0317
  114MOL   H11443280   6.058   7.239   0.409 -0.9765  2.0853 -2.5817
  114MOL   H11543281   5.957   7.105   0.458 -2.0845  0.4104 -0.1479
  114MOL   C11643282   6.112   7.493   0.101  0.6753 -1.2092 -0.5684
  114MOL   C11743283   6.147   7.585   7.813  1.0472 -0.1410 -0.5592
  114MOL   O11843284   6.253   7.515   7.753  0.0889 -0.3126  0.6253
  114MOL   C11943285   6.383   7.545   7.790  0.8390  0.2801  0.2811
  114MOL   C12043286   6.472   7.445   7.707  0.3333  0.6242 -1.1114
  114MOL   C12143287   6.457   7.468   7.554 -0.4173  0.2173  0.4275
  114MOL   C12243288   6.620   7.458   7.748  0.7285  0.6030 -0.0806
  114MOL   H12343289   6.201   7.498   0.164 -0.0786 -0.7682  0.4648
  114MOL   H12443290   6.098   7.404   0.039 -0.7198  0.4184 -2.6455
  114MOL   H12543291   6.182   7.678   0.033  0.2615  0.3076 -0.8674
  114MOL   H12643292   6.404   7.519   0.070 -1.3021 -1.5442  0.2913
  114MOL   H12743293   6.396   7.649   7.759  1.0699  1.1882  3.2317
  114MOL   H12843294   6.443   7.344   7.736 -1.3386  1.3205 -0.2305
  114MOL   H12943295   6.472   7.572   7.527 -2.0142 -0.0735 -1.6954
  114MOL   H13043296   6.355   7.456   7.517  0.0204 -2.6282  0.0219
  114MOL   H13143297   6.517   7.395   7.499 -0.5371 -0.6833  1.4668
  114MOL   H13243298   6.690   7.418   7.675 -0.3996 -1.3131 -0.1539
  114MOL   H13343299   6.649   7.563   7.754 -1.7419  1.3794 -1.0551
  114MOL   H13443300   6.634   7.408   0.019  2.0254  1.4709  0.1874
  114MOL   C13543301   6.040   7.611   7.703 -0.0187  0.2182  0.3057
  114MOL   C13643302   6.070   7.721   7.599  1.0128 -0.0854 -0.3893
  114MOL   O13743303   5.940   7.751   7.535  0.3370  0.1787  0.4492
  114MOL   C13843304   5.909   7.691   7.412  0.5757  0.3426  0.0558
  114MOL   C13943305   5.776   7.739   7.348 -0.1048  0.0984 -0.1268
  114MOL   C14043306   5.661   7.691   7.429 -0.1495 -0.2349  0.1477
  114MOL   C14143307   5.772   0.069   7.335 -0.3197 -0.2137 -0.2518
  114MOL   H14243308   6.014   7.510   7.672  0.8111 -0.2979  1.2754
  114MOL   H14343309   5.958   7.647   7.765  0.2905 -0.0640  0.8929
  114MOL   H14443310   6.153   7.691   7.534  2.0566 -0.6009  1.1600
  114MOL   H14543311   5.891   7.585   7.428 -1.3813  0.4355 -1.3578
  114MOL   H14643312   5.994   7.691   7.344  0.7265 -0.2854  0.2348
  114MOL   H14743313   5.766   7.693   7.250  0.9756  0.4747 -0.4220
  114MOL   H14843314   5.559   7.721   7.405  0.1774  1.4278  0.7802
  114MOL   H14943315   5.682   7.725   7.530 -0.2943  0.7840 -0.1663
  114MOL   H15043316   5.649   7.582   7.436 -0.8496 -0.0280  2.5466
  114MOL   H15143317   5.778   0.116   7.434 -0.7828 -1.4553  0.3774
  114MOL   H15243318   5.862   0.094   7.279  0.4319 -2.1168  0.0474
  114MOL   H15343319   5.684   0.101   7.279 -1.7087  0.6203  2.3245
  114MOL   C15443320   6.106   0.027   7.683  0.4568  0.8555  0.3413
  114MOL   C15543321   6.126   0.153   7.600  0.5295  0.1591 -0.1537
  114MOL   O15643322   6.108   0.270   7.676 -0.0486 -0.2584 -0.3159
  114MOL   C15743323   5.980   0.319   7.699 -0.1348 -0.5209  0.0358
  114MOL   C15843324   5.995   0.431   7.805 -0.2551 -0.6689 -0.1156
  114MOL   C15943325   5.876   0.529   7.820  0.3203 -0.0640 -0.5123
  114MOL   C16043326   6.018   0.374   0.120  0.2762 -0.2218  0.1403
  114MOL   H16143327   6.186   0.027   7.757 -0.1407  0.6719  0.9908
  114MOL   H16243328   6.013   0.049   7.737 -0.3273  0.1087 -0.6848
  114MOL   H16343329   6.061   0.149   7.512  1.1746 -0.7870 -0.6089
  114MOL   H16443330   5.909   0.248   7.742 -0.2417 -0.4421 -0.0125
  114MOL   H16543331   5.936   0.347   7.604 -1.1522 -0.9684  0.3595
  114MOL   H16643332   6.073   0.500   7.771 -2.1692  2.3911  1.4927
  114MOL   H16743333   5.779   0.483   0.017 -1.3809  2.0031 -3.3604
  114MOL   H16843334   5.846   0.579   7.728  1.8722 -0.0962 -1.0442
  114MOL   H16943335   5.894   0.603   0.075  0.0851 -1.5196  0.9234
  114MOL   H17043336   6.087   0.290   0.121 -0.2569 -0.7280 -2.1753
  114MOL   H17143337   6.045   0.448   0.195 -0.0492 -0.6706  0.7080
  114MOL   H17243338   5.925   0.328   0.154 -0.3867  0.4268 -0.7601
  114MOL   C17343339   6.271   0.158   7.546  0.2018 -0.5372  0.4198
  114MOL   C17443340   6.300   0.275   7.446  0.2256  0.2657  0.2828
  114MOL   O17543341   6.440   0.305   7.440  0.4465 -0.4999  0.0615
  114MOL   C17643342   6.487   0.395   7.538 -0.4122  0.8666  0.4712
  114MOL   C17743343   6.634   0.380   7.549 -0.2662 -0.0915  0.5371
  114MOL   C17843344   6.690   0.500   7.634  0.9168  0.0928 -0.2343
  114MOL   C17943345   6.664   0.242   7.622  1.1606 -0.5939  0.2667
  114MOL   H18043346   6.333   0.167   7.636  2.0492  2.3301 -1.0928
  114MOL   H18143347   6.306   0.062   7.508  0.6522 -0.0715 -0.3292
  114MOL   H18243348   6.247   0.365   7.474  1.7325  1.0389  0.6929
  114MOL   H18343349   6.442   0.381   7.636  0.9168  0.9602  1.0990
  114MOL   H18443350   6.457   0.497   7.513 -1.2428  0.5230  0.0165
  114MOL   H18543351   6.679   0.394   7.451 -0.2533  1.0791  0.6976
  114MOL   H18643352   6.647   0.593   7.599 -0.4484 -0.3445  0.2609
  114MOL   H18743353   6.672   0.496   7.741  2.4773  0.7633  0.0717
  114MOL   H18843354   6.799   0.503   7.626  1.0490 -0.4837  1.1873
  114MOL   H18943355   6.621   0.163   7.561 -1.8641  0.0916  1.4538
  114MOL   H19043356   6.615   0.247   7.719 -2.0533 -1.0253 -1.2753
  114MOL   H19143357   6.772   0.234   7.637  0.9216 -0.4243  2.2212
  114MOL   C19243358   6.262   0.247   7.301  0.1225 -0.3012 -0.3627
  114MOL   C19343359   6.245   0.377   7.223  0.7371 -0.0215  0.7187
  114MOL   O19443360   6.134   0.457   7.260  0.3629  0.2152 -0.1114
  114MOL   C19543361   6.009   0.391   7.274 -0.3510  0.5246 -0.0024
  114MOL   C19643362   5.889   0.489   7.249  0.5537  0.0959  0.2573
  114MOL   C19743363   5.753   0.416   7.268  0.1712  0.2206 -0.1628
  114MOL   C19843364   5.885   0.540   7.107  0.6103 -0.0836  0.2643
  114MOL   H19943365   6.179   0.176   7.298  1.0058 -1.3753  0.6221
  114MOL   H20043366   6.346   0.192   7.259 -0.6136 -3.4204  2.0829
  114MOL   H20143367   6.329   0.443   7.243  2.2949 -1.4581 -0.9236
  114MOL   H20243368   5.993   0.348   7.373  1.5666 -0.3408 -0.0468
  114MOL   H20343369   6.005   0.307   7.205  1.0650  0.6343 -0.2291
  114MOL   H20443370   5.893   0.566   7.326 -0.2953 -0.2057  0.6218
  114MOL   H20543371   5.743   0.320   7.217 -0.3493 -1.0212  2.2070
  114MOL   H20643372   5.731   0.397   7.373 -1.1344 -0.3134 -0.5118
  114MOL   H20743373   5.680   0.488   7.232  1.8421  1.6128 -0.8201
  114MOL   H20843374   5.981   0.573   7.066  1.2189 -2.9449 -0.6880
  114MOL   H20943375   5.844   0.463   7.042  1.4800 -0.0769 -0.2971
  114MOL   H21043376   5.817   0.625   7.098 -0.4997 -0.7893  1.8256
  114MOL   C21143377   6.245   0.359   7.069  0.0317 -0.5783  0.2756
  114MOL   C21243378   6.370   0.316   6.997  0.6675  0.6674 -0.5041
  114MOL   O21343379   6.337   0.273   6.866  0.2976 -0.9861 -0.1088
  114MOL   C21443380   6.261   0.364   6.779 -0.3212 -0.2304 -0.5747
  114MOL   C21543381   6.254   0.309   6.640  0.8076 -0.3678 -0.3756
  114MOL   C21643382   6.170   0.183   6.637 -0.0510 -0.1069  0.1100
  114MOL   C21743383   6.211   0.408   6.532 -0.4606 -0.9161 -0.2916
  114MOL   H21843384   6.219   0.454   7.021  3.7787  0.4337  0.0564
  114MOL   H21943385   6.165   0.292   7.038 -0.1638  0.2122 -0.9628
  114MOL   H22043386   6.414   0.229   7.046  2.3065  0.3310 -2.5406
  114MOL   H22143387   6.301   0.465   6.787 -2.6558  1.0258 -3.6004
  114MOL   H22243388   6.160   0.377   6.818 -0.8101  2.0081 -2.4795
  114MOL   H22343389   6.357   0.278   6.621  0.8761 -1.0698  1.0617
  114MOL   H22443390   6.191   0.129   6.730 -0.0054 -0.4876 -0.1174
  114MOL   H22543391   6.063   0.200   6.626 -0.4548 -2.6103 -0.2282
  114MOL   H22643392   6.202   0.125   6.551  1.8540 -0.0499  0.7519
  114MOL   H22743393   6.114   0.448   6.562 -0.9534 -1.3345 -1.3320
  114MOL   H22843394   6.206   0.363   6.433  1.2341 -0.7640 -0.4653
  114MOL   H22943395   6.282   0.490   6.531 -1.9713  0.4559  1.4392
  114MOL   C23043396   6.477   0.440   6.997  0.9809 -0.0071 -0.6558
  114MOL   C23143397   6.622   0.405   6.957  0.5970 -0.4284 -0.6771
  114MOL   O23243398   6.683   0.528   6.915 -0.3680  0.2522 -0.7686
  114MOL   C23343399   6.701   0.544   6.776 -0.1662 -0.0844 -0.2140
  114MOL   C23443400   6.748   0.686   6.745  0.2020  0.2564  0.1738
  114MOL   C23543401   6.900   0.703   6.797 -0.1494  0.0997 -0.3912
  114MOL   C23643402   6.735   0.723   6.591 -0.4963 -0.7551  0.3765
  114MOL   H23743403   6.483   0.466   7.102 -1.4908 -2.0705  0.0514
  114MOL   H23843404   6.451   0.536   6.953  2.9641  0.5812 -0.5894
  114MOL   H23943405   6.630   0.333   6.875  1.4779 -0.6021 -0.4473
  114MOL   H24043406   6.781   0.473   6.755 -0.1529 -0.0235 -0.3645
  114MOL   H24143407   6.613   0.512   6.720  0.3440 -0.5818 -0.7412
  114MOL   H24243408   6.681   0.758   6.792  1.3048 -0.4467  2.8987
  114MOL   H24343409   6.973   0.664   6.725 -0.6121 -0.3711 -0.6093
  114MOL   H24443410   6.914   0.678   6.902  0.2873  2.6402  0.1757
  114MOL   H24543411   6.921   0.810   6.790 -3.0474  0.7644  0.4227
  114MOL   H24643412   6.634   0.694   6.561 -1.0329  2.7504 -1.4900
  114MOL   H24743413   6.756   0.828   6.572 -0.8769 -0.7965 -0.2672
  114MOL   H24843414   6.799   0.652   6.539  2.0307  1.5883  0.1706
  114MOL   C24943415   6.696   0.336   7.067 -0.5817 -0.1556 -0.9789
  114MOL   C25043416   6.819   0.260   7.020 -0.3356 -0.2583  0.2916
  114MOL   O25143417   6.918   0.238   7.125  0.1477  0.1102  0.3302
  114MOL   C25243418   6.993   0.356   7.158 -0.9743  0.7390  0.7237
  114MOL   C25343419   7.100   0.321   7.275  0.1259 -0.1825 -0.9316
  114MOL   C25443420   7.179   0.193   7.243 -0.2771 -0.4575  0.4841
  114MOL   C25543421   7.037   0.311   7.413  0.0996 -0.3466  0.3414
  114MOL   H25643422   6.635   0.263   7.120  0.7904 -0.6344 -0.0543
  114MOL   H25743423   6.709   0.405   7.151 -0.6028 -0.8159 -0.4323
  114MOL   H25843424   6.876   0.308   6.940 -1.2703 -2.7674 -1.9497
  114MOL   H25943425   7.047   0.384   7.068 -0.9690 -2.5951 -0.3793
  114MOL   H26043426   6.939   0.446   7.187 -0.1158  1.1331  1.1102
  114MOL   H26143427   7.182   0.393   7.273  1.4835 -1.7016 -0.6909
  114MOL   H26243428   7.117   0.109   7.276  0.5159 -0.9317  0.7779
  114MOL   H26343429   7.268   0.212   7.302 -0.1667 -0.2210  0.2386
  114MOL   H26443430   7.189   0.186   7.134  2.6341  0.9808  0.6097
  114MOL   H26543431   7.001   0.408   7.447  3.5596  1.3547 -0.6630
  114MOL   H26643432   6.956   0.237   7.413  0.0321 -0.2778  1.2397
  114MOL   H26743433   7.115   0.280   7.482  0.2334  0.7094  0.6600
  114MOL   C26843434   6.788   0.115   6.973 -0.7624  0.2005  0.0088
  114MOL   C26943435   6.899   0.042   6.897 -0.2845  0.2037 -0.1836
  114MOL   O27043436   6.917   0.123   6.784  0.4086 -0.6758  0.7301
  114MOL   C27143437   7.042   0.107   6.717 -0.1290 -0.5296 -0.3901
  114MOL   C27243438   7.083   0.233   6.629  0.7778  0.0748 -0.3970
  114MOL   C27343439   7.131   0.349   6.720  0.0511 -0.0830  0.4086
  114MOL   C27443440   7.188   0.192   6.521  0.6280 -0.4793 -0.8156
  114MOL   H27543441   6.704   0.128   6.905 -0.2768 -2.4105 -1.1413
  114MOL   H27643442   6.764   0.056   7.062  1.3732 -0.7289 -0.0152
  114MOL   H27743443   6.985   0.026   6.961  0.3850 -1.4429 -1.4469
  114MOL   H27843444   7.126   0.092   6.785  0.8744 -1.4822 -1.7857
  114MOL   H27943445   7.031   0.017   6.657 -1.6211 -1.1384  0.7733
  114MOL   H28043446   6.996   0.278   6.580  1.7252  0.7865 -1.4511
  114MOL   H28143447   7.064   0.415   6.774  1.4398  1.5322  0.1965
  114MOL   H28243448   7.186   0.416   6.654 -2.8875  1.4903 -0.5123
  114MOL   H28343449   7.201   0.306   6.793 -3.0078 -2.5029  2.0349
  114MOL   H28443450   7.149   0.108   6.464 -1.1236 -2.1124  2.6143
  114MOL   H28543451   7.274   0.136   6.556  1.2568  1.6336  1.1317
  114MOL   H28643452   7.229   0.274   6.462 -0.2841  0.5236 -0.0831
  114MOL   C28743453   6.859   7.721   6.844 -0.7997 -0.1034  0.2139
  114MOL   C28843454   6.794   7.623   6.943  0.2978  0.0525 -0.7929
  114MOL   O28943455   6.867   7.505   6.930 -0.1696  0.1501 -0.4058
  114MOL   C29043456   6.991   7.493   6.999  0.3427 -0.6262  0.3528
  114MOL   C29143457   7.060   7.370   6.954 -0.4717  0.3651 -0.2884
  114MOL   C29243458   7.120   7.377   6.811 -0.8953 -0.1542  0.3528
  114MOL   C29343459   6.960   7.253   6.975  0.2176 -0.4058 -0.2841
  114MOL   H29443460   6.935   7.672   6.784 -1.6865 -1.1398 -0.0786
  114MOL   H29543461   6.783   7.756   6.775  0.4916 -0.2935 -1.3134
  114MOL   H29643462   6.815   7.668   7.041 -2.4865  1.2006 -0.6625
  114MOL   H29743463   7.050   7.585   6.988 -0.1121 -0.3528  0.1996
  114MOL   H29843464   6.977   7.484   7.107 -0.1666  1.0547  0.4518
  114MOL   H29943465   7.147   7.351   7.017 -0.3510 -0.4743 -0.6980
  114MOL   H30043466   7.221   7.418   6.817 -0.5809 -0.6420 -1.4221
  114MOL   H30143467   7.067   7.449   6.750 -0.9276 -1.3806 -1.0779
  114MOL   H30243468   7.109   7.280   6.762 -0.1713 -0.4854  0.8194
  114MOL   H30343469   6.902   7.237   6.883  2.0848 -0.5806 -1.4507
  114MOL   H30443470   7.021   7.168   7.005  2.8145 -0.1030 -4.2904
  114MOL   H30543471   6.887   7.270   7.054 -0.0891  0.9746 -0.8575
  114MOL   C30643472   6.650   7.599   6.915 -0.0166  0.8310 -0.0512
  114MOL   C30743473   6.579   7.499   7.009  0.0594  0.7260 -0.7597
  114MOL   O30843474   6.445   7.552   7.027 -0.3602 -0.2060  0.0245
  114MOL   C30943475   6.441   7.647   7.127  0.3687  0.1401 -0.4488
  114MOL   C31043476   6.300   7.696   7.117  0.0612 -0.1345  0.3791
  114MOL   C31143477   6.203   7.582   7.141  0.4759 -0.1406  0.0669
  114MOL   C31243478   6.265   7.764   6.988  0.6677  0.1094  0.0464
  114MOL   H31343479   6.634   7.551   6.818  2.4882 -2.7807  1.2520
  114MOL   H31443480   6.595   7.693   6.906  0.4810  1.0094 -1.4962
  114MOL   H31543481   6.633   7.482   7.102 -0.7965  1.1739 -0.1740
  114MOL   H31643482   6.515   7.726   7.116 -1.9576  2.8120  2.2328
  114MOL   H31743483   6.458   7.597   7.223 -1.4489 -1.2716 -0.8351
  114MOL   H31843484   6.286   7.778   7.188  0.2145  2.3160 -2.2985
  114MOL   H31943485   6.197   7.561   7.247 -0.3182 -1.0408 -0.1530
  114MOL   H32043486   6.234   7.497   7.079 -0.3133 -1.7215  1.8071
  114MOL   H32143487   6.104   7.611   7.105  0.3732  0.7707  1.0863
  114MOL   H32243488   6.250   7.698   6.902 -1.0051  1.6548 -0.8808
  114MOL   H32343489   6.333   0.022   6.970  0.8188  0.1794  0.9326
  114MOL   H32443490   6.166   7.810   6.995  1.0672  0.8363  1.0955
  114MOL   C32543491   6.569   7.358   6.954 -0.0192 -0.1735 -0.3503
  114MOL   C32643492   6.479   7.260   7.032  0.0237 -0.2877 -0.3879
  114MOL   O32743493   6.487   7.128   6.978  0.2667  0.0351 -0.0327
  114MOL   C32843494   6.405   7.105   6.861  0.1885  0.6326 -0.0189
  114MOL   C32943495   6.439   6.960   6.815  0.5261 -0.2565 -0.5485
  114MOL   C33043496   6.582   6.943   6.755 -0.1638 -0.7285  0.4826
  114MOL   C33143497   6.403   6.865   6.929  0.0212 -0.2794 -0.0768
  114MOL   H33243498   6.668   7.312   6.956  0.5666  1.0300 -0.8157
  114MOL   H33343499   6.540   7.359   6.849  0.3859 -0.6995 -0.4703
  114MOL   H33443500   6.377   7.290   7.010  0.4995 -0.6250 -3.1869
  114MOL   H33543501   6.298   7.117   6.883 -0.0907  0.9293 -1.4762
  114MOL   H33643502   6.432   7.173   6.781  0.7930  1.6910  1.0753
  114MOL   H33743503   6.365   6.935   6.739  1.1062  3.6135 -2.4899
  114MOL   H33843504   6.599   7.008   6.669  0.1061 -1.0331  0.3073
  114MOL   H33943505   6.648   6.969   6.839  1.5113  0.6281 -1.2174
  114MOL   H34043506   6.602   6.845   6.714 -1.3359  0.6044 -3.4930
  114MOL   H34143507   6.445   6.900   7.023  2.0369  0.5119 -1.2585
  114MOL   H34243508   6.297   6.881   6.949  0.0618  0.7717 -0.6755
  114MOL   H34343509   6.429   6.760   6.912  0.0827  0.0557 -2.1881
  114MOL   C34443510   6.511   7.248   7.181  0.2059  1.2306 -0.5954
  114MOL   C34543511   6.428   7.141   7.250 -0.3069 -0.4814 -0.3814
  114MOL   O34643512   6.471   7.126   7.381  0.0041 -0.2680  0.4277
  114MOL   C34743513   6.594   7.056   7.402 -0.4277  0.5057 -0.5661
  114MOL   C34843514   6.569   6.922   7.474 -0.0546  0.0655 -0.6247
  114MOL   C34943515   6.470   6.830   7.404 -0.2922  0.3923 -0.1492
  114MOL   C35043516   6.535   6.940   7.629  0.0836  0.0404  0.0119
  114MOL   H35143517   6.497   7.351   7.216  1.7923  0.8333  1.2799
  114MOL   H35243518   6.616   7.224   7.198 -0.6173 -2.5374 -0.5103
  114MOL   H35343519   6.457   7.051   7.196  0.6704 -1.4514  1.7174
  114MOL   H35443520   6.644   7.134   7.459  0.7549 -1.6362  1.4256
  114MOL   H35543521   6.650   7.047   7.309  1.8753  0.2507  0.8201
  114MOL   H35643522   6.667   6.874   7.474 -1.3593 -2.8309  2.4232
  114MOL   H35743523   6.369   6.867   7.422 -0.9162 -1.0014 -0.7513
  114MOL   H35843524   6.476   6.724   7.431 -1.6548  0.3108 -0.1156
  114MOL   H35943525   6.485   6.826   7.296  0.9659 -1.3972  0.0666
  114MOL   H36043526   6.431   6.970   7.643 -0.4928 -0.8377 -2.1630
  114MOL   H36143527   6.552   6.850   7.687  0.8270 -0.0738 -0.3801
  114MOL   H36243528   6.598   7.015   7.678  0.6436 -0.5220  0.1572
  114MOL   C36343529   6.279   7.167   7.246 -1.0858 -0.3045  0.1974
  114MOL   C36443530   6.201   7.060   7.321  0.4275 -0.0509  0.6068
  114MOL   O36543531   6.059   7.085   7.325 -0.0033  0.0921 -0.1481
  114MOL   C36643532   6.014   7.212   7.364 -0.4329 -0.6589  0.2214
  114MOL   C36743533   5.880   7.182   7.444 -0.0365  0.5239 -0.0388
  114MOL   C36843534   5.772   7.293   7.416 -0.2704  0.0475 -0.6677
  114MOL   C36943535   5.906   7.166   7.597 -0.4375 -0.5611  0.3268
  114MOL   H37043536   6.250   7.265   7.282 -1.8071 -0.3120 -0.3511
  114MOL   H37143537   6.228   7.177   7.150 -1.7290  0.8389  0.6521
  114MOL   H37243538   6.237   7.063   7.424 -0.3130 -1.3449  0.9174
  114MOL   H37343539   6.080   7.274   7.425  1.9549 -2.2986 -0.6017
  114MOL   H37443540   6.002   7.269   7.272 -0.4827 -1.5647 -0.3404
  114MOL   H37543541   5.841   7.086   7.412  1.3096  0.1338 -0.5228
  114MOL   H37643542   5.683   7.281   7.478 -0.7074  3.4483 -0.5539
  114MOL   H37743543   5.742   7.293   7.311 -3.3539 -0.8152  0.1544
  114MOL   H37843544   5.799   7.386   7.464 -1.2358 -1.0777  2.1442
  114MOL   H37943545   5.815   7.140   7.651  1.7115 -0.4126  4.1742
  114MOL   H38043546   5.946   7.254   7.646  0.5895  0.2505 -1.8890
  114MOL   H38143547   5.963   7.075   7.612  1.3795  0.2578 -1.3770
  114MOL   H38243548   6.226   6.968   7.269 -1.1289  1.9900 -4.0182
  115MOL     C143549   5.630   3.006   1.185 -0.0287  0.3233  0.5702
  115MOL     C243550   5.516   2.999   1.283  0.7271  0.1334  0.0667
  115MOL     O343551   5.569   2.956   1.405  0.4806  0.5100  0.4392
  115MOL     C443552   5.489   2.879   1.488 -0.2955  0.4384 -0.4449
  115MOL     C543553   5.513   2.914   1.629  0.1261  0.2826  0.3249
  115MOL     C643554   5.483   3.064   1.646  0.4500 -0.2232  0.6382
  115MOL     C743555   5.648   2.889   1.689 -0.6595 -0.8210  0.0378
  115MOL     H843556   5.720   3.051   1.227  0.9042 -2.2777  1.4614
  115MOL     H943557   5.663   2.905   1.163 -1.4220  0.3187 -1.6549
  115MOL    H1043558   5.453   2.918   1.247 -0.3895  0.9929  0.0562
  115MOL    H1143559   5.524   2.777   1.471  0.6859  0.5794  0.6155
  115MOL    H1243560   5.381   2.882   1.473 -0.6628 -1.6992  1.3872
  115MOL    H1343561   5.446   2.850   1.686  0.4043 -0.7710 -0.5052
  115MOL    H1443562   5.550   3.128   1.586 -0.5564  0.4702  0.2403
  115MOL    H1543563   5.382   3.091   1.615  0.9187  0.9167  0.0717
  115MOL    H1643564   5.498   3.092   1.750 -1.4330  1.4885  0.4861
  115MOL    H1743565   5.681   2.790   1.659  1.1469 -0.1653 -0.2004
  115MOL    H1843566   5.726   2.954   1.649 -0.8752  0.2101  1.2357
  115MOL    H1943567   5.640   2.899   1.797 -0.6882  0.2350 -0.0528
  115MOL    H2043568   5.615   3.054   1.088  0.3824  1.0107  0.8403
  115MOL    C2143569   5.433   3.130   1.308  0.2648  0.4341 -0.2021
  115MOL    C2243570   5.395   3.225   1.191  0.4057 -0.2767 -1.0174
  115MOL    O2343571   5.286   3.177   1.117  0.0312  1.0096  0.4688
  115MOL    C2443572   5.327   3.113   1.001 -0.0635 -0.1336  0.3057
  115MOL    C2543573   5.210   3.076   0.910  0.3624 -0.3536 -0.0729
  115MOL    C2643574   5.109   2.983   0.976  0.4621  1.0914  1.1582
  115MOL    C2743575   5.139   3.205   0.858  0.0754 -0.4980  0.1124
  115MOL    H2843576   5.346   3.101   1.365  0.0112 -0.6835 -1.1308
  115MOL    H2943577   5.493   3.192   1.374 -0.7256  1.4852 -0.2904
  115MOL    H3043578   5.481   3.225   1.124 -1.2720  0.0907 -3.2692
  115MOL    H3143579   5.385   3.021   1.010  1.4553  0.8476  0.6740
  115MOL    H3243580   5.392   3.184   0.951 -1.4691  2.3259  1.8412
  115MOL    H3343581   5.246   3.016   0.826  1.2336  0.8793 -0.5876
  115MOL    H3443582   5.069   3.033   1.064  0.6676 -0.2788  2.0445
  115MOL    H3543583   5.169   2.897   1.006 -1.0846  0.1052  1.4838
  115MOL    H3643584   5.029   2.956   0.908  1.2764  0.2276  0.5237
  115MOL    H3743585   5.202   3.292   0.845 -0.5257 -0.1692 -0.6368
  115MOL    H3843586   5.060   3.181   0.788  0.4689 -0.7805 -0.2347
  115MOL    H3943587   5.081   3.234   0.946  1.0200 -2.3298  1.3697
  115MOL    C4043588   5.382   3.376   1.229  0.3669 -0.2292 -0.2036
  115MOL    C4143589   5.402   3.474   1.115  0.3198 -0.7822 -0.2369
  115MOL    O4243590   5.525   3.459   1.054  0.0300 -0.4061  0.3448
  115MOL    C4343591   5.532   3.471   0.918  0.4796  0.1429 -0.0969
  115MOL    C4443592   5.665   3.446   0.853 -0.2665  0.0527 -0.2875
  115MOL    C4543593   5.791   3.520   0.902  0.6428  0.3235  0.6008
  115MOL    C4643594   5.692   3.296   0.859  0.6799 -0.4292 -0.2458
  115MOL    H4743595   5.461   3.408   1.297  0.6167  0.0694 -0.6397
  115MOL    H4843596   5.286   3.398   1.277  0.5205 -0.3872  0.1796
  115MOL    H4943597   5.321   3.464   1.043  0.6475 -0.0472 -0.7163
  115MOL    H5043598   5.515   3.574   0.888 -1.5413  0.7303  2.8403
  115MOL    H5143599   5.452   3.409   0.877  0.4993 -0.4915  0.8088
  115MOL    H5243600   5.663   3.465   0.746 -1.9585  0.3067 -0.2179
  115MOL    H5343601   5.789   3.512   1.011  0.2174 -4.2710  0.3454
  115MOL    H5443602   5.884   3.466   0.884 -0.0774 -1.2911  1.6407
  115MOL    H5543603   5.804   3.617   0.854 -0.0719  0.3674  0.4957
  115MOL    H5643604   5.720   3.265   0.959 -2.0443 -2.6413 -0.1022
  115MOL    H5743605   5.772   3.270   0.790  2.6508  0.8532  1.5054
  115MOL    H5843606   5.605   3.238   0.828  1.1721 -0.9205 -0.7313
  115MOL    C5943607   5.403   3.620   1.163  0.1823 -0.2951  0.1115
  115MOL    C6043608   5.270   3.677   1.211  0.2723 -0.1977  0.8770
  115MOL    O6143609   5.175   3.656   1.105 -0.6201 -0.1697  0.5555
  115MOL    C6243610   5.065   3.574   1.139  0.8790  0.0831 -0.0416
  115MOL    C6343611   4.968   3.598   1.023  0.0691 -0.8661  0.2135
  115MOL    C6443612   5.020   3.547   0.891  0.4235 -0.0685  0.2538
  115MOL    C6543613   4.834   3.535   1.041 -0.5105  0.3137 -0.3711
  115MOL    H6643614   5.430   3.687   1.082  2.7232 -0.4835  0.7559
  115MOL    H6743615   5.482   3.638   1.236 -0.1164 -0.6215  0.5171
  115MOL    H6843616   5.233   3.624   1.298 -0.0436 -0.1062  0.8000
  115MOL    H6943617   5.092   3.469   1.141 -0.4398 -0.3028 -1.2480
  115MOL    H7043618   5.010   3.602   1.229  2.6559  0.8940  0.8132
  115MOL    H7143619   4.947   3.705   1.019  1.7698 -0.4495  1.6018
  115MOL    H7243620   5.024   3.439   0.883  2.7578  0.0143  0.1283
  115MOL    H7343621   5.120   3.585   0.869  0.2258 -0.5146 -1.4575
  115MOL    H7443622   4.955   3.578   0.809  2.9742  0.5826 -1.5799
  115MOL    H7543623   4.854   3.429   1.054 -0.2543  0.3594 -0.3980
  115MOL    H7643624   4.779   3.578   1.125 -0.2371 -0.8452  0.4102
  115MOL    H7743625   4.772   3.550   0.953  0.8121  2.3041 -0.9980
  115MOL    C7843626   5.281   3.831   1.251 -0.5425  0.1818 -0.3079
  115MOL    C7943627   5.211   3.871   1.385  0.0733 -0.4597 -0.1338
  115MOL    O8043628   5.267   3.998   1.422  0.0435  0.5844  0.2047
  115MOL    C8143629   5.207   4.067   1.533  0.4131  0.2036 -0.6569
  115MOL    C8243630   5.275   4.203   1.563 -0.0891 -0.1469 -0.2219
  115MOL    C8343631   5.431   4.203   1.556  0.1532 -0.4823 -0.0787
  115MOL    C8443632   5.231   4.255   1.704 -0.2216  0.4713 -0.5831
  115MOL    H8543633   5.226   3.878   1.170  0.8071  0.1755 -1.2409
  115MOL    H8643634   5.386   3.859   1.261 -0.5868  0.4569 -0.6190
  115MOL    H8743635   5.230   3.806   1.471  0.5638  0.5936  0.5643
  115MOL    H8843636   5.099   4.076   1.519  0.4400  0.5774 -0.6296
  115MOL    H8943637   5.219   3.997   1.616  3.1753  3.0085  1.4267
  115MOL    H9043638   5.235   4.280   1.497  1.4234 -0.0529 -1.0551
  115MOL    H9143639   5.470   4.302   1.580 -1.4532 -0.6979  3.7375
  115MOL    H9243640   5.467   4.170   1.458  1.7156  0.5972  0.1045
  115MOL    H9343641   5.470   4.139   1.634  0.0884  0.4542  0.7241
  115MOL    H9443642   5.270   4.189   1.780 -0.1538  2.0624  0.7855
  115MOL    H9543643   5.122   4.265   1.710 -0.2980 -1.6269  2.3367
  115MOL    H9643644   5.275   4.345   1.747  1.7146 -0.7029 -0.0792
  115MOL    C9743645   5.057   3.886   1.370  0.2710 -0.6294 -0.7870
  115MOL    C9843646   4.975   3.828   1.494 -0.2151  0.5571 -0.5425
  115MOL    O9943647   5.006   3.689   1.496 -0.4617  0.3165  0.3554
  115MOL   C10043648   5.022   3.625   1.619  0.0517 -0.0299  0.1790
  115MOL   C10143649   4.948   3.490   1.617  0.5488 -0.2718  0.1074
  115MOL   C10243650   4.794   3.502   1.642  0.9085 -0.5298 -0.6990
  115MOL   C10343651   4.984   3.408   1.493 -0.2199  0.5015  0.1295
  115MOL   H10443652   5.026   3.833   1.280 -0.9102  0.5315 -1.0850
  115MOL   H10543653   5.014   3.985   1.354  0.0144 -0.7522 -0.8657
  115MOL   H10643654   5.013   3.881   1.581 -0.5571  1.0352 -0.6784
  115MOL   H10743655   4.996   3.685   1.706  2.9485  1.2944  0.1707
  115MOL   H10843656   5.127   3.597   1.628 -0.3223 -1.1094  1.5058
  115MOL   H10943657   4.982   3.457   1.716 -1.5857 -0.3732  0.8261
  115MOL   H11043658   4.741   3.567   1.572 -0.0830  0.2120  0.7216
  115MOL   H11143659   4.746   3.405   1.631 -1.6276  0.2305  2.9374
  115MOL   H11243660   4.759   3.530   1.741 -0.8983 -1.4328 -1.0626
  115MOL   H11343661   4.953   3.306   1.514  1.5438  0.1433  1.0538
  115MOL   H11443662   4.935   3.439   1.400 -0.8113 -0.5299  0.0883
  115MOL   H11543663   5.092   3.413   1.484 -0.2845  1.8688 -0.1058
  115MOL   C11643664   4.821   3.846   1.493  0.0778 -0.2108 -0.0260
  115MOL   C11743665   4.768   3.994   1.508  0.1226 -0.2516  0.0850
  115MOL   O11843666   4.628   4.008   1.494  0.2370  0.1990 -0.6642
  115MOL   C11943667   4.561   3.950   1.387 -0.3354 -0.0586 -0.1175
  115MOL   C12043668   4.419   4.013   1.387 -0.0587 -0.1631  0.4636
  115MOL   C12143669   4.337   3.972   1.512 -0.1223 -0.4031 -0.8922
  115MOL   C12243670   4.416   4.163   1.347 -0.3114 -0.2213  0.5862
  115MOL   H12343671   4.794   3.800   1.398 -2.6638 -0.0785  0.6642
  115MOL   H12443672   4.773   3.782   1.567  1.6604 -1.8531 -0.3905
  115MOL   H12543673   4.799   4.057   1.424  1.1191 -0.2239  0.4662
  115MOL   H12643674   4.548   3.842   1.396 -1.1107 -0.0132 -0.5822
  115MOL   H12743675   4.610   3.970   1.292 -2.3508  2.3475 -0.7183
  115MOL   H12843676   4.366   3.968   1.303 -0.0922  0.7758 -0.0258
  115MOL   H12943677   4.228   3.978   1.500 -0.0530 -0.3113 -1.4999
  115MOL   H13043678   4.359   4.029   1.602 -0.2370 -0.5113 -0.7936
  115MOL   H13143679   4.355   3.870   1.547 -0.0991 -0.4849 -1.1365
  115MOL   H13243680   4.501   4.184   1.283  1.0898 -1.1838  2.1194
  115MOL   H13343681   4.327   4.183   1.287 -1.4826 -1.7910  1.7800
  115MOL   H13443682   4.421   4.233   1.430 -2.0871  1.3773 -0.5895
  115MOL   C13543683   4.803   4.058   1.642  0.1409 -0.7381 -0.2174
  115MOL   C13643684   4.757   4.196   1.681  0.1546 -0.3675  0.1230
  115MOL   O13743685   4.821   4.236   1.801 -0.2826 -0.0234  0.0923
  115MOL   C13843686   4.767   4.202   1.928 -0.3054 -0.0326 -0.3239
  115MOL   C13943687   4.877   4.243   2.029  0.3880  0.3694 -0.4171
  115MOL   C14043688   4.838   4.223   2.177  0.0510 -0.0250  0.3949
  115MOL   C14143689   4.997   4.146   2.006  0.3283  1.2053 -0.1595
  115MOL   H14243690   4.783   3.983   1.719  1.4554 -1.6548 -0.7353
  115MOL   H14343691   4.912   4.053   1.642  0.1563 -0.5104 -0.6719
  115MOL   H14443692   4.651   4.196   1.709 -0.0162 -0.2439 -0.5193
  115MOL   H14543693   4.745   4.095   1.928  1.1855 -0.3474 -1.1150
  115MOL   H14643694   4.676   4.259   1.945  0.5920  0.7631  1.9788
  115MOL   H14743695   4.905   4.347   2.011 -1.1897  0.5392 -2.0030
  115MOL   H14843696   4.921   4.251   2.241  1.2875  0.0115 -1.2025
  115MOL   H14943697   4.800   4.122   2.193  0.3514 -0.0314  1.0896
  115MOL   H15043698   4.748   4.280   2.202 -2.1304 -3.3959  0.5795
  115MOL   H15143699   5.030   4.152   1.903  0.7178  0.3301 -0.0921
  115MOL   H15243700   5.084   4.169   2.068 -0.3088 -0.4789  1.4002
  115MOL   H15343701   4.968   4.041   2.013 -1.3665  1.4984 -2.2629
  115MOL   C15443702   4.790   4.300   1.574  0.9686  0.8688  0.1329
  115MOL   C15543703   4.794   4.452   1.615 -0.1246  0.4080 -0.5089
  115MOL   O15643704   4.851   4.524   1.507  0.0906  0.5614 -0.1331
  115MOL   C15743705   4.984   4.573   1.523  0.3197 -0.0885 -0.1375
  115MOL   C15843706   5.041   4.596   1.383 -0.2162 -0.6409 -0.1997
  115MOL   C15943707   5.019   4.490   1.281  0.1729  0.1602 -0.8302
  115MOL   C16043708   4.989   4.729   1.333 -0.2685 -0.6308 -0.6965
  115MOL   H16143709   4.738   4.289   1.479  0.4732  2.8191  0.1586
  115MOL   H16243710   4.890   4.284   1.534  0.7873 -3.1380  1.1088
  115MOL   H16343711   4.857   4.464   1.703 -0.2948  1.7887 -0.5629
  115MOL   H16443712   5.047   4.507   1.583 -2.6916 -1.3487  1.7639
  115MOL   H16543713   4.976   4.662   1.586  1.3162 -0.1557  0.0911
  115MOL   H16643714   5.147   4.615   1.401 -0.4157  0.8044 -0.5569
  115MOL   H16743715   4.926   4.503   1.226 -0.6592  3.7865  1.2375
  115MOL   H16843716   5.013   4.388   1.317 -2.3133  0.0680 -1.3928
  115MOL   H16943717   5.105   4.500   1.216  1.6345  0.9423  1.1574
  115MOL   H17043718   5.037   4.755   1.239 -2.1734 -1.0962 -1.8220
  115MOL   H17143719   4.888   4.724   1.292 -0.6344 -2.2170  0.3725
  115MOL   H17243720   4.977   4.810   1.406 -0.4029 -0.8451 -0.4797
  115MOL   C17343721   4.665   4.506   1.662  0.0533 -0.4588 -0.6023
  115MOL   C17443722   4.645   4.656   1.667  0.2789 -0.1981 -0.4204
  115MOL   O17543723   4.534   4.696   1.591 -0.1409  0.8792 -0.6352
  115MOL   C17643724   4.557   4.668   1.450 -0.3456  0.4340  0.6601
  115MOL   C17743725   4.451   4.733   1.360  0.2030 -0.2622 -0.1741
  115MOL   C17843726   4.446   4.891   1.371  0.2628  0.1870 -0.4269
  115MOL   C17943727   4.471   4.687   1.212 -0.4202 -0.5103 -0.5670
  115MOL   H18043728   4.584   4.465   1.601 -1.4418  0.7873  0.5220
  115MOL   H18143729   4.660   4.453   1.757  2.5326 -0.7707 -0.5994
  115MOL   H18243730   4.738   4.708   1.641  0.7985 -0.4048  0.9469
  115MOL   H18343731   4.561   4.560   1.437  0.4110  0.5713 -0.3583
  115MOL   H18443732   4.649   4.723   1.426  0.2193 -1.2444 -1.0735
  115MOL   H18543733   4.350   4.707   1.393  0.6559  0.0396  1.4794
  115MOL   H18643734   4.373   4.932   1.302 -1.8013 -0.6300  1.1931
  115MOL   H18743735   4.421   4.935   1.468  0.3432 -0.0632 -0.2910
  115MOL   H18843736   4.539   4.934   1.335  0.4316 -0.6469 -0.9858
  115MOL   H18943737   4.445   4.582   1.204  0.3732 -0.6458 -1.4829
  115MOL   H19043738   4.576   4.706   1.187  0.2892 -0.4749  2.2689
  115MOL   H19143739   4.399   4.731   1.143 -1.4431 -2.4130 -0.7342
  115MOL   C19243740   4.618   4.704   1.813 -0.2871 -0.5075  0.5980
  115MOL   C19343741   4.740   4.704   1.912 -0.1748  0.2967  0.2934
  115MOL   O19443742   4.695   4.723   2.046  0.6705  0.5864 -0.4347
  115MOL   C19543743   4.655   4.608   2.116  0.5531 -0.4528 -0.2572
  115MOL   C19643744   4.595   4.643   2.249 -0.0063 -0.5964  0.4579
  115MOL   C19743745   4.451   4.688   2.228  0.5193  0.6551 -0.5939
  115MOL   C19843746   4.686   4.749   2.324 -0.2364 -0.7050 -0.0680
  115MOL   H19943747   4.550   4.634   1.861  0.4296 -1.9982 -0.5199
  115MOL   H20043748   4.584   4.808   1.814 -0.1942 -0.4479 -1.1369
  115MOL   H20143749   4.794   4.610   1.899 -0.3190  0.2955 -0.3261
  115MOL   H20243750   4.734   4.536   2.136  0.8908 -0.0921 -0.2906
  115MOL   H20343751   4.582   4.552   2.057 -0.4147  0.3196  0.1896
  115MOL   H20443752   4.577   4.562   2.320 -2.3039  0.1219  0.7487
  115MOL   H20543753   4.403   4.611   2.167  1.6055 -0.0227 -0.5930
  115MOL   H20643754   4.384   4.714   2.310 -1.8368 -0.4752 -2.0837
  115MOL   H20743755   4.450   4.774   2.162 -2.7491 -0.5655 -2.2559
  115MOL   H20843756   4.769   4.691   2.365 -1.2510 -0.1101  3.0169
  115MOL   H20943757   4.729   4.827   2.261  1.9615 -1.6359  0.2219
  115MOL   H21043758   4.629   4.793   2.406 -2.2059 -0.3800 -1.5714
  115MOL   C21143759   4.824   4.823   1.880 -0.4257 -0.3904 -0.5534
  115MOL   C21243760   4.971   4.821   1.944  0.0964  0.2037  0.8068
  115MOL   O21343761   5.040   4.693   1.911 -0.2558  0.4091 -0.0375
  115MOL   C21443762   5.065   4.609   2.028 -0.1746 -0.2914  0.3727
  115MOL   C21543763   5.184   4.504   1.996 -0.1125  0.1876  0.7595
  115MOL   C21643764   5.309   4.577   1.950  0.6492  0.0060 -1.0294
  115MOL   C21743765   5.216   4.409   2.116  0.1258 -0.5157 -0.3638
  115MOL   H21843766   4.780   4.919   1.906  0.6973 -0.1685  0.5851
  115MOL   H21943767   4.835   4.826   1.771  0.3321  1.2328 -0.4480
  115MOL   H22043768   4.954   4.813   2.051  0.8782  1.9507  1.0670
  115MOL   H22143769   4.977   4.561   2.070 -1.2779 -0.9824 -2.6464
  115MOL   H22243770   5.096   4.677   2.107  0.4080 -0.5498  0.3732
  115MOL   H22343771   5.147   4.435   1.920  1.1562 -1.4363  1.5705
  115MOL   H22443772   5.283   4.645   1.870  5.0936  1.0541 -1.7057
  115MOL   H22543773   5.362   4.632   2.027 -0.4113 -0.5507  0.1156
  115MOL   H22643774   5.385   4.514   1.903  1.2034  0.0423 -0.1889
  115MOL   H22743775   5.261   4.317   2.079  0.5701 -0.9755  1.2658
  115MOL   H22843776   5.120   4.380   2.159 -1.3155  1.8091 -1.8924
  115MOL   H22943777   5.282   4.456   2.188  0.6148  1.2053 -1.8960
  115MOL   C23043778   5.061   4.934   1.907  0.6806 -0.7678 -0.0045
  115MOL   C23143779   5.031   5.070   1.972  0.4012  0.3143  0.6891
  115MOL   O23243780   5.063   5.039   2.114  0.2289  0.7293 -0.0964
  115MOL   C23343781   5.018   5.124   2.211  0.2261  0.4435 -0.3694
  115MOL   C23443782   5.068   5.085   2.355 -0.0604  0.1040  0.1605
  115MOL   C23543783   5.014   4.955   2.417  0.3837 -0.8234 -0.6376
  115MOL   C23643784   5.224   5.102   2.355 -0.3750  0.1113 -0.5900
  115MOL   H23743785   5.062   4.933   1.798 -0.2536 -0.4527 -0.0219
  115MOL   H23843786   5.164   4.908   1.932  1.0660  0.9034  0.2638
  115MOL   H23943787   4.925   5.094   1.964  0.6833  1.2580 -0.4110
  115MOL   H24043788   5.052   5.227   2.201 -2.1950  1.2098 -0.8965
  115MOL   H24143789   4.910   5.128   2.211  0.1950 -0.2450  0.1322
  115MOL   H24243790   5.039   5.165   2.423 -0.4522  2.7051 -2.9158
  115MOL   H24343791   5.079   4.882   2.368 -0.2794 -0.3784 -2.2080
  115MOL   H24443792   4.909   4.939   2.394  0.3343 -3.0809  0.9014
  115MOL   H24543793   5.036   4.954   2.524 -2.3635 -0.0390 -0.0300
  115MOL   H24643794   5.267   5.012   2.309  2.6539  1.4670 -0.5372
  115MOL   H24743795   5.271   5.194   2.322  0.9382 -0.5501 -0.6252
  115MOL   H24843796   5.256   5.094   2.459 -0.2339 -0.0677 -0.6468
  115MOL   C24943797   5.124   5.185   1.916  0.0977  0.6630 -0.3377
  115MOL   C25043798   5.104   5.220   1.765  0.2629  0.4192  0.1417
  115MOL   O25143799   4.963   5.265   1.766 -0.3275 -0.0504 -0.0088
  115MOL   C25243800   4.883   5.220   1.662  0.4125  0.1434 -0.2221
  115MOL   C25343801   4.737   5.266   1.686  0.2258 -0.9273 -0.2022
  115MOL   C25443802   4.718   5.418   1.694 -0.5426  0.3441 -0.3682
  115MOL   C25543803   4.683   5.205   1.811  0.2786 -0.7847 -0.5847
  115MOL   H25643804   5.225   5.146   1.925  0.4676  1.5840 -0.4426
  115MOL   H25743805   5.115   5.271   1.983  0.4355  0.3277  0.1459
  115MOL   H25843806   5.116   5.134   1.700  0.2338  2.0062 -2.0181
  115MOL   H25943807   4.916   5.260   1.566 -2.1777  0.9886 -0.8031
  115MOL   H26043808   4.882   5.112   1.653  1.1244  0.3251 -2.8639
  115MOL   H26143809   4.671   5.234   1.605  3.4409 -1.9872 -2.5108
  115MOL   H26243810   4.768   5.456   1.605 -0.9337 -2.6957 -1.9482
  115MOL   H26343811   4.761   5.473   1.778 -0.5802 -1.4609  0.8596
  115MOL   H26443812   4.612   5.438   1.681 -0.7099 -0.1369  0.2376
  115MOL   H26543813   4.678   5.097   1.804  2.0914 -0.9235  0.0299
  115MOL   H26643814   4.733   5.233   1.903  1.2215  0.9041 -1.5765
  115MOL   H26743815   4.575   5.223   1.808  0.1964 -0.9482  0.9488
  115MOL   C26843816   5.196   5.337   1.734  0.3216  0.3276  0.0721
  115MOL   C26943817   5.243   5.360   1.587  0.2022 -0.2620  1.2157
  115MOL   O27043818   5.291   5.231   1.545  0.3461 -0.4899 -0.0031
  115MOL   C27143819   5.223   5.172   1.435  0.1781  0.4062  0.4239
  115MOL   C27243820   5.306   5.051   1.408 -0.0022 -0.2267  0.6225
  115MOL   C27343821   5.287   4.956   1.531  0.4534  0.5767  0.3752
  115MOL   C27443822   5.276   4.991   1.271  0.0563  0.0540  0.2068
  115MOL   H27543823   5.288   5.322   1.790  0.0981  1.6868  0.8143
  115MOL   H27643824   5.147   5.428   1.770 -1.8108 -1.0084  0.6590
  115MOL   H27743825   5.159   5.394   1.528  1.5548 -1.6360 -1.6271
  115MOL   H27843826   5.123   5.148   1.473  0.2754 -2.6721 -1.0381
  115MOL   H27943827   5.212   5.225   1.341  2.0425  1.8216  0.9757
  115MOL   H28043828   5.411   5.080   1.412 -0.6873  2.8477 -1.9714
  115MOL   H28143829   5.323   5.000   1.625 -0.0391 -1.9064  1.7890
  115MOL   H28243830   5.320   4.856   1.502  3.5542  1.5656  0.2475
  115MOL   H28343831   5.181   4.949   1.552  0.6900 -1.4676  0.9701
  115MOL   H28443832   5.262   5.069   1.196 -1.1037  2.3682  2.7296
  115MOL   H28543833   5.180   4.940   1.273 -0.1181  0.1655 -2.8767
  115MOL   H28643834   5.355   4.923   1.240  0.4635  0.6209 -0.0024
  115MOL   C28743835   5.357   5.456   1.566  0.0190 -0.2674 -0.7554
  115MOL   C28843836   5.361   5.517   1.423 -0.0766  0.0752 -0.1382
  115MOL   O28943837   5.487   5.496   1.357 -0.5553  0.5158 -0.6750
  115MOL   C29043838   5.508   5.362   1.307  0.8872  0.4966 -0.4266
  115MOL   C29143839   5.656   5.333   1.274 -0.0323  0.3608 -0.6243
  115MOL   C29243840   5.687   5.192   1.221 -0.2699  0.0823 -0.6344
  115MOL   C29343841   5.746   5.365   1.395  0.5156  0.3116 -0.6274
  115MOL   H29443842   5.448   5.402   1.591  0.0439 -0.3604 -1.0404
  115MOL   H29543843   5.353   5.525   1.650  0.1184 -1.0326 -0.1189
  115MOL   H29643844   5.277   5.478   1.366 -0.4637 -0.2274  0.6364
  115MOL   H29743845   5.473   5.299   1.389  1.3440 -0.3284 -0.8528
  115MOL   H29843846   5.438   5.339   1.227 -0.5361  1.3874  0.5327
  115MOL   H29943847   5.672   5.401   1.190 -1.9619  1.3101 -0.2538
  115MOL   H30043848   5.793   5.179   1.199  0.2972  0.5692  1.6385
  115MOL   H30143849   5.638   5.151   1.132  1.9005  2.0149 -2.7910
  115MOL   H30243850   5.663   5.130   1.307 -0.0216 -1.9448 -2.0098
  115MOL   H30343851   5.840   5.382   1.342 -0.5057 -2.0218 -3.2994
  115MOL   H30443852   5.725   5.462   1.440  0.8584  0.8742 -1.6629
  115MOL   H30543853   5.745   5.284   1.467 -1.3792  0.3516 -0.5892
  115MOL   C30643854   5.343   5.673   1.434  0.3059  0.4885  0.3994
  115MOL   C30743855   5.194   5.717   1.454 -0.5820 -0.1562 -0.8157
  115MOL   O30843856   5.184   5.841   1.524  0.4787  0.1148 -0.2564
  115MOL   C30943857   5.187   5.822   1.669  0.7322 -0.1092  0.0502
  115MOL   C31043858   5.163   5.954   1.733 -0.3557  0.4863 -0.1907
  115MOL   C31143859   5.282   6.058   1.728  0.0388  0.1283  0.2506
  115MOL   C31243860   5.104   5.934   1.872  0.8251 -0.0641 -0.7486
  115MOL   H31343861   5.376   5.713   1.338  4.6711 -0.5392  1.3298
  115MOL   H31443862   5.399   5.717   1.517 -0.2727 -1.6777  1.9933
  115MOL   H31543863   5.141   5.638   1.507  1.7644 -2.1347 -1.3210
  115MOL   H31643864   5.282   5.780   1.704  0.3240 -0.3906  0.8354
  115MOL   H31743865   5.116   5.742   1.691  1.4782 -1.5256 -2.5029
  115MOL   H31843866   5.083   5.998   1.673  0.4262  0.5464 -1.2146
  115MOL   H31943867   5.371   6.020   1.778 -0.3651  0.0814  0.9410
  115MOL   H32043868   5.264   6.151   1.781  0.1412  1.3176 -1.7355
  115MOL   H32143869   5.307   6.078   1.624  0.8142  0.4720  0.5021
  115MOL   H32243870   5.019   5.867   1.887  1.9019 -0.8563  2.1395
  115MOL   H32343871   5.086   6.035   1.908 -0.4992  0.6005 -3.1130
  115MOL   H32443872   5.194   5.894   1.918  1.4018  1.5972 -0.4051
  115MOL   C32543873   5.128   5.721   1.315  0.0313  0.5764  0.5428
  115MOL   C32643874   4.975   5.737   1.303  0.0720 -0.1015 -0.1733
  115MOL   O32743875   4.929   5.785   1.177 -0.1755 -0.3947 -0.7738
  115MOL   C32843876   4.943   5.930   1.160 -0.8006 -0.5132 -0.2034
  115MOL   C32943877   4.878   5.976   1.028 -0.4981  0.2412  0.0767
  115MOL   C33043878   4.727   5.978   1.049  0.0898 -0.4025 -0.7463
  115MOL   C33143879   4.921   6.115   0.979 -0.2642 -0.0656  0.2168
  115MOL   H33243880   5.150   5.630   1.261  1.0237  0.9562  0.2973
  115MOL   H33343881   5.180   5.798   1.257  0.2561 -0.7212 -1.0116
  115MOL   H33443882   4.956   5.806   1.385  1.9842 -0.2903  0.4383
  115MOL   H33543883   4.903   5.980   1.248  0.1350  1.5467 -0.9239
  115MOL   H33643884   5.050   5.952   1.160 -0.7423 -0.7618  0.7541
  115MOL   H33743885   4.909   5.906   0.950  0.1141 -0.1239  0.6452
  115MOL   H33843886   4.669   5.942   0.965 -3.0553  0.8426  0.7858
  115MOL   H33943887   4.693   5.909   1.126 -0.2012  0.8483  0.2710
  115MOL   H34043888   4.690   6.070   1.095  0.3369  0.0416 -1.4359
  115MOL   H34143889   4.838   6.157   0.923  0.2198  0.0266 -0.4285
  115MOL   H34243890   4.936   6.191   1.056  0.4451  1.7634 -1.7076
  115MOL   H34343891   5.012   6.117   0.920 -0.9965  2.2213 -0.8976
  115MOL   C34443892   4.905   5.600   1.314 -0.1517 -0.1909 -0.1121
  115MOL   C34543893   4.752   5.586   1.308 -0.0164 -0.1372 -0.1278
  115MOL   O34643894   4.703   5.450   1.321 -0.1396 -0.2997 -0.2687
  115MOL   C34743895   4.708   5.379   1.198 -0.3651 -0.2380  0.1805
  115MOL   C34843896   4.634   5.247   1.208 -0.2806  0.2786 -0.1261
  115MOL   C34943897   4.620   5.178   1.071  0.3437 -0.2501  0.4338
  115MOL   C35043898   4.502   5.251   1.300 -0.8998  0.7812 -0.2643
  115MOL   H35143899   4.937   5.545   1.403 -0.3345  1.9051  1.2808
  115MOL   H35243900   4.939   5.547   1.225 -2.2802 -1.5330 -0.1528
  115MOL   H35343901   4.714   5.640   1.221 -2.3127  0.1804  1.0197
  115MOL   H35443902   4.814   5.360   1.178 -0.5288 -0.0269 -0.8796
  115MOL   H35543903   4.669   5.434   1.112 -0.6169 -0.6381  0.0399
  115MOL   H35643904   4.710   5.194   1.266 -0.0311  0.2338 -0.4908
  115MOL   H35743905   4.713   5.167   1.015 -2.3892 -1.5673 -4.1204
  115MOL   H35843906   4.536   5.212   1.011 -0.5945 -0.6013  1.5355
  115MOL   H35943907   4.592   5.081   1.112 -0.2128 -0.3900 -0.2641
  115MOL   H36043908   4.463   5.150   1.307 -0.3308  0.6319  0.8668
  115MOL   H36143909   4.521   5.289   1.400 -0.5801  0.4108 -0.1863
  115MOL   H36243910   4.429   5.319   1.255 -2.3895 -0.5453  0.1355
  115MOL   C36343911   4.689   5.660   1.422 -0.4301  0.5412 -0.5724
  115MOL   C36443912   4.543   5.625   1.441 -0.3047 -0.2577  0.0377
  115MOL   O36543913   4.498   5.710   1.544 -0.0544 -0.2038 -0.2561
  115MOL   C36643914   4.365   5.746   1.522  0.3430  0.0184  0.1529
  115MOL   C36743915   4.304   5.789   1.658 -0.7899  0.7923 -0.5653
  115MOL   C36843916   4.302   5.653   1.747  1.0087  0.2417  0.3875
  115MOL   C36943917   4.171   5.866   1.644  0.5282  0.2737 -0.6418
  115MOL   H37043918   4.739   5.653   1.518 -2.2842  0.5971  0.4238
  115MOL   H37143919   4.709   5.764   1.396 -0.1650  0.6918  0.2105
  115MOL   H37243920   4.522   5.522   1.467 -1.7158 -0.1904 -0.8120
  115MOL   H37343921   4.362   5.833   1.456  0.6096 -1.3647 -1.7140
  115MOL   H37443922   4.314   5.662   1.474  4.7692 -2.4694 -0.4360
  115MOL   H37543923   4.378   5.861   1.693  0.1310 -0.2898 -0.2677
  115MOL   H37643924   4.398   5.602   1.748  0.3500 -0.9975  0.7085
  115MOL   H37743925   4.238   5.575   1.704  1.8242 -0.3443  0.2212
  115MOL   H37843926   4.269   5.663   1.850 -1.0782  1.0951 -0.3176
  115MOL   H37943927   4.096   5.793   1.613 -0.1938  0.0307  1.6174
  115MOL   H38043928   4.178   5.942   1.566 -0.2715  1.3298  0.2981
  115MOL   H38143929   4.145   5.913   1.739 -0.7614  0.0399 -0.8629
  115MOL   H38243930   4.488   5.652   1.351  0.0726 -2.3127 -0.8238
  116MOL     C143931   1.404   7.293   7.411 -1.4214  0.1819 -0.3343
  116MOL     C243932   1.349   7.279   7.556 -0.0012 -0.2773  0.1704
  116MOL     O343933   1.223   7.210   7.566 -0.1733 -0.8694 -0.3630
  116MOL     C443934   1.113   7.262   7.494 -0.6651 -0.2565  0.0302
  116MOL     C543935   0.981   7.218   7.550  0.9465 -0.1961  0.8762
  116MOL     C643936   0.963   7.251   7.697 -0.2068 -0.2120  0.0634
  116MOL     C743937   0.960   7.061   7.531 -0.5210 -0.0449  0.2626
  116MOL     H843938   1.498   7.347   7.397 -1.2662 -0.2497 -0.9965
  116MOL     H943939   1.402   7.197   7.360  2.2519  0.1779 -0.6055
  116MOL    H1043940   1.316   7.375   7.596 -3.0201 -1.4058  0.5037
  116MOL    H1143941   1.143   7.236   7.392 -0.3477  1.2380 -0.2661
  116MOL    H1243942   1.120   7.369   7.513  2.4037 -0.3850 -0.0510
  116MOL    H1343943   0.902   7.272   7.497  0.9577 -1.3724 -0.3704
  116MOL    H1443944   0.986   7.357   7.708 -1.4739  0.2432 -1.3863
  116MOL    H1543945   0.862   7.222   7.727 -0.3835 -0.2579 -0.5669
  116MOL    H1643946   1.033   7.185   7.748  1.5194  0.2860 -1.5703
  116MOL    H1743947   0.937   7.041   7.427 -1.8750 -0.3529  0.6101
  116MOL    H1843948   1.045   6.996   7.554 -0.7470 -0.2140  0.6272
  116MOL    H1943949   0.873   7.021   7.584 -1.2670 -1.1403 -1.7480
  116MOL    H2043950   1.335   7.359   7.358  1.2858  1.2178 -2.7312
  116MOL    C2143951   1.455   7.219   7.655 -0.0182  0.3998  0.6132
  116MOL    C2243952   1.407   7.202   7.803 -0.1887 -0.3666 -0.0675
  116MOL    O2343953   1.484   7.092   0.039 -0.2361 -0.6141 -0.7896
  116MOL    C2443954   1.417   6.966   0.040  0.3154  0.1416 -0.0261
  116MOL    C2543955   1.526   6.870   0.102  0.1734  1.1287  1.0552
  116MOL    C2643956   1.459   6.734   0.135  0.6710  0.5302 -0.1426
  116MOL    C2743957   1.654   6.853   0.014 -0.1898  0.1917  0.1830
  116MOL    H2843958   1.480   7.124   7.608  3.7975  0.9079  1.5275
  116MOL    H2943959   1.551   7.267   7.639 -0.0530 -0.0240 -0.9526
  116MOL    H3043960   1.302   7.177   7.819 -0.1412 -0.7855 -0.3808
  116MOL    H3143961   1.380   6.934   7.767  1.6454  0.5126 -0.6678
  116MOL    H3243962   1.331   6.951   0.106 -1.4515  0.3619 -2.2392
  116MOL    H3343963   1.569   6.921   0.188  1.4279 -1.5910  2.0931
  116MOL    H3443964   1.366   6.740   0.193  0.4706  1.4809 -0.5435
  116MOL    H3543965   1.523   6.668   0.193 -0.5421 -0.5830 -0.0494
  116MOL    H3643966   1.437   6.676   0.046  0.8477 -0.2719  0.3391
  116MOL    H3743967   1.702   6.951   0.010  0.6089 -0.1574  0.9922
  116MOL    H3843968   1.722   6.786   0.065  0.4619  0.2219 -0.6285
  116MOL    H3943969   1.646   6.830   7.732  0.4196 -1.4221  0.4719
  116MOL    C4043970   1.436   7.330   0.060 -0.4598 -0.6224 -0.1402
  116MOL    C4143971   1.399   7.328   0.209  0.1819  0.7825  0.2544
  116MOL    O4243972   1.425   7.457   0.254  0.4750 -0.3552 -0.1526
  116MOL    C4343973   1.315   7.538   0.282 -0.9019  0.6824  0.2480
  116MOL    C4443974   1.358   7.676   0.320 -0.7660  0.1686 -0.1598
  116MOL    C4543975   1.426   7.739   0.202 -0.1823  0.1698 -0.5138
  116MOL    C4643976   1.238   7.765   0.362 -0.1060  0.0505  0.0836
  116MOL    H4743977   1.373   7.402   0.007 -0.6681 -0.5394  0.2151
  116MOL    H4843978   1.539   7.364   0.056 -0.5298 -0.3765  0.1264
  116MOL    H4943979   1.295   7.302   0.226  0.3369 -0.5625 -0.7754
  116MOL    H5043980   1.244   7.498   0.354 -0.1659 -0.3938  0.3932
  116MOL    H5143981   1.263   7.545   0.186 -0.5659  1.6311  0.1323
  116MOL    H5243982   1.434   7.679   0.399 -0.4126  0.0091 -0.4923
  116MOL    H5343983   1.350   7.763   0.127 -0.4188  1.3606  0.0923
  116MOL    H5443984   1.466   0.014   0.222 -1.0317  0.0907  1.6328
  116MOL    H5543985   1.497   7.670   0.155  1.3808  1.6251 -0.3587
  116MOL    H5643986   1.262   0.046   0.370  1.2427 -0.2726  0.3575
  116MOL    H5743987   1.206   7.738   0.463 -0.3392 -0.7660 -0.2008
  116MOL    H5843988   1.154   7.751   0.293 -0.4309  0.9290  0.2900
  116MOL    C5943989   1.468   7.234   0.315  0.0503 -0.5750 -0.7140
  116MOL    C6043990   1.379   7.226   0.443 -0.0153  0.9143  0.5733
  116MOL    O6143991   1.466   7.182   0.551 -0.1014 -0.6476  0.9086
  116MOL    C6243992   1.429   7.223   0.678 -0.3454  0.5109 -0.0590
  116MOL    C6343993   1.504   7.135   0.780  0.1944  0.5361  0.2983
  116MOL    C6443994   1.653   7.134   0.751 -0.1916 -0.0532 -0.3485
  116MOL    C6543995   1.480   7.189   0.928  0.1813  0.5018  0.0333
  116MOL    H6643996   1.565   7.277   0.341  0.7115 -2.6901  0.3551
  116MOL    H6743997   1.488   7.138   0.269 -1.0061 -0.9631 -0.3866
  116MOL    H6843998   1.332   7.321   0.470 -1.6319  0.3190 -0.0981
  116MOL    H6943999   1.465   7.325   0.681 -2.0147  1.1565 -1.2600
  116MOL    H7044000   1.322   7.221   0.698 -0.0938 -0.1497  1.2552
  116MOL    H7144001   1.457   7.037   0.774  0.0384  0.5911  0.5853
  116MOL    H7244002   1.670   7.121   0.644 -0.8112 -0.6424 -0.3761
  116MOL    H7344003   1.714   7.050   0.784  1.9694  0.4562 -2.8167
  116MOL    H7444004   1.705   7.230   0.762  1.1933 -0.8301  0.0673
  116MOL    H7544005   1.376   7.201   0.958 -0.4926 -0.8257 -1.6980
  116MOL    H7644006   1.516   7.114   0.999 -0.2097 -1.1352 -1.4611
  116MOL    H7744007   1.528   7.283   0.954  0.4127  0.7014 -1.1190
  116MOL    C7844008   1.273   7.110   0.408  0.1275  0.2111  0.3273
  116MOL    C7944009   1.123   7.161   0.410 -0.5711  0.4178 -0.1299
  116MOL    O8044010   1.030   7.056   0.368  0.1072 -0.6150  0.2370
  116MOL    C8144011   1.016   7.045   0.228  0.2583 -0.3073  0.2017
  116MOL    C8244012   0.916   6.940   0.199  0.2600 -0.1992  0.0272
  116MOL    C8344013   0.777   6.966   0.258  0.1890  0.7338 -0.1552
  116MOL    C8444014   0.966   6.800   0.247 -0.2634 -0.1488  0.8443
  116MOL    H8544015   1.283   7.031   0.482 -2.3664 -0.1485  0.3084
  116MOL    H8644016   1.296   7.068   0.310 -1.0517  0.1038  0.0825
  116MOL    H8744017   1.112   7.244   0.341 -2.1377  0.6956  0.4160
  116MOL    H8844018   0.971   7.134   0.184  0.6653 -0.8269 -1.2923
  116MOL    H8944019   1.109   7.020   0.178  0.3310  0.2733  0.0468
  116MOL    H9044020   0.896   6.935   0.092 -1.7690  1.1667  0.3178
  116MOL    H9144021   0.710   6.883   0.236  2.3511 -1.1045 -0.0188
  116MOL    H9244022   0.724   7.049   0.212 -0.6206  0.7001  0.6962
  116MOL    H9344023   0.781   6.984   0.366 -0.2044  2.4198 -0.4164
  116MOL    H9444024   1.066   6.778   0.209  0.4095  1.4479  1.6134
  116MOL    H9544025   0.896   6.724   0.213  1.5348 -1.2979 -0.3755
  116MOL    H9644026   0.978   6.783   0.354  1.0872  0.4353  0.8009
  116MOL    C9744027   1.076   7.213   0.547 -0.4137 -0.6489 -0.4473
  116MOL    C9844028   0.929   7.266   0.556  0.1603 -0.1941  0.6357
  116MOL    O9944029   0.929   7.378   0.472  0.1219  0.0017 -0.1741
  116MOL   C10044030   0.809   7.382   0.394 -0.0151  0.3252 -0.4315
  116MOL   C10144031   0.813   7.505   0.308  0.6554  0.4605 -0.3276
  116MOL   C10244032   0.830   7.630   0.397 -1.4271  0.4326 -0.3054
  116MOL   C10344033   0.929   7.510   0.199 -0.6665 -0.0204 -0.8223
  116MOL   H10444034   1.142   7.291   0.583  0.6767 -0.8961 -1.8618
  116MOL   H10544035   1.078   7.132   0.621 -1.6233 -0.5275 -0.2720
  116MOL   H10644036   0.872   7.179   0.524 -0.7152 -0.1393  2.0091
  116MOL   H10744037   0.715   7.380   0.451 -0.1316 -0.8904 -0.6496
  116MOL   H10844038   0.806   7.289   0.336  0.8527 -0.1777  0.3143
  116MOL   H10944039   0.716   7.519   0.259  0.1725 -0.1167  0.4448
  116MOL   H11044040   0.750   7.644   0.470 -0.8704 -1.4525  0.7074
  116MOL   H11144041   0.933   7.633   0.433 -0.5110 -2.0909 -2.5519
  116MOL   H11244042   0.823   7.707   0.321 -0.4084  0.4945 -0.3428
  116MOL   H11344043   0.909   7.424   0.135 -0.9802 -1.9713  1.8219
  116MOL   H11444044   0.925   7.603   0.142  1.1463 -0.0405 -1.0141
  116MOL   H11544045   1.026   7.493   0.245 -0.8469  1.3506  0.0905
  116MOL   C11644046   0.878   7.298   0.700  0.2045  0.3629 -0.2281
  116MOL   C11744047   0.938   7.436   0.765  0.4377 -0.8518 -0.5422
  116MOL   O11844048   0.837   7.497   0.847 -0.6907  0.3950 -0.4120
  116MOL   C11944049   0.743   7.569   0.770 -0.2123  0.2855 -0.1609
  116MOL   C12044050   0.642   7.632   0.866 -0.2640  0.1493 -0.4459
  116MOL   C12144051   0.544   7.532   0.924 -0.1894  0.0991 -0.5754
  116MOL   C12244052   0.716   7.711   0.971 -0.4825  0.1470 -0.0617
  116MOL   H12344053   0.771   7.314   0.683  0.5293  0.5354 -2.1682
  116MOL   H12444054   0.883   7.211   0.765 -2.3603 -1.0301 -1.8212
  116MOL   H12544055   0.967   7.504   0.684  1.1682  1.7100  1.7931
  116MOL   H12644056   0.692   7.514   0.691  0.2016 -0.3464  0.0051
  116MOL   H12744057   0.804   7.639   0.714 -0.9989 -0.2117 -1.6543
  116MOL   H12844058   0.582   7.704   0.809 -0.4150  0.5929  0.2664
  116MOL   H12944059   0.480   7.471   0.861 -1.3863 -0.1142  0.8327
  116MOL   H13044060   0.470   7.592   0.976 -0.4722  0.9015 -1.8791
  116MOL   H13144061   0.590   7.463   0.995  0.4638  0.0414 -1.0501
  116MOL   H13244062   0.746   7.637   1.045  1.2019 -0.4460 -1.3126
  116MOL   H13344063   0.807   7.759   0.933 -0.8492  0.9360  0.0311
  116MOL   H13444064   0.652   7.769   1.038 -1.6825 -0.9053 -0.2920
  116MOL   C13544065   1.059   7.418   0.859 -0.1362 -0.0038  0.6448
  116MOL   C13644066   1.140   7.547   0.885 -0.0565 -0.1947  0.4159
  116MOL   O13744067   1.199   7.524   1.010 -0.0211  0.0721 -0.0284
  116MOL   C13844068   1.128   7.581   1.118  0.1486 -0.2328 -0.0630
  116MOL   C13944069   1.171   7.526   1.255 -0.0647  0.6509 -0.2070
  116MOL   C14044070   1.109   7.382   1.268  0.0916 -0.3781  0.0058
  116MOL   C14144071   1.323   7.524   1.275  0.6345  0.2966 -0.7229
  116MOL   H14244072   1.025   7.379   0.955  0.0183 -1.4510  0.1297
  116MOL   H14344073   1.129   7.341   0.825  1.8279  0.9094  2.4871
  116MOL   H14444074   1.077   7.636   0.893 -0.8405 -0.8664  1.8502
  116MOL   H14544075   1.021   7.560   1.116  0.3461 -1.3248  0.5159
  116MOL   H14644076   1.142   7.689   1.121  0.4276 -0.2867  0.8271
  116MOL   H14744077   1.128   7.590   1.332 -1.1725 -1.1116  0.6667
  116MOL   H14844078   1.119   7.352   1.373  1.9553  0.9966  0.2577
  116MOL   H14944079   1.135   7.307   1.194  1.7266  0.3875 -0.2234
  116MOL   H15044080   1.002   7.383   1.253  0.2305  0.1937 -0.9900
  116MOL   H15144081   1.364   7.625   1.284 -1.0062  0.9989 -0.8671
  116MOL   H15244082   1.346   7.477   1.370  0.2536  0.6070 -0.4783
  116MOL   H15344083   1.374   7.481   1.189 -0.7449 -2.9449 -0.0023
  116MOL   C15444084   1.257   7.568   0.781  0.0821 -0.4829 -0.1107
  116MOL   C15544085   1.358   7.684   0.813 -0.4933 -0.7305 -0.0354
  116MOL   O15644086   1.458   7.648   0.723 -0.1478  0.3224  0.1610
  116MOL   C15744087   1.585   7.672   0.778 -0.6104 -0.4610  0.2791
  116MOL   C15844088   1.678   7.676   0.655 -0.1704  0.6616 -0.2386
  116MOL   C15944089   1.669   7.540   0.582  0.7129 -0.2236 -0.8326
  116MOL   C16044090   1.656   7.795   0.562  0.6957 -0.1896  1.1554
  116MOL   H16144091   1.217   7.591   0.682  2.0994 -1.3716 -1.1709
  116MOL   H16244092   1.308   7.478   0.745  0.6924 -0.0648 -0.2904
  116MOL   H16344093   1.376   7.695   0.920  1.5929  0.7706 -0.4921
  116MOL   H16444094   1.613   7.600   0.855  0.6632  0.7605  0.9680
  116MOL   H16544095   1.576   7.770   0.825 -0.4027 -0.8091  1.0541
  116MOL   H16644096   1.780   7.683   0.693  0.1387  1.1201 -1.1590
  116MOL   H16744097   1.581   7.536   0.518 -0.3873  2.9366  0.4072
  116MOL   H16844098   1.661   7.455   0.650  1.4419 -1.0550 -1.7685
  116MOL   H16944099   1.764   7.525   0.531  0.7957  0.0611 -0.7661
  116MOL   H17044100   1.661   0.056   0.630  0.1834 -0.3362  1.3793
  116MOL   H17144101   1.733   7.804   0.485  1.4923  0.1311  1.9922
  116MOL   H17244102   1.561   7.798   0.508  0.6028 -0.0312  1.3252
  116MOL   C17344103   1.288   7.823   0.770 -0.1752  0.5375  0.4016
  116MOL   C17444104   1.375   0.126   0.791 -0.5049  0.1183 -0.1418
  116MOL   O17544105   1.314   0.234   0.727  0.3059  0.2105 -0.9410
  116MOL   C17644106   1.405   0.279   0.621  0.2285  0.2935  0.3158
  116MOL   C17744107   1.342   0.393   0.550  0.2422  0.2749  0.1897
  116MOL   C17844108   1.332   0.517   0.639 -0.3254  0.0269  0.3007
  116MOL   C17944109   1.417   0.419   0.421 -0.2412  0.4725 -0.1653
  116MOL   H18044110   1.281   7.810   0.663 -2.3171 -3.9580  0.9892
  116MOL   H18144111   1.189   0.011   0.814 -0.0005  0.7494  0.7431
  116MOL   H18244112   1.471   0.099   0.747 -1.8990 -2.9257 -1.4539
  116MOL   H18344113   1.428   0.198   0.553 -1.4791 -0.7542  0.9559
  116MOL   H18444114   1.491   0.322   0.674  0.7812 -0.3021 -0.0855
  116MOL   H18544115   1.241   0.355   0.534  0.3570 -1.0779  2.5279
  116MOL   H18644116   1.281   0.601   0.591 -0.9502 -0.3229  0.3449
  116MOL   H18744117   1.281   0.495   0.733  1.3351  0.5639  1.3462
  116MOL   H18844118   1.429   0.550   0.676 -0.7830  0.9417  0.7180
  116MOL   H18944119   1.419   0.326   0.365  1.8045 -0.7341  1.8266
  116MOL   H19044120   1.518   0.456   0.442 -0.4855  0.3861  1.1766
  116MOL   H19144121   1.368   0.492   0.356  0.0843  1.1746  0.3666
  116MOL   C19244122   1.409   0.158   0.938 -0.4603  0.0327 -0.2419
  116MOL   C19344123   1.536   0.244   0.959  1.2889  0.2391  0.2519
  116MOL   O19444124   1.583   0.211   1.087 -0.5012  0.0984 -0.2893
  116MOL   C19544125   1.696   0.121   1.096  0.5726 -0.2879 -0.1539
  116MOL   C19644126   1.728   0.075   1.238  0.4805  0.4007 -0.8736
  116MOL   C19744127   1.602   7.824   1.300 -0.0712 -0.7061 -0.6794
  116MOL   C19844128   1.764   0.202   1.322 -0.5797 -0.2363  0.0959
  116MOL   H19944129   1.441   0.072   0.996  2.2037 -0.9994 -3.0942
  116MOL   H20044130   1.319   0.202   0.982 -0.8037  0.5692 -1.4520
  116MOL   H20144131   1.604   0.214   0.881 -1.2256 -0.5510 -1.7124
  116MOL   H20244132   1.787   0.169   1.058 -0.5851  0.3029 -2.2484
  116MOL   H20344133   1.665   0.037   1.034 -1.9616  1.3817 -1.1925
  116MOL   H20444134   1.806   7.824   1.231  0.1657  0.0251 -0.4261
  116MOL   H20544135   1.591   7.730   1.246  3.4869 -0.7764 -1.4257
  116MOL   H20644136   1.604   7.815   1.409 -1.3394 -0.7058 -0.6417
  116MOL   H20744137   1.509   0.054   1.283 -0.8990 -2.0482 -0.5335
  116MOL   H20844138   1.694   0.284   1.302 -0.2844  0.0193  0.1035
  116MOL   H20944139   1.774   0.177   1.428  1.8203 -0.4247 -0.1517
  116MOL   H21044140   1.861   0.242   1.295  0.3917 -2.2943  0.4899
  116MOL   C21144141   1.489   0.392   0.958 -0.0692 -0.6576  0.8459
  116MOL   C21244142   1.611   0.491   0.956  0.9513 -0.1363  0.1012
  116MOL   O21344143   1.691   0.479   0.837  0.5588 -0.2057  0.4575
  116MOL   C21444144   1.815   0.411   0.853  0.1942  0.3270  0.6727
  116MOL   C21544145   1.852   0.337   0.727 -0.4384 -0.7568  0.5332
  116MOL   C21644146   1.905   0.432   0.620 -0.3741 -0.1434 -0.1618
  116MOL   C21744147   1.948   0.227   0.766 -0.5055  0.1708 -0.1837
  116MOL   H21844148   1.426   0.406   1.045  1.1499 -0.8938  1.7739
  116MOL   H21944149   1.430   0.414   0.869  0.2818 -1.0767  0.5068
  116MOL   H22044150   1.666   0.479   1.050 -0.1396  1.9774  1.0468
  116MOL   H22144151   1.807   0.341   0.936 -1.2569 -0.4935 -0.1475
  116MOL   H22244152   1.896   0.479   0.879  0.8091  0.2187 -0.8992
  116MOL   H22344153   1.769   0.282   0.684  0.5171 -2.5147  0.9269
  116MOL   H22444154   1.818   0.480   0.574 -1.6857 -1.8127  0.5304
  116MOL   H22544155   1.976   0.508   0.655  0.3239 -0.9134  0.1018
  116MOL   H22644156   1.945   0.375   0.537 -1.0168 -2.8237  1.3194
  116MOL   H22744157   2.052   0.260   0.763 -1.0453  1.9724  0.3042
  116MOL   H22844158   1.953   0.147   0.692  0.6070  0.8035 -0.8135
  116MOL   H22944159   1.925   0.181   0.862  0.7403  0.0252  0.0533
  116MOL   C23044160   1.558   0.635   0.950 -0.7652  1.1377 -0.0765
  116MOL   C23144161   1.654   0.749   0.990  0.3178  0.3382  0.1856
  116MOL   O23244162   1.700   0.723   1.124 -0.1277  0.2774  0.7702
  116MOL   C23344163   1.628   0.778   1.235  0.4460 -0.0179  0.6588
  116MOL   C23444164   1.653   0.690   1.360  1.0314 -0.0721  0.0914
  116MOL   C23544165   1.552   0.573   1.353  0.5982 -1.0074 -0.1247
  116MOL   C23644166   1.795   0.644   1.375  0.2957 -0.3976  0.0573
  116MOL   H23744167   1.474   0.637   1.020 -0.8975 -1.2159 -0.1428
  116MOL   H23844168   1.520   0.661   0.851 -3.1187  1.6673  0.9146
  116MOL   H23944169   1.588   0.835   0.996 -1.0718 -0.7293  0.7052
  116MOL   H24044170   1.663   0.879   1.251 -2.9335  1.1984  0.8800
  116MOL   H24144171   1.525   0.786   1.201  0.1053 -1.3327  1.3329
  116MOL   H24244172   1.639   0.753   1.447  1.7469  1.9190 -1.2066
  116MOL   H24344173   1.593   0.488   1.408 -0.6162 -2.0643 -0.8122
  116MOL   H24444174   1.529   0.532   1.255 -0.4008  0.6424 -0.5993
  116MOL   H24544175   1.463   0.600   1.409  0.5269  0.9992 -1.1698
  116MOL   H24644176   1.805   0.574   1.459  1.6258  1.5481  1.5780
  116MOL   H24744177   1.814   0.579   1.289 -2.3190  0.9461 -1.5807
  116MOL   H24844178   1.865   0.726   1.390  0.2303 -0.6267  1.7541
  116MOL   C24944179   1.766   0.772   0.895 -0.1023 -0.3826  0.3901
  116MOL   C25044180   1.883   0.863   0.938  0.7103 -0.2735 -0.4863
  116MOL   O25144181   1.982   0.865   0.844 -0.0182  0.2581 -0.5767
  116MOL   C25244182   2.074   0.767   0.838  0.9380  0.1327  0.6677
  116MOL   C25344183   2.172   0.789   0.716 -0.3602 -0.0112 -0.3040
  116MOL   C25444184   2.268   0.666   0.697 -0.0734 -0.2192 -0.2836
  116MOL   C25544185   2.258   0.911   0.730  0.1594 -0.1973  0.0838
  116MOL   H25644186   1.725   0.821   0.807 -1.0790 -1.7636  0.0583
  116MOL   H25744187   1.805   0.671   0.879 -1.6338 -0.9984  0.4452
  116MOL   H25844188   1.927   0.813   1.023  0.1581  0.3407  0.1771
  116MOL   H25944189   2.126   0.742   0.930  0.6695  0.7801  1.0006
  116MOL   H26044190   2.020   0.674   0.819 -0.2318  0.5509  1.8740
  116MOL   H26144191   2.102   0.799   0.633  0.3694  0.8798 -0.8204
  116MOL   H26244192   2.327   0.644   0.785 -0.3700  3.1789  0.8461
  116MOL   H26344193   2.331   0.677   0.609 -2.0260 -3.7637 -2.2296
  116MOL   H26444194   2.206   0.579   0.675 -2.3252  1.2123  0.1756
  116MOL   H26544195   2.300   0.924   0.830 -2.0036 -2.2890  1.3083
  116MOL   H26644196   2.342   0.916   0.660  0.2294  2.3209  0.3131
  116MOL   H26744197   2.187   0.991   0.711 -0.2347 -0.4947  0.2979
  116MOL   C26844198   1.843   1.005   0.968  0.2208  0.0550 -0.7586
  116MOL   C26944199   1.920   1.084   1.070  0.0955 -0.3437  0.1640
  116MOL   O27044200   1.865   1.215   1.091  0.4632  0.7500  0.5215
  116MOL   C27144201   1.909   1.284   1.209 -0.3234 -0.2702 -0.3982
  116MOL   C27244202   1.840   1.420   1.210 -0.3187  0.4697 -0.0228
  116MOL   C27344203   1.905   1.504   1.324  0.0895 -0.3964 -0.2340
  116MOL   C27444204   1.861   1.493   1.075 -0.0413  0.2194 -0.5692
  116MOL   H27544205   1.740   1.017   0.999  0.2362 -1.7385  0.0397
  116MOL   H27644206   1.847   1.066   0.878 -0.4302 -0.1708 -0.9404
  116MOL   H27744207   1.895   1.030   1.161  1.5370 -0.4851  0.4817
  116MOL   H27844208   1.895   1.221   1.297 -0.1932  1.5887  0.9892
  116MOL   H27944209   2.017   1.299   1.201 -0.0485 -1.3270  1.1441
  116MOL   H28044210   1.732   1.409   1.222 -0.3509  1.4489  0.6110
  116MOL   H28144211   2.009   1.524   1.300 -0.2738  1.3375 -0.4302
  116MOL   H28244212   1.894   1.444   1.415 -0.8756 -1.3075 -0.9405
  116MOL   H28344213   1.853   1.599   1.337  0.9489  0.0337  0.0910
  116MOL   H28444214   1.833   1.598   1.081  0.7346  0.3858  0.0863
  116MOL   H28544215   1.809   1.449   0.989  0.5280  0.3416 -0.9794
  116MOL   H28644216   1.968   1.495   1.059 -0.2590  0.8364 -1.9990
  116MOL   C28744217   2.070   1.090   1.049 -0.1969 -0.0735  0.9090
  116MOL   C28844218   2.148   1.036   1.166 -0.2143  0.1087  0.2184
  116MOL   O28944219   2.287   1.064   1.138 -0.3340 -0.8452 -0.0880
  116MOL   C29044220   2.329   1.195   1.178  0.1647  0.6271  0.2661
  116MOL   C29144221   2.485   1.201   1.197 -0.0346  0.6082  0.3824
  116MOL   C29244222   2.527   1.345   1.238  0.4500  0.1105 -0.3829
  116MOL   C29344223   2.563   1.154   1.076  0.4214  0.5755  0.6274
  116MOL   H29444224   2.105   1.193   1.044  2.4094 -0.9752 -0.2172
  116MOL   H29544225   2.096   1.052   0.951 -1.5271  1.3085 -0.0048
  116MOL   H29644226   2.107   1.086   1.254 -2.0391  1.0514 -1.1320
  116MOL   H29744227   2.294   1.266   1.103 -0.8425  0.6068  0.7012
  116MOL   H29844228   2.278   1.235   1.266 -0.1777  1.2887 -0.2233
  116MOL   H29944229   2.518   1.148   1.286  0.3860 -1.0801 -0.7581
  116MOL   H30044230   2.485   1.370   1.336 -1.0583 -0.6849 -0.8251
  116MOL   H30144231   2.492   1.415   1.163 -0.8438 -0.2483 -0.1284
  116MOL   H30244232   2.634   1.349   1.259 -0.0486 -0.7840  2.6650
  116MOL   H30344233   2.507   1.174   0.985  1.6882  0.2618 -0.2358
  116MOL   H30444234   2.661   1.201   1.063  0.1805  0.8296 -0.3123
  116MOL   H30544235   2.572   1.046   1.088 -2.2424 -0.1208 -2.9887
  116MOL   C30644236   2.122   0.884   1.198 -0.4845  0.4809 -0.0857
  116MOL   C30744237   2.191   0.829   1.318  0.4140  0.9633 -0.5848
  116MOL   O30844238   2.139   0.877   1.443 -1.1713 -0.1789 -0.1101
  116MOL   C30944239   2.242   0.896   1.537  1.3194  0.3906 -0.3430
  116MOL   C31044240   2.169   0.930   1.671  0.1200  0.0927 -0.4197
  116MOL   C31144241   2.092   0.812   1.723 -0.4961 -0.0480  0.1013
  116MOL   C31244242   2.091   1.062   1.678 -0.0454  0.3261  0.1196
  116MOL   H31344243   2.159   0.833   1.109  1.2708  0.1135  0.8163
  116MOL   H31444244   2.016   0.867   1.212 -0.3003 -0.2815  0.3908
  116MOL   H31544245   2.291   0.869   1.300 -0.3906  2.1496 -2.6224
  116MOL   H31644246   2.316   0.972   1.512  2.4002 -0.4712  0.2047
  116MOL   H31744247   2.302   0.806   1.551 -0.0811 -0.8876 -2.3394
  116MOL   H31844248   2.248   0.944   1.745 -0.1557 -1.0169  0.0984
  116MOL   H31944249   2.084   0.805   1.831  2.3411 -2.5496  0.2115
  116MOL   H32044250   2.148   0.722   1.696  2.6980  0.5898  4.0686
  116MOL   H32144251   1.997   0.796   1.673 -0.1392 -0.4241 -0.4693
  116MOL   H32244252   1.996   1.059   1.624 -0.3587  2.9617  0.4447
  116MOL   H32344253   2.153   1.144   1.640 -0.3594 -0.5006 -2.2622
  116MOL   H32444254   2.068   1.090   1.781 -0.6665  0.6253 -0.0990
  116MOL   C32544255   2.198   0.671   1.317 -0.4205 -0.3779 -0.0898
  116MOL   C32644256   2.278   0.596   1.206  0.2314  0.3339 -0.2209
  116MOL   O32744257   2.415   0.602   1.242  0.5824  0.4286  0.1667
  116MOL   C32844258   2.503   0.672   1.155  0.3982  0.3636  0.1806
  116MOL   C32944259   2.629   0.701   1.224 -0.1985  0.1628  0.0144
  116MOL   C33044260   2.604   0.801   1.332  0.1251  0.5287 -0.1764
  116MOL   C33144261   2.692   0.575   1.285  0.0501 -0.7111 -0.6346
  116MOL   H33244262   2.094   0.646   1.300 -0.1566  0.2838 -2.8973
  116MOL   H33344263   2.232   0.637   1.415 -0.7659  0.1755  0.2271
  116MOL   H33444264   2.267   0.646   1.110  1.2747 -1.2583 -1.1935
  116MOL   H33544265   2.518   0.613   1.065  0.2335  0.0804  0.3373
  116MOL   H33644266   2.453   0.761   1.116  0.4032  0.3525  0.1493
  116MOL   H33744267   2.699   0.741   1.150 -2.4796  2.8748 -0.8069
  116MOL   H33844268   2.525   0.767   1.399  2.2731 -1.9256  1.1933
  116MOL   H33944269   2.688   0.833   1.393 -0.0124  3.1427 -1.2743
  116MOL   H34044270   2.570   0.897   1.291 -0.2610  0.0484 -0.9847
  116MOL   H34144271   2.714   0.506   1.202  0.3564 -0.1202 -1.0486
  116MOL   H34244272   2.788   0.595   1.333  0.5025 -4.3895  0.1792
  116MOL   H34344273   2.627   0.515   1.348 -1.2494 -1.0919 -2.3005
  116MOL   C34444274   2.219   0.453   1.186  0.2653 -0.3419  0.1774
  116MOL   C34544275   2.294   0.369   1.071 -0.3080  0.4884  0.0882
  116MOL   O34644276   2.228   0.246   1.052  0.5015  0.7287 -0.2768
  116MOL   C34744277   2.274   0.147   1.138  0.0758 -0.0191 -0.7310
  116MOL   C34844278   2.149   0.048   1.137 -0.0160 -0.7573 -0.4859
  116MOL   C34944279   2.136   7.757   1.242 -0.5106 -0.2409  0.2961
  116MOL   C35044280   2.137   7.804   1.001 -0.5857  0.3597  0.4540
  116MOL   H35144281   2.113   0.454   1.163  0.2624  0.3573  0.1931
  116MOL   H35244282   2.236   0.388   1.271  1.9999  0.1676  0.2458
  116MOL   H35344283   2.398   0.354   1.099  0.1937 -0.8594 -2.4002
  116MOL   H35444284   2.275   0.188   1.239 -0.9448  0.9758 -1.1109
  116MOL   H35544285   2.366   0.113   1.091 -0.9446 -1.4460 -1.7455
  116MOL   H35644286   2.061   0.106   1.167 -1.2856 -2.6415 -0.4366
  116MOL   H35744287   2.214   7.682   1.224  1.0674  0.4124  3.9125
  116MOL   H35844288   2.045   7.698   1.240 -1.9054  1.8608  1.0662
  116MOL   H35944289   2.143   7.794   1.344 -3.2278  2.6101 -0.5083
  116MOL   H36044290   2.033   7.776   0.979 -0.4155 -0.4028  0.5956
  116MOL   H36144291   2.168   0.041   0.917 -1.4765 -2.1273 -1.7729
  116MOL   H36244292   2.192   7.710   0.998  0.0270  0.7136  0.7665
  116MOL   C36344293   2.298   0.430   0.932 -0.8357 -0.4589 -0.1650
  116MOL   C36444294   2.383   0.355   0.831 -0.0849 -0.4358 -0.2398
  116MOL   O36544295   2.515   0.391   0.862 -0.1922  0.0829  0.2243
  116MOL   C36644296   2.622   0.344   0.788 -0.2280  0.8340  0.3476
  116MOL   C36744297   2.736   0.385   0.887 -0.1380 -0.8492  0.0535
  116MOL   C36844298   2.869   0.400   0.803 -0.2925  0.0273 -0.5955
  116MOL   C36944299   2.760   0.288   1.003 -0.1690  0.3011 -0.2809
  116MOL   H37044300   2.201   0.453   0.887 -0.4782  2.6916  0.5784
  116MOL   H37144301   2.343   0.529   0.944 -1.0888 -0.3626 -0.0077
  116MOL   H37244302   2.351   0.384   0.731 -1.8522  0.5322  0.5907
  116MOL   H37344303   2.626   0.240   0.757 -1.0907  0.4611  1.4177
  116MOL   H37444304   2.625   0.404   0.698 -0.0622 -0.4694 -0.5317
  116MOL   H37544305   2.719   0.487   0.921  0.2006  0.1894 -2.7316
  116MOL   H37644306   2.867   0.487   0.737 -0.2100 -0.1582 -0.8439
  116MOL   H37744307   2.891   0.319   0.733  1.5998 -1.0898  1.2553
  116MOL   H37844308   2.955   0.412   0.869 -0.6569 -1.5569  0.1888
  116MOL   H37944309   2.845   0.307   1.068  0.3369  1.3532 -1.2220
  116MOL   H38044310   2.758   0.180   0.990 -0.4256  0.3901 -1.0589
  116MOL   H38144311   2.674   0.296   1.069  0.0819 -2.0632  0.3673
  116MOL   H38244312   2.370   0.247   0.832  0.2495 -0.4802 -0.5216
  117MOL     C144313   3.722   6.883   5.767  0.3582 -0.4767 -0.2805
  117MOL     C244314   3.608   6.981   5.739  0.2715 -0.9563  0.1106
  117MOL     O344315   3.479   6.926   5.764  0.6734 -0.2378  0.4252
  117MOL     C444316   3.446   6.802   5.705  0.5209  0.7664  0.9426
  117MOL     C544317   3.429   6.814   5.550 -0.2384  0.0960  0.1568
  117MOL     C644318   3.330   6.925   5.512 -0.1428  0.4251  0.5661
  117MOL     C744319   3.391   6.678   5.487  0.0579  1.2067 -0.0834
  117MOL     H844320   3.816   6.934   5.748 -0.1459  1.0362  1.1467
  117MOL     H944321   3.734   6.854   5.872 -2.6517  0.4860  0.3881
  117MOL    H1044322   3.610   7.000   5.631 -0.8820 -1.2756  0.0202
  117MOL    H1144323   3.350   6.775   5.751  0.9962  1.1589  2.2045
  117MOL    H1244324   3.501   6.715   5.740  0.7530 -0.5373 -2.5491
  117MOL    H1344325   3.525   6.847   5.511  1.0159 -1.2424  2.0304
  117MOL    H1444326   3.229   6.886   5.499  0.2474 -0.8819  1.3607
  117MOL    H1544327   3.330   7.005   5.586 -0.5801  0.8083  0.1546
  117MOL    H1644328   3.366   6.968   5.419  1.5338  0.5302  1.2392
  117MOL    H1744329   3.469   6.604   5.502  0.5435  1.7829  0.2418
  117MOL    H1844330   3.303   6.625   5.523  1.1657  0.0853  1.0243
  117MOL    H1944331   3.379   6.695   5.380  2.6410  0.2172 -0.5618
  117MOL    H2044332   3.727   6.805   5.692  3.6713 -1.2910  0.7124
  117MOL    C2144333   3.637   7.115   5.810  0.3677 -0.4145  0.4711
  117MOL    C2244334   3.539   7.229   5.776  0.5638 -0.1207 -0.0447
  117MOL    O2344335   3.538   7.330   5.882 -0.3008  0.5258 -0.4774
  117MOL    C2444336   3.659   7.407   5.894 -0.0536  0.0108  0.1959
  117MOL    C2544337   3.654   7.504   6.010  0.0138 -0.8137  0.1486
  117MOL    C2644338   3.780   7.587   6.027  0.0601  0.6777 -0.0712
  117MOL    C2744339   3.523   7.591   6.015  0.1236 -0.6586 -0.8056
  117MOL    H2844340   3.634   7.096   5.918  1.2910  2.1763  0.9772
  117MOL    H2944341   3.737   7.143   5.777 -0.1253 -0.6976 -1.3185
  117MOL    H3044342   3.437   7.192   5.789  0.4575  0.1731 -0.0387
  117MOL    H3144343   3.654   7.477   5.811  1.2436 -0.0421  0.0546
  117MOL    H3244344   3.740   7.335   5.898 -0.5581 -0.5095  1.0626
  117MOL    H3344345   3.646   7.444   6.101 -0.2023 -1.0190 -0.0072
  117MOL    H3444346   3.777   7.648   6.117 -0.6697 -0.5417  0.7316
  117MOL    H3544347   3.795   7.652   5.940  0.9503  0.5551 -0.0083
  117MOL    H3644348   3.860   7.515   6.041  1.4971  1.3780 -3.9532
  117MOL    H3744349   3.440   7.522   6.028 -1.2562  0.6487 -2.3462
  117MOL    H3844350   3.525   7.665   6.096 -0.2079 -1.7664  0.2272
  117MOL    H3944351   3.510   7.650   5.924 -1.6018 -1.1957 -0.9327
  117MOL    C4044352   3.549   7.277   5.625 -0.3905  0.5767 -0.4184
  117MOL    C4144353   3.464   7.393   5.575 -0.7092 -0.2850  0.4177
  117MOL    O4244354   3.350   7.339   5.519 -0.0374  0.1616  0.2705
  117MOL    C4344355   3.227   7.415   5.511  0.5737 -0.2285  0.5796
  117MOL    C4444356   3.115   7.315   5.458  0.2115  0.0603 -0.1440
  117MOL    C4544357   3.175   7.228   5.344  0.5535  0.4825 -0.3638
  117MOL    C4644358   3.047   7.234   5.572 -0.1399 -0.3000 -0.5676
  117MOL    H4744359   3.538   7.194   5.555  0.4611 -0.6675  0.9181
  117MOL    H4844360   3.656   7.295   5.614 -0.4062  2.3097  1.8585
  117MOL    H4944361   3.447   7.455   5.663 -0.5743  1.0311 -0.4720
  117MOL    H5044362   3.236   7.496   5.438  0.5698 -0.1971  0.6134
  117MOL    H5144363   3.199   7.457   5.608  1.3832 -0.0032  0.7152
  117MOL    H5244364   3.034   7.366   5.407 -0.6289 -0.9384  0.1595
  117MOL    H5344365   3.096   7.172   5.294  1.3648 -0.2250 -0.8786
  117MOL    H5444366   3.229   7.284   5.268  0.0485  1.1564 -0.2291
  117MOL    H5544367   3.258   7.163   5.372 -0.6494  0.2113  2.7709
  117MOL    H5644368   2.954   7.186   5.541 -0.4681 -0.8685  1.2610
  117MOL    H5744369   3.029   7.289   5.664  3.2972  0.0847 -0.0833
  117MOL    H5844370   3.114   7.158   5.613  0.6285  1.0981  0.7936
  117MOL    C5944371   3.549   7.469   5.473 -0.2041  0.4286 -0.3975
  117MOL    C6044372   3.494   7.612   5.441 -0.1596 -0.5578 -0.3195
  117MOL    O6144373   3.599   7.671   5.368  0.7425 -0.0597  0.3323
  117MOL    C6244374   3.587   7.629   5.232  0.5176  0.9988  0.2176
  117MOL    C6344375   3.719   7.682   5.175  0.3709 -0.0781  0.2897
  117MOL    C6444376   3.843   7.604   5.222  0.1236  0.2058  0.3010
  117MOL    C6544377   3.709   7.681   5.024 -0.2600  0.2548 -0.5483
  117MOL    H6644378   3.552   7.411   5.381 -1.2045 -3.1712  1.7022
  117MOL    H6744379   3.652   7.478   5.509 -0.9028  0.7178  1.6110
  117MOL    H6844380   3.403   7.609   5.383  0.5187  0.0799 -1.4234
  117MOL    H6944381   3.583   7.523   5.206  0.5580  0.7182  1.3321
  117MOL    H7044382   3.498   7.683   5.198 -0.4521  0.3414  1.6418
  117MOL    H7144383   3.741   7.783   5.211  1.9249  0.4342 -1.9202
  117MOL    H7244384   3.934   7.638   5.174 -1.4297 -0.7722 -3.5007
  117MOL    H7344385   3.827   7.501   5.191  0.7771  0.7773 -2.0352
  117MOL    H7444386   3.852   7.616   5.330  0.3681 -1.7027  0.5154
  117MOL    H7544387   3.628   7.740   4.982  0.1547  0.0691 -1.6189
  117MOL    H7644388   3.806   7.710   4.984  0.4270  1.1006  1.6702
  117MOL    H7744389   3.693   7.578   4.991 -1.8008 -0.6662  2.8056
  117MOL    C7844390   3.467   7.709   5.566  0.0354  0.5132 -0.3499
  117MOL    C7944391   3.433   0.031   5.532  0.5360 -0.1796  0.5779
  117MOL    O8044392   3.289   0.034   5.501  0.1988  0.6847  0.0463
  117MOL    C8144393   3.253   0.070   5.366 -0.4746 -0.4445 -0.4044
  117MOL    C8244394   3.106   0.043   5.326  0.1357  0.3324  0.2326
  117MOL    C8344395   3.008   0.120   5.426  1.3661  0.0525  0.5658
  117MOL    C8444396   3.070   7.723   5.306  0.7654  0.1305  0.3754
  117MOL    H8544397   3.549   7.704   5.638 -2.1315  2.2721  2.3506
  117MOL    H8644398   3.387   7.664   5.625 -0.3226 -0.7103 -1.7384
  117MOL    H8744399   3.495   0.055   5.445  1.9128  0.1439  1.6257
  117MOL    H8844400   3.274   0.176   5.353  0.4122 -0.3422  1.7756
  117MOL    H8944401   3.323   0.008   5.310  0.1583  0.8595 -1.0857
  117MOL    H9044402   3.099   0.095   5.230  2.1263  1.0920  0.4730
  117MOL    H9144403   3.033   0.086   5.526  1.7203 -1.1363  0.0828
  117MOL    H9244404   2.904   0.093   5.407  0.8389  2.2519  0.2467
  117MOL    H9344405   3.018   0.228   5.413 -0.9453  0.1754 -0.3185
  117MOL    H9444406   3.101   7.664   5.392 -3.6319 -0.3947  1.7515
  117MOL    H9544407   3.107   7.663   5.222 -1.7365 -2.4401  1.0150
  117MOL    H9644408   2.963   7.726   5.283  1.2375  1.7762 -1.7952
  117MOL    C9744409   3.468   0.123   5.641  0.2985 -1.2825 -0.0874
  117MOL    C9844410   3.474   0.267   5.597  0.0883 -0.3888 -0.9564
  117MOL    O9944411   3.592   0.287   5.524 -0.2186  0.1161 -0.4735
  117MOL   C10044412   3.578   0.395   5.426 -0.3153  0.2769 -0.6375
  117MOL   C10144413   3.636   0.353   5.288 -0.0730 -0.2089 -0.1612
  117MOL   C10244414   3.789   0.341   5.283 -0.5152 -0.1350  0.4017
  117MOL   C10344415   3.563   0.234   5.215 -0.1551 -0.0858 -0.5481
  117MOL   H10444416   3.567   0.110   5.684  0.4221  1.4019  0.4826
  117MOL   H10544417   3.400   0.105   5.725  0.4182  0.8984  0.5040
  117MOL   H10644418   3.386   0.274   5.533  0.2373 -3.5892 -1.5704
  117MOL   H10744419   3.636   0.477   5.470  0.0146  0.7637 -1.9659
  117MOL   H10844420   3.477   0.434   5.415  0.9244  4.8789  2.3989
  117MOL   H10944421   3.610   0.440   5.228  1.0112 -0.7113 -1.3681
  117MOL   H11044422   3.826   0.257   5.342 -0.2454 -0.4090 -0.1524
  117MOL   H11144423   3.829   0.321   5.184  0.4619  1.8805  0.3635
  117MOL   H11244424   3.841   0.430   5.321 -0.3535 -0.6477  1.4124
  117MOL   H11344425   3.557   0.246   5.107  1.5778 -1.1745 -0.8066
  117MOL   H11444426   3.619   0.143   5.240 -0.3204 -0.0626 -0.0864
  117MOL   H11544427   3.461   0.234   5.252 -0.2581  1.1324 -0.8460
  117MOL   C11644428   3.462   0.362   5.723 -0.6469  0.2822 -0.7930
  117MOL   C11744429   3.318   0.386   5.774 -0.6506 -0.8751 -0.1624
  117MOL   O11844430   3.320   0.402   5.919  0.3558  0.0155 -0.1543
  117MOL   C11944431   3.265   0.283   5.977 -0.7730  0.1946  0.5778
  117MOL   C12044432   3.266   0.303   6.126 -0.2569  0.1699  0.4835
  117MOL   C12144433   3.183   0.429   6.163  0.4858 -0.4006 -0.2242
  117MOL   C12244434   3.212   0.190   6.207 -0.4850 -0.0628 -0.0796
  117MOL   H12344435   3.518   0.321   5.807 -0.5256  2.4305  0.2175
  117MOL   H12444436   3.514   0.456   5.703  2.2037 -0.9533  0.5598
  117MOL   H12544437   3.260   0.299   5.745  0.0032 -1.0071 -1.0889
  117MOL   H12644438   3.322   0.193   5.952 -1.8484 -0.7786  1.5190
  117MOL   H12744439   3.163   0.262   5.946 -1.2834  1.2861  1.4887
  117MOL   H12844440   3.370   0.326   6.153 -0.6541  0.6235  1.6411
  117MOL   H12944441   3.076   0.416   6.145 -0.0111  0.6915  1.8003
  117MOL   H13044442   3.223   0.513   6.107  3.0508 -1.2674  0.2271
  117MOL   H13144443   3.189   0.456   6.269  0.2085  0.2116 -0.3631
  117MOL   H13244444   3.112   0.169   6.169 -0.9181  1.7737  0.0096
  117MOL   H13344445   3.272   0.099   6.196 -1.7781 -0.8094 -1.0590
  117MOL   H13444446   3.190   0.216   6.310 -2.7932 -0.5221 -0.4258
  117MOL   C13544447   3.246   0.502   5.694 -0.1960  0.8289  0.3878
  117MOL   C13644448   3.095   0.514   5.724 -0.4265  0.0047  0.3203
  117MOL   O13744449   3.052   0.646   5.701 -0.1773 -0.0831 -0.3560
  117MOL   C13844450   3.089   0.744   5.806  0.1449  0.1611 -0.1624
  117MOL   C13944451   3.075   0.893   5.770  0.3926  0.5167  0.6602
  117MOL   C14044452   2.932   0.939   5.731 -0.3104 -0.2482 -0.5787
  117MOL   C14144453   3.135   0.977   5.883 -0.1288  0.0138  0.1439
  117MOL   H14244454   3.300   0.591   5.726  0.3162  1.2830 -1.6677
  117MOL   H14344455   3.270   0.495   5.588  1.7622  0.6311  0.8215
  117MOL   H14444456   3.069   0.489   5.827  1.0908 -0.6161  0.5624
  117MOL   H14544457   3.197   0.738   5.819  0.4102  1.8492 -1.4072
  117MOL   H14644458   3.027   0.710   5.889 -0.0389  0.4407 -0.1847
  117MOL   H14744459   3.141   0.901   5.683  0.1420 -2.1959  0.1891
  117MOL   H14844460   2.886   0.862   5.669 -0.8880 -1.7807  1.6837
  117MOL   H14944461   2.945   1.029   5.672 -0.8858  0.5700  0.5338
  117MOL   H15044462   2.867   0.956   5.817 -0.5794 -2.9458 -0.1873
  117MOL   H15144463   3.131   1.083   5.855 -0.8945  0.6590  2.5430
  117MOL   H15244464   3.080   0.974   5.977  1.2376 -1.5812  0.9199
  117MOL   H15344465   3.240   0.957   5.904 -0.2383  1.0085  1.7578
  117MOL   C15444466   3.014   0.416   5.638  0.8884 -0.1297 -0.3633
  117MOL   C15544467   2.856   0.410   5.666 -0.6493 -0.2136  0.2828
  117MOL   O15644468   2.806   0.357   5.542 -0.2690 -0.2276 -0.0379
  117MOL   C15744469   2.762   0.442   5.442  0.6876  0.2195  1.1789
  117MOL   C15844470   2.718   0.352   5.326  0.3404  0.5022  0.4674
  117MOL   C15944471   2.596   0.275   5.369  0.2107 -0.4526 -0.4223
  117MOL   C16044472   2.684   0.440   5.205  0.2951 -0.4535  0.8320
  117MOL   H16144473   3.053   0.317   5.659 -0.3462 -0.5242  0.0948
  117MOL   H16244474   3.023   0.435   5.531  3.7728 -3.2296 -0.7653
  117MOL   H16344475   2.814   0.507   5.692  2.7046  1.4985 -0.3515
  117MOL   H16444476   2.843   0.511   5.419 -0.0871 -0.0312 -2.6488
  117MOL   H16544477   2.693   0.506   5.498  1.3051  1.9105  0.0292
  117MOL   H16644478   2.796   0.281   5.298 -1.5878 -0.4886 -2.6043
  117MOL   H16744479   2.544   0.221   5.289  0.8557  2.2378 -2.7067
  117MOL   H16844480   2.519   0.335   5.418 -0.4638 -0.4981 -1.4249
  117MOL   H16944481   2.621   0.198   5.443  0.3957  1.8382  1.9945
  117MOL   H17044482   2.611   0.508   5.248  1.3734  1.5859 -0.4825
  117MOL   H17144483   2.776   0.487   5.169 -0.6475  0.5556 -0.3049
  117MOL   H17244484   2.628   0.385   5.130  0.7592 -1.6428  1.3470
  117MOL   C17344485   2.828   0.309   5.781 -0.1115  0.3506  0.1844
  117MOL   C17444486   2.691   0.325   5.842 -0.2546  0.4321  0.8458
  117MOL   O17544487   2.685   0.464   5.881 -0.5985  0.7169 -0.0378
  117MOL   C17644488   2.598   0.513   5.982  0.3673 -0.1374  0.0690
  117MOL   C17744489   2.677   0.631   6.060  0.3554  0.6739  0.0061
  117MOL   C17844490   2.829   0.598   6.076  0.4098 -0.1046 -0.3385
  117MOL   C17944491   2.662   0.768   5.987  0.1475  0.4020 -0.0205
  117MOL   H18044492   2.841   0.208   5.743 -1.5707 -0.5334  1.9780
  117MOL   H18144493   2.898   0.340   5.858  0.5978  0.4962 -0.5118
  117MOL   H18244494   2.682   0.269   5.935  2.2256 -1.2085  0.1200
  117MOL   H18344495   2.566   0.431   6.045  0.4073 -0.5437 -0.4358
  117MOL   H18444496   2.506   0.545   5.934  1.0053  2.3138  0.3766
  117MOL   H18544497   2.622   0.639   6.153 -1.8437  0.6170 -1.2652
  117MOL   H18644498   2.854   0.512   6.139 -1.7532 -1.7720 -1.7176
  117MOL   H18744499   2.876   0.568   5.982  1.2857 -0.6538  0.2611
  117MOL   H18844500   2.889   0.679   6.119 -0.1035  1.1321 -1.9468
  117MOL   H18944501   2.690   0.752   5.883 -2.0361 -0.6598 -0.4718
  117MOL   H19044502   2.712   0.852   6.035  1.7629  0.0481 -1.0470
  117MOL   H19144503   2.557   0.788   5.967  0.0509  0.3162  0.4002
  117MOL   C19244504   2.568   0.286   5.752 -0.4009 -0.0363 -0.0137
  117MOL   C19344505   2.435   0.251   5.806 -0.0574  0.5983  0.5251
  117MOL   O19444506   2.432   0.110   5.823 -1.0126  0.3807  0.1291
  117MOL   C19544507   2.474   0.063   5.953  0.7310  0.1441  0.0630
  117MOL   C19644508   2.463   7.738   5.951 -0.3966 -0.2577 -0.0631
  117MOL   C19744509   2.546   7.667   6.061  0.3157 -0.0452 -0.2540
  117MOL   C19844510   2.493   7.671   5.816  0.1453 -0.2821 -0.1127
  117MOL   H19944511   2.590   0.196   5.694 -1.7057 -0.1699 -0.3022
  117MOL   H20044512   2.550   0.369   5.684 -0.1483 -1.5386 -1.9656
  117MOL   H20144513   2.414   0.305   5.898 -1.2614  0.8793  0.1086
  117MOL   H20244514   2.411   0.108   6.030 -1.9530 -2.4398 -0.5081
  117MOL   H20344515   2.576   0.096   5.971  0.3447  2.5736 -1.9851
  117MOL   H20444516   2.359   7.710   5.968 -0.5001  1.7874  2.9210
  117MOL   H20544517   2.504   7.672   6.161  2.2860  0.8376  0.5378
  117MOL   H20644518   2.563   7.563   6.034  0.8657  0.3925 -1.6750
  117MOL   H20744519   2.643   7.715   6.069  0.4777 -0.2814 -0.7870
  117MOL   H20844520   2.580   7.712   5.765 -0.3711  2.3025  0.9838
  117MOL   H20944521   2.512   7.565   5.833  1.9650  0.0865  0.2492
  117MOL   H21044522   2.412   7.673   5.743  0.0382  0.7502  0.0256
  117MOL   C21144523   2.327   0.300   5.703  0.8192  0.0454  0.9882
  117MOL   C21244524   2.180   0.261   5.747 -0.2080 -0.6338 -0.4847
  117MOL   O21344525   2.085   0.340   5.675  0.0651 -0.3230 -0.1578
  117MOL   C21444526   2.067   0.470   5.719  0.5313 -0.5715 -0.0370
  117MOL   C21544527   1.988   0.564   5.624  0.0096  0.0779  0.0827
  117MOL   C21644528   1.859   0.509   5.564  0.1410 -0.4048  0.3739
  117MOL   C21744529   1.968   0.703   5.686  0.1790 -0.1000  0.2480
  117MOL   H21844530   2.339   0.252   5.606 -1.9721  0.7789  0.2533
  117MOL   H21944531   2.335   0.408   5.692 -1.2846  0.0748 -0.4385
  117MOL   H22044532   2.172   0.290   5.852 -0.5511 -1.0162 -0.4070
  117MOL   H22144533   2.154   0.519   5.763 -0.2283 -1.0168  1.9855
  117MOL   H22244534   1.999   0.454   5.802  0.0539 -0.5576 -0.4175
  117MOL   H22344535   2.048   0.590   5.537  0.7822  2.5700  1.3127
  117MOL   H22444536   1.796   0.455   5.636 -1.0158 -2.0077 -1.7792
  117MOL   H22544537   1.796   0.583   5.516  0.3054 -1.9835 -2.3410
  117MOL   H22644538   1.883   0.437   5.485  0.3271  0.3134 -0.2243
  117MOL   H22744539   1.908   0.707   5.777  0.0970  0.4363  0.1741
  117MOL   H22844540   1.927   0.773   5.612  0.1591 -1.5991 -1.2029
  117MOL   H22944541   2.068   0.739   5.710  0.4105  0.6627 -1.7442
  117MOL   C23044542   2.137   0.112   5.728 -0.7280 -0.5148  0.2211
  117MOL   C23144543   2.011   0.065   5.789  0.4135  0.0673 -0.1152
  117MOL   O23244544   2.007   0.100   5.926  0.0500 -0.0447 -0.0957
  117MOL   C23344545   2.101   0.046   6.015  0.0591 -0.3809 -0.1315
  117MOL   C23444546   2.036   0.026   6.151  0.4441  0.1876 -0.6367
  117MOL   C23544547   1.951   7.724   6.161 -0.0754 -1.2763 -0.3504
  117MOL   C23644548   2.135   0.020   6.268  0.3840 -0.4175 -0.4692
  117MOL   H23744549   2.211   0.053   5.783 -0.5309  0.8462  1.4561
  117MOL   H23844550   2.139   0.089   5.622  1.6493  0.4150  0.0356
  117MOL   H23944551   2.012   7.781   5.786 -4.2156 -0.0050 -3.6771
  117MOL   H24044552   2.154   7.780   5.985 -0.0938 -0.8032  0.8671
  117MOL   H24144553   2.179   0.121   6.023 -0.1956 -0.1622  0.3322
  117MOL   H24244554   1.960   0.104   6.149 -0.5640 -0.8074 -2.4941
  117MOL   H24344555   1.880   7.709   6.080  1.4784 -2.2853 -1.5474
  117MOL   H24444556   1.905   7.715   6.260  1.5365  0.3755  0.5839
  117MOL   H24544557   2.013   7.635   6.157  2.0829  0.1514  0.6091
  117MOL   H24644558   2.182   0.113   6.298 -1.9661  0.0733  1.8060
  117MOL   H24744559   2.094   7.790   6.353  1.2844 -1.0263 -0.4141
  117MOL   H24844560   2.207   7.768   6.240  0.2522 -0.2841 -1.1900
  117MOL   C24944561   1.886   0.119   5.715  0.4522 -0.1782  0.2211
  117MOL   C25044562   1.872   0.046   5.569 -0.3601 -0.2936 -0.7150
  117MOL   O25144563   1.744   7.813   5.560 -0.2453 -0.1445  0.3099
  117MOL   C25244564   1.749   7.675   5.609  0.5064 -0.3177  0.1631
  117MOL   C25344565   1.600   7.627   5.593  0.6900  0.3377 -0.4277
  117MOL   C25444566   1.519   7.714   5.686  0.2140  0.4410  0.4107
  117MOL   C25544567   1.578   7.485   5.635 -0.4482 -0.2134  0.1725
  117MOL   H25644568   1.880   0.228   5.716 -1.1620 -0.2520 -0.5207
  117MOL   H25744569   1.807   0.082   5.780 -1.4236  0.3247 -1.7191
  117MOL   H25844570   1.941   7.787   5.559  1.0444  0.4690  2.1345
  117MOL   H25944571   1.789   7.601   5.539  2.0562  0.8041 -0.1863
  117MOL   H26044572   1.792   7.654   5.706 -0.2604  0.3247  0.6468
  117MOL   H26144573   1.565   7.640   5.490  0.0719 -1.4778 -0.4659
  117MOL   H26244574   1.520   7.818   5.654  1.0791  0.5749  0.8625
  117MOL   H26344575   1.562   7.725   5.786 -1.9946 -0.6241  1.5361
  117MOL   H26444576   1.414   7.685   5.684 -0.0357  1.2115  1.4760
  117MOL   H26544577   1.640   7.421   5.573  0.9522  0.5975  0.7117
  117MOL   H26644578   1.618   7.470   5.735 -0.3906 -1.2759 -0.0048
  117MOL   H26744579   1.473   7.456   5.637 -0.1406 -1.2825  2.2343
  117MOL   C26844580   1.882   0.138   5.446  0.4402  0.6161 -0.3667
  117MOL   C26944581   1.901   0.064   5.313  0.0682  0.2407 -0.1884
  117MOL   O27044582   2.039   0.037   5.291 -0.4332 -0.8711 -0.3317
  117MOL   C27144583   2.081   7.723   5.318 -0.0002 -0.3888 -0.3394
  117MOL   C27244584   2.233   7.713   5.304 -0.3447 -0.2267  0.6378
  117MOL   C27344585   2.310   7.814   5.397  0.5570  0.0047 -0.8332
  117MOL   C27444586   2.289   7.569   5.312  0.0436 -0.8672  0.2407
  117MOL   H27544587   1.961   0.211   5.460  0.1694  0.6569  1.0380
  117MOL   H27644588   1.790   0.198   5.449  0.2179  0.2218  1.0477
  117MOL   H27744589   1.855   7.791   5.328  0.2788  0.4679  2.1291
  117MOL   H27844590   2.049   7.693   5.418  0.5745  0.2803  0.0493
  117MOL   H27944591   2.028   7.662   5.245  1.1296 -0.0713 -1.4360
  117MOL   H28044592   2.242   7.745   5.200 -1.9404  0.0368  0.5700
  117MOL   H28144593   2.418   7.824   5.393  0.5446  0.0767 -0.9891
  117MOL   H28244594   2.293   7.788   5.502  2.3798  4.3020  0.6053
  117MOL   H28344595   2.272   0.091   5.389 -2.0435 -0.9570 -1.0488
  117MOL   H28444596   2.215   7.501   5.270 -0.0035 -0.4950 -0.2928
  117MOL   H28544597   2.292   7.539   5.417 -1.4636  0.2394  0.6059
  117MOL   H28644598   2.388   7.561   5.265 -1.3002  0.0347 -2.9065
  117MOL   C28744599   1.852   0.130   5.185 -0.7073 -0.4298  0.2663
  117MOL   C28844600   1.703   0.164   5.189 -0.6445 -0.4310 -0.0159
  117MOL   O28944601   1.631   0.044   5.210  0.1616 -0.0864 -0.5169
  117MOL   C29044602   1.506   0.056   5.285 -0.0577  0.0553  0.5784
  117MOL   C29144603   1.421   7.759   5.259 -0.1312  0.7406  0.6132
  117MOL   C29244604   1.395   7.737   5.113  0.5805 -0.1389  0.6809
  117MOL   C29344605   1.286   7.769   5.335  0.2219  0.4479 -0.4010
  117MOL   H29444606   1.875   0.062   5.103 -1.1040 -0.0266 -0.1853
  117MOL   H29544607   1.914   0.217   5.164  1.6027 -2.2626 -0.6618
  117MOL   H29644608   1.680   0.231   5.271 -1.8231 -2.0203  0.9839
  117MOL   H29744609   1.518   0.059   5.393  0.3688  0.3813  0.5224
  117MOL   H29844610   1.452   0.145   5.252  0.5431  0.1665 -0.1176
  117MOL   H29944611   1.467   7.666   5.293 -0.9160  0.2403  0.3108
  117MOL   H30044612   1.368   7.631   5.107  0.1191 -0.0321  0.8357
  117MOL   H30144613   1.478   7.753   5.045 -1.1909  1.2459 -1.2246
  117MOL   H30244614   1.318   7.800   5.069  0.8161  0.3911  1.0201
  117MOL   H30344615   1.243   0.041   5.308  0.4170  0.7409  0.3308
  117MOL   H30444616   1.214   7.694   5.303 -0.9831  1.4664 -0.0986
  117MOL   H30544617   1.285   7.774   5.444  0.1566 -0.3709 -0.3617
  117MOL   C30644618   1.661   0.227   5.053 -0.1517 -0.0318 -0.4539
  117MOL   C30744619   1.708   0.371   5.026 -0.4115 -0.4092 -0.6323
  117MOL   O30844620   1.777   0.384   4.900 -0.3200 -0.1634 -0.1454
  117MOL   C30944621   1.920   0.352   4.899 -0.2079  0.1749  0.0945
  117MOL   C31044622   1.990   0.357   4.756  0.4212 -0.4884  0.0736
  117MOL   C31144623   1.973   0.498   4.689 -0.1254  0.8473 -0.4806
  117MOL   C31244624   1.931   0.246   4.676 -0.1506  0.4111  0.3411
  117MOL   H31344625   1.552   0.225   5.052 -0.1557 -0.4286  0.6345
  117MOL   H31444626   1.692   0.172   4.964  1.5131 -1.9875  1.2783
  117MOL   H31544627   1.782   0.398   5.101  0.5457 -1.6782 -1.1104
  117MOL   H31644628   1.945   0.255   4.943  0.3360  0.6785  0.9166
  117MOL   H31744629   1.971   0.429   4.957 -1.3807  1.2678 -0.3075
  117MOL   H31844630   2.093   0.322   4.766  0.9113 -0.3381 -3.5895
  117MOL   H31944631   1.870   0.529   4.672  0.1755  1.2089 -1.7680
  117MOL   H32044632   2.028   0.486   4.595  0.7072  0.0114  0.1062
  117MOL   H32144633   2.037   0.563   4.749  0.6427  0.9572 -1.3993
  117MOL   H32244634   1.939   0.154   4.733 -0.1168 -0.7278 -1.4826
  117MOL   H32344635   2.005   0.229   4.598  0.1785 -1.5432  1.0427
  117MOL   H32444636   1.827   0.253   4.645 -0.2859 -1.9763  0.1802
  117MOL   C32544637   1.593   0.470   5.012 -0.0209  0.2879 -0.3875
  117MOL   C32644638   1.624   0.617   4.972 -0.2156 -0.0233 -0.0879
  117MOL   O32744639   1.508   0.701   4.949  0.8447  0.1523 -0.6989
  117MOL   C32844640   1.443   0.675   4.826  0.1651 -0.0457 -0.0452
  117MOL   C32944641   1.321   0.765   4.814  0.1468 -0.3301 -0.1408
  117MOL   C33044642   1.205   0.723   4.903 -0.5075  0.4910 -0.1069
  117MOL   C33144643   1.358   0.911   4.842 -0.1746 -0.9930  1.0014
  117MOL   H33244644   1.542   0.470   5.108 -0.9714  0.3739 -0.8848
  117MOL   H33344645   1.527   0.421   4.940 -0.2386 -1.5136  0.9961
  117MOL   H33444646   1.692   0.613   4.887 -2.0706  1.4812 -1.7005
  117MOL   H33544647   1.513   0.701   4.747  0.7199  1.6259  0.9823
  117MOL   H33644648   1.417   0.570   4.810 -0.9939  0.0018  1.4663
  117MOL   H33744649   1.289   0.757   4.710  0.9439 -0.0618 -0.4121
  117MOL   H33844650   1.145   0.802   4.946  0.5036  0.5828  1.1670
  117MOL   H33944651   1.133   0.657   4.854  1.2151 -0.7706 -1.0099
  117MOL   H34044652   1.243   0.671   4.991 -1.9670 -0.8404 -0.2374
  117MOL   H34144653   1.452   0.954   4.808  0.1510 -1.1849  1.6653
  117MOL   H34244654   1.286   0.977   4.793 -0.5392 -1.2239  1.2221
  117MOL   H34344655   1.365   0.927   4.949  0.7077  1.2549  0.6382
  117MOL   C34444656   1.714   0.696   5.074 -0.9925 -0.2220  0.0334
  117MOL   C34544657   1.790   0.816   5.020  0.5515  0.1155  0.1146
  117MOL   O34644658   1.845   0.886   5.134 -0.2947 -0.1555  0.3409
  117MOL   C34744659   1.777   1.006   5.171 -0.2546 -0.2789  0.3244
  117MOL   C34844660   1.821   1.049   5.316  0.3776  0.0738 -0.0603
  117MOL   C34944661   1.973   1.053   5.330  0.2035  0.1493  0.2086
  117MOL   C35044662   1.746   0.967   5.422  0.4400 -0.2304 -0.6787
  117MOL   H35144663   1.783   0.629   5.125 -1.1281  0.6029  1.3025
  117MOL   H35244664   1.655   0.735   5.156 -0.8785 -0.5696  0.2800
  117MOL   H35344665   1.717   0.878   4.967  0.7697 -1.5864 -2.2689
  117MOL   H35444666   1.670   0.992   5.186 -0.4798  0.2027 -0.7767
  117MOL   H35544667   1.791   1.086   5.098  1.1533 -1.9538 -1.2765
  117MOL   H35644668   1.782   1.149   5.333 -1.1597 -0.6559  0.8359
  117MOL   H35744669   2.007   1.094   5.425  0.1962  0.5208  0.0528
  117MOL   H35844670   2.029   1.109   5.254 -1.2444  0.0257 -0.9770
  117MOL   H35944671   2.011   0.952   5.319 -1.8686 -0.3935 -2.8038
  117MOL   H36044672   1.768   1.005   5.521  0.5790 -3.1263  0.4346
  117MOL   H36144673   1.638   0.981   5.413  0.1594 -2.0450 -0.3265
  117MOL   H36244674   1.764   0.860   5.412  1.4712 -0.1781  0.6335
  117MOL   C36344675   1.914   0.779   4.933 -0.0747 -0.6702 -0.1060
  117MOL   C36444676   1.991   0.903   4.893  0.1841 -0.2686 -0.0227
  117MOL   O36544677   1.927   0.964   4.781  0.1535 -0.0770  0.6426
  117MOL   C36644678   1.977   1.085   4.731 -0.0317 -0.3283  0.2597
  117MOL   C36744679   1.939   1.103   4.583  0.6561 -0.2988 -0.1665
  117MOL   C36844680   1.982   0.985   4.496 -0.8295  0.1197  0.0972
  117MOL   C36944681   1.992   1.238   4.513 -0.0425 -0.2097  0.2279
  117MOL   H37044682   1.979   0.714   4.993  1.2901  1.9964  1.4249
  117MOL   H37144683   1.890   0.725   4.842  1.2799  0.3502 -1.0915
  117MOL   H37244684   2.092   0.875   4.862  0.5482  1.8720 -0.9011
  117MOL   H37344685   1.942   1.170   4.790  0.7013 -0.5555  1.0333
  117MOL   H37444686   2.084   1.076   4.745 -0.0795 -0.7222  0.3579
  117MOL   H37544687   1.830   1.102   4.585  0.6667  0.5285  1.5154
  117MOL   H37644688   1.960   0.988   4.389  0.9801  2.8641 -0.2528
  117MOL   H37744689   1.935   0.898   4.542 -0.2418 -1.3499 -1.9840
  117MOL   H37844690   2.089   0.966   4.502 -0.3118  1.9392 -2.4593
  117MOL   H37944691   2.099   1.258   4.522 -0.2033  0.8724 -0.2205
  117MOL   H38044692   1.935   1.325   4.543 -0.2076 -0.0987 -0.3945
  117MOL   H38144693   1.971   1.219   4.408  0.1032 -0.2498  0.2056
  117MOL   H38244694   2.007   0.973   4.976  0.1688 -1.6041  1.1107
  118MOL     C144695   6.630   6.096   4.825  0.5570  0.3395  0.3889
  118MOL     C244696   6.678   5.959   4.882 -0.0283 -0.2713 -0.6046
  118MOL     O344697   6.778   5.979   4.980 -0.7988  0.3193 -0.0272
  118MOL     C444698   6.911   5.950   4.934  0.5927 -0.1188  0.4209
  118MOL     C544699   7.025   5.976   5.033 -0.5782 -0.4440  0.1786
  118MOL     C644700   7.002   5.874   5.154  0.2159 -0.3018 -0.4215
  118MOL     C744701   7.009   6.123   5.079 -0.1989  0.1988 -0.1309
  118MOL     H844702   6.589   6.167   4.896 -0.1964 -0.8711  1.1759
  118MOL     H944703   6.712   6.156   4.784  0.4963 -0.3440 -0.7576
  118MOL    H1044704   6.709   5.909   4.790  0.2332  1.7152 -1.6094
  118MOL    H1144705   6.927   6.006   4.842  1.4138 -2.7665 -1.1036
  118MOL    H1244706   6.916   5.847   4.897 -1.4114 -0.2200  0.3876
  118MOL    H1344707   7.120   5.969   4.981  0.2938 -1.5297  1.8714
  118MOL    H1444708   6.997   5.771   5.118  0.9859 -0.7524  0.7267
  118MOL    H1544709   7.091   5.876   5.216 -0.1128 -1.4819  0.1097
  118MOL    H1644710   6.914   5.897   5.214 -0.6575 -0.6520 -1.5522
  118MOL    H1744711   6.906   6.148   5.106 -0.0165  0.3968  0.3946
  118MOL    H1844712   7.070   6.158   5.162  0.2348 -1.3864  0.2291
  118MOL    H1944713   7.037   6.198   5.005  0.2939 -1.9923 -2.2123
  118MOL    H2044714   6.561   6.068   4.745  0.9730  0.8274 -0.1423
  118MOL    C2144715   6.565   5.877   4.943 -0.2300  0.1325 -0.1366
  118MOL    C2244716   6.603   5.730   4.952 -0.1900  0.6027  0.0455
  118MOL    O2344717   6.581   5.677   5.076  0.1045  0.5507 -0.1170
  118MOL    C2444718   6.670   5.709   5.181 -0.6635 -0.8905 -0.3158
  118MOL    C2544719   6.631   5.629   5.313 -0.5553  0.3609  0.3693
  118MOL    C2644720   6.531   5.716   5.387 -0.4211 -0.3891 -0.1781
  118MOL    C2744721   6.568   5.485   5.290 -0.7119 -0.2680 -0.2514
  118MOL    H2844722   6.549   5.905   5.047 -1.0483 -0.4123 -0.1109
  118MOL    H2944723   6.463   5.889   4.907 -0.4901  0.1201  0.5872
  118MOL    H3044724   6.710   5.714   4.940 -0.6516 -1.4679 -1.4430
  118MOL    H3144725   6.683   5.816   5.197  1.2687 -0.9687 -1.2900
  118MOL    H3244726   6.770   5.680   5.149 -0.6947 -0.4000 -0.8565
  118MOL    H3344727   6.721   5.615   5.373 -1.3071  0.6665  1.5743
  118MOL    H3444728   6.481   5.672   5.474  0.6675  0.1785  0.7462
  118MOL    H3544729   6.447   5.732   5.319  1.7974 -0.9829 -3.1542
  118MOL    H3644730   6.573   5.815   5.403 -1.5055 -0.3931  3.2706
  118MOL    H3744731   6.534   5.441   5.384 -2.3224 -0.6262 -0.9980
  118MOL    H3844732   6.469   5.498   5.246 -1.7621  3.8307  2.9693
  118MOL    H3944733   6.619   5.417   5.222 -0.1662  0.0916 -0.2032
  118MOL    C4044734   6.520   5.640   4.853  0.7866 -0.7283  0.1716
  118MOL    C4144735   6.606   5.584   4.733  0.0848 -0.0422  0.2902
  118MOL    O4244736   6.664   5.697   4.673  0.0436 -0.4830 -0.1852
  118MOL    C4344737   6.790   5.683   4.614  0.2136  0.4056  0.1825
  118MOL    C4444738   6.806   5.793   4.512 -0.4944 -0.2835  0.7235
  118MOL    C4544739   6.951   5.809   4.458  0.2705  0.1569 -0.0455
  118MOL    C4644740   6.705   5.773   4.400  0.6188 -0.3161  0.7389
  118MOL    H4744741   6.427   5.686   4.820  1.0396 -0.6205 -0.4000
  118MOL    H4844742   6.483   5.559   4.916 -0.3119 -1.8304 -1.8537
  118MOL    H4944743   6.674   5.512   4.779  0.2070 -0.3962 -0.4462
  118MOL    H5044744   6.799   5.586   4.565  2.0759  0.4042  0.5083
  118MOL    H5144745   6.871   5.692   4.686  1.3466  1.3086 -1.2059
  118MOL    H5244746   6.789   5.892   4.554 -3.4630 -0.6198  0.4196
  118MOL    H5344747   6.966   5.896   4.395  0.4190 -1.2917 -2.0508
  118MOL    H5444748   7.023   5.823   4.539  0.5452  3.2463 -0.7788
  118MOL    H5544749   6.987   5.724   4.400  1.2942  0.9887 -0.6312
  118MOL    H5644750   6.735   5.682   4.348 -2.4705 -0.9089 -0.0871
  118MOL    H5744751   6.689   5.854   4.327 -0.0001 -1.1115 -0.0241
  118MOL    H5844752   6.603   5.773   4.437  0.0699  1.8723 -0.6207
  118MOL    C5944753   6.516   5.511   4.636  0.0125 -0.5920 -0.3816
  118MOL    C6044754   6.497   5.360   4.664 -0.5251 -0.0928  0.0024
  118MOL    O6144755   6.622   5.299   4.683 -0.3496  0.6162  0.1946
  118MOL    C6244756   6.637   5.233   4.811  0.0126 -0.0351  0.7309
  118MOL    C6344757   6.780   5.164   4.806  0.0093 -0.5145  0.2596
  118MOL    C6444758   6.790   5.073   4.682  0.4812  0.1485 -0.4687
  118MOL    C6544759   6.888   5.273   4.808  0.1835  0.0195  0.8812
  118MOL    H6644760   6.546   5.525   4.532  1.6475 -2.6639 -0.2177
  118MOL    H6744761   6.418   5.560   4.634 -1.1801 -2.9674 -1.3019
  118MOL    H6844762   6.430   5.347   4.749 -2.7238  0.2752 -1.6365
  118MOL    H6944763   6.634   5.312   4.886 -0.7477  1.6754 -1.0926
  118MOL    H7044764   6.565   5.153   4.832 -0.0817 -0.2038 -0.2355
  118MOL    H7144765   6.790   5.103   4.896  0.4894 -1.9827 -0.7629
  118MOL    H7244766   6.707   5.002   4.680 -0.2356  1.0124 -2.8168
  118MOL    H7344767   6.886   5.022   4.678 -0.2403 -1.4279  1.5422
  118MOL    H7444768   6.762   5.131   4.594  1.3627 -1.4875 -1.8604
  118MOL    H7544769   6.876   5.344   4.890 -0.5588  1.7489 -0.6886
  118MOL    H7644770   6.989   5.233   4.815 -0.0687 -0.6175  0.9274
  118MOL    H7744771   6.882   5.332   4.716  1.0887 -1.8347 -0.4110
  118MOL    C7844772   6.423   5.271   4.552 -0.0611  0.7508  1.1700
  118MOL    C7944773   6.271   5.298   4.533 -0.0278  0.8373 -0.2147
  118MOL    O8044774   6.220   5.343   4.411  0.0027 -0.5463 -0.6979
  118MOL    C8144775   6.281   5.449   4.351  0.4755  0.1954 -0.1151
  118MOL    C8244776   6.180   5.532   4.257 -0.3688 -0.2365  0.7072
  118MOL    C8344777   6.271   5.624   4.169 -0.0188  0.6290  0.0417
  118MOL    C8444778   6.067   5.615   4.329  0.2256 -0.4718 -0.1248
  118MOL    H8544779   6.443   5.168   4.579 -1.8608 -0.0236 -0.3157
  118MOL    H8644780   6.473   5.284   4.455  1.5762 -0.0919  1.8839
  118MOL    H8744781   6.250   5.380   4.602  0.2907  1.5011 -0.8973
  118MOL    H8844782   6.310   5.521   4.428 -1.2296  0.0822  0.6548
  118MOL    H8944783   6.364   5.405   4.296  0.0380  1.7369 -2.0708
  118MOL    H9044784   6.138   5.456   4.191  0.5768 -2.0829  2.1907
  118MOL    H9144785   6.328   5.677   4.245  1.9269 -0.1349 -0.8420
  118MOL    H9244786   6.215   5.700   4.114  0.6710  2.3403  1.6388
  118MOL    H9344787   6.341   5.566   4.109 -0.5722 -0.5772  0.5466
  118MOL    H9444788   6.011   5.554   4.400 -0.7622 -1.9587 -2.1359
  118MOL    H9544789   5.997   5.667   4.264 -0.0767 -3.5396 -2.3325
  118MOL    H9644790   6.108   5.689   4.399  0.9726 -0.9656 -0.0397
  118MOL    C9744791   6.188   5.189   4.594  0.5938  0.5554 -0.4555
  118MOL    C9844792   6.040   5.204   4.575 -0.1726  0.0150 -0.4643
  118MOL    O9944793   6.001   5.302   4.673  0.2582  0.1587  0.7298
  118MOL   C10044794   5.911   5.396   4.621 -0.0017  0.4521  0.1964
  118MOL   C10144795   5.772   5.368   4.667  0.4601  0.2313 -0.0803
  118MOL   C10244796   5.749   5.387   4.816 -1.0050 -0.3837  0.0868
  118MOL   C10344797   5.678   5.457   4.598  0.1575  0.2967  0.7576
  118MOL   H10444798   6.209   5.183   4.701 -0.8833  2.8269  0.0024
  118MOL   H10544799   6.212   5.093   4.547  1.5838  0.8717 -0.5885
  118MOL   H10644800   6.012   5.231   4.473 -2.2955 -1.2029 -0.2348
  118MOL   H10744801   5.905   5.392   4.512 -0.0994 -2.6050  0.2725
  118MOL   H10844802   5.946   5.493   4.657  3.1350 -0.5788  0.0842
  118MOL   H10944803   5.757   5.264   4.635  1.2348  0.5191 -1.3931
  118MOL   H11044804   5.807   5.313   4.870  0.9012 -1.2164 -2.9502
  118MOL   H11144805   5.794   5.480   4.851  0.4948 -0.3274 -1.8618
  118MOL   H11244806   5.651   5.373   4.861 -0.7095 -1.1586  0.4975
  118MOL   H11344807   5.689   5.453   4.489  3.1325  2.4869  0.9280
  118MOL   H11444808   5.574   5.436   4.626  0.4196 -0.2463  1.3531
  118MOL   H11544809   5.702   5.560   4.619 -0.4859  1.0223 -1.8561
  118MOL   C11644810   5.973   5.074   4.604 -0.3106  0.9168 -0.0744
  118MOL   C11744811   5.951   4.966   4.492 -0.8700  0.5904 -0.7064
  118MOL   O11844812   5.952   4.838   4.554  0.0571 -0.4973 -0.4966
  118MOL   C11944813   6.073   4.758   4.548  0.2773 -0.3037 -0.0577
  118MOL   C12044814   6.044   4.614   4.601  1.1292 -0.0908 -0.5220
  118MOL   C12144815   6.074   4.612   4.756  0.0488 -0.3315 -0.4893
  118MOL   C12244816   5.913   4.555   4.548 -0.3920 -0.5918  0.1530
  118MOL   H12344817   6.028   5.029   4.686  0.6733 -0.2147 -1.3262
  118MOL   H12444818   5.872   5.092   4.640 -0.6722 -4.2330  1.9397
  118MOL   H12544819   6.038   4.974   4.427 -0.1216 -0.4141  0.1512
  118MOL   H12644820   6.161   4.805   4.592  0.3414 -0.9140  0.4769
  118MOL   H12744821   6.117   4.744   4.449  0.0773 -1.2289 -0.0210
  118MOL   H12844822   6.116   4.548   4.552  0.1180 -2.7834  1.5182
  118MOL   H12944823   6.021   4.687   4.814  1.2253  0.0858  0.0744
  118MOL   H13044824   6.181   4.632   4.763  0.0203  0.6865 -2.4453
  118MOL   H13144825   6.054   4.513   4.796 -0.6325 -0.3606 -0.8876
  118MOL   H13244826   5.914   4.447   4.563 -0.7752 -0.4875  0.9709
  118MOL   H13344827   5.824   4.599   4.594  0.8166 -0.7918  2.7580
  118MOL   H13444828   5.889   4.593   4.449 -0.1076 -3.2144 -0.9400
  118MOL   C13544829   5.819   4.972   4.420  0.0166 -0.6271  0.1568
  118MOL   C13644830   5.811   5.063   4.299  0.5280  0.0193  0.2855
  118MOL   O13744831   5.900   5.027   4.198 -0.4189 -0.4402  0.4044
  118MOL   C13844832   5.872   4.915   4.118  0.3969  0.1068 -0.3755
  118MOL   C13944833   5.984   4.896   4.019 -0.5624  0.4449 -0.0401
  118MOL   C14044834   5.980   5.004   3.913 -0.4489  0.6351  0.1201
  118MOL   C14144835   6.127   4.894   4.091 -0.5587 -0.4857 -0.1435
  118MOL   H14244836   5.794   4.869   4.396 -0.2488 -0.5856  0.2533
  118MOL   H14344837   5.746   5.011   4.491 -1.0682  1.6047 -2.1433
  118MOL   H14444838   5.843   5.159   4.341  0.1858 -0.5344  1.8510
  118MOL   H14544839   5.781   4.925   4.058 -0.4198 -0.6923  0.7110
  118MOL   H14644840   5.857   4.825   4.178  0.1417 -0.2469 -0.9630
  118MOL   H14744841   5.960   4.800   3.974  0.9321  0.3587 -0.6980
  118MOL   H14844842   6.063   4.981   3.846 -1.6913  0.2059 -1.2918
  118MOL   H14944843   5.998   5.102   3.959  1.5633  0.0512  0.6411
  118MOL   H15044844   5.895   5.008   3.845 -0.6291  1.1489  0.3683
  118MOL   H15144845   6.211   4.877   4.023 -0.7710 -1.2452 -0.2187
  118MOL   H15244846   6.147   4.992   4.135  1.9559 -1.1182  0.1876
  118MOL   H15344847   6.129   4.820   4.171 -0.2224  1.2328  1.4782
  118MOL   C15444848   5.666   5.086   4.248  1.0932  1.2029 -0.2190
  118MOL   C15544849   5.658   5.185   4.128 -0.3486 -0.5743  0.2893
  118MOL   O15644850   5.537   5.180   4.049 -0.2288  0.3380  0.4934
  118MOL   C15744851   5.568   5.128   3.920  0.6632  0.1091 -0.0470
  118MOL   C15844852   5.435   5.135   3.842  0.0859  0.8766  0.0283
  118MOL   C15944853   5.333   5.049   3.917  0.0877  0.0713 -0.1145
  118MOL   C16044854   5.392   5.283   3.826 -0.2849  0.2529  0.0328
  118MOL   H16144855   5.604   5.118   4.331 -0.3665  1.7559 -1.5010
  118MOL   H16244856   5.626   4.995   4.203 -0.6717  2.5144 -1.3343
  118MOL   H16344857   5.745   5.173   4.063 -0.6681  1.5480 -0.5869
  118MOL   H16444858   5.608   5.027   3.913 -0.7173 -0.5861  1.6959
  118MOL   H16544859   5.643   5.191   3.872  0.2724  2.6291  2.5608
  118MOL   H16644860   5.460   5.101   3.742  2.2819 -2.1057  1.5168
  118MOL   H16744861   5.299   5.104   4.005  0.8872 -0.8360  0.7729
  118MOL   H16844862   5.374   4.960   3.964 -0.3484  0.1892  0.4910
  118MOL   H16944863   5.252   5.029   3.847 -0.0765 -1.3531  0.4734
  118MOL   H17044864   5.379   5.328   3.924  2.0421 -0.4711  0.6982
  118MOL   H17144865   5.463   5.345   3.770  0.5544 -0.6315  0.1160
  118MOL   H17244866   5.298   5.281   3.771  0.1468 -1.5042 -0.6561
  118MOL   C17344867   5.675   5.330   4.162 -0.4718 -0.5272  0.8861
  118MOL   C17444868   5.692   5.437   4.048 -0.2978 -0.1804 -0.0199
  118MOL   O17544869   5.647   5.569   4.087 -0.2200 -0.0157 -0.0933
  118MOL   C17644870   5.501   5.579   4.086  0.4790  0.0006  0.4269
  118MOL   C17744871   5.464   5.713   4.149  0.4745  0.7662 -0.3724
  118MOL   C17844872   5.485   5.700   4.302 -0.1418  0.7767  0.2374
  118MOL   C17944873   5.530   5.827   4.081 -0.4462  1.1093 -0.3630
  118MOL   H18044874   5.589   5.362   4.222 -0.2318 -1.7939  1.9257
  118MOL   H18144875   5.763   5.325   4.226 -0.4040 -2.5344  0.6613
  118MOL   H18244876   5.650   5.412   3.951  1.6114  0.3628 -1.0230
  118MOL   H18344877   5.458   5.498   4.144 -0.2976 -0.1701 -0.3732
  118MOL   H18444878   5.451   5.563   3.990 -1.4257 -1.3675  1.6172
  118MOL   H18544879   5.356   5.723   4.140  0.2994 -0.0542  0.7681
  118MOL   H18644880   5.588   5.691   4.334 -0.7726  0.7695  2.3379
  118MOL   H18744881   5.440   5.784   4.354 -0.3611 -0.1734  1.6261
  118MOL   H18844882   5.435   5.620   4.358  0.9788 -0.1167 -0.0291
  118MOL   H18944883   5.504   5.924   4.123  0.1552  2.2925 -2.6614
  118MOL   H19044884   5.518   5.807   3.975 -1.4226 -0.6577  0.0464
  118MOL   H19144885   5.635   5.829   4.109 -0.3611 -0.4009 -0.5392
  118MOL   C19244886   5.844   5.460   4.014 -0.4893 -0.4558  0.7719
  118MOL   C19344887   5.873   5.555   3.900 -1.2964  0.4081  0.0666
  118MOL   O19444888   5.803   5.501   3.783 -0.2182  0.5119  0.0714
  118MOL   C19544889   5.693   5.583   3.727 -0.2881  0.3602 -0.0204
  118MOL   C19644890   5.633   5.528   3.595 -0.0295  0.7500  0.0722
  118MOL   C19744891   5.724   5.545   3.483  0.3497  0.1968 -0.3039
  118MOL   C19844892   5.495   5.596   3.560 -0.4496 -1.0330 -0.0352
  118MOL   H19944893   5.874   5.358   3.990  0.4893  0.3423 -1.5750
  118MOL   H20044894   5.904   5.481   4.102 -0.8256 -2.0117  1.3986
  118MOL   H20144895   5.831   5.646   3.942 -0.4368  0.7267  0.2508
  118MOL   H20244896   5.734   5.681   3.700 -0.0084  0.6639  1.4761
  118MOL   H20344897   5.607   5.604   3.791  0.7701 -1.4105  2.0553
  118MOL   H20444898   5.615   5.422   3.615  1.5338  0.5284  0.3980
  118MOL   H20544899   5.814   5.484   3.490  2.3140  2.9623 -0.5844
  118MOL   H20644900   5.680   5.504   3.392  2.0174  2.0979 -1.9893
  118MOL   H20744901   5.762   5.642   3.452 -0.1626  0.2167 -0.8792
  118MOL   H20844902   5.510   5.701   3.536  0.0564 -1.3530 -1.1970
  118MOL   H20944903   5.446   5.554   3.472 -0.9924  1.5549 -0.9942
  118MOL   H21044904   5.414   5.594   3.633 -0.2535  1.1608  0.2771
  118MOL   C21144905   6.024   5.566   3.869  0.7062  0.8994 -0.0766
  118MOL   C21244906   6.061   5.695   3.786  0.5517  0.0245 -0.0586
  118MOL   O21344907   6.062   5.810   3.867 -0.1236 -0.4579  0.1064
  118MOL   C21444908   6.010   5.935   3.818 -0.5888  0.4572  0.2159
  118MOL   C21544909   5.985   6.045   3.925 -0.3738  0.0558 -0.1422
  118MOL   C21644910   5.927   6.173   3.867  0.0384 -0.1066 -0.2338
  118MOL   C21744911   5.879   5.997   4.032 -0.2346 -0.5380 -0.3414
  118MOL   H21844912   6.040   5.483   3.801 -1.3023  1.2856 -1.0733
  118MOL   H21944913   6.089   5.551   3.955  0.2143  0.2819  0.1922
  118MOL   H22044914   5.989   5.711   3.706 -0.2669 -0.3675  0.6023
  118MOL   H22144915   5.914   5.900   3.780  0.5427 -1.4662 -0.9842
  118MOL   H22244916   6.060   5.970   3.728 -0.5820 -2.0579 -0.8202
  118MOL   H22344917   6.079   6.066   3.977 -1.3592 -1.8985  2.5130
  118MOL   H22444918   5.838   6.151   3.808 -0.5491  1.3642  0.0773
  118MOL   H22544919   5.898   6.244   3.944 -1.0944  1.0381 -1.6822
  118MOL   H22644920   5.991   6.220   3.792  0.7228 -1.5386 -0.5727
  118MOL   H22744921   5.911   5.908   4.086  1.5740 -0.3303 -1.0296
  118MOL   H22844922   5.784   5.979   3.982  0.4818  0.3840 -2.0722
  118MOL   H22944923   5.866   6.081   4.100 -0.3652 -0.7262 -0.1313
  118MOL   C23044924   6.200   5.681   3.716 -0.5588 -0.5965 -0.4442
  118MOL   C23144925   6.201   5.649   3.560 -0.2711 -0.4341  0.4956
  118MOL   O23244926   6.330   5.679   3.496 -0.2091  0.5475  0.0709
  118MOL   C23344927   6.333   5.707   3.357  0.0650 -0.7619  0.3439
  118MOL   C23444928   6.307   5.857   3.320 -0.7171 -0.6575 -0.1214
  118MOL   C23544929   6.178   5.916   3.371 -0.4107  0.6054  0.1370
  118MOL   C23644930   6.415   5.950   3.373  0.1911  0.0793  0.3901
  118MOL   H23744931   6.256   5.606   3.772 -1.7718  0.0557  1.7040
  118MOL   H23844932   6.243   5.780   3.725 -2.0111 -0.1911  2.5225
  118MOL   H23944933   6.124   5.717   3.525  0.1026 -0.1111  0.2904
  118MOL   H24044934   6.426   5.680   3.309 -0.6790 -0.8050 -1.0887
  118MOL   H24144935   6.265   5.643   3.300  1.7579 -0.5611 -1.9555
  118MOL   H24244936   6.317   5.863   3.211  2.0455 -1.5130  0.0338
  118MOL   H24344937   6.156   6.009   3.319 -0.3297  2.0626  2.6502
  118MOL   H24444938   6.189   5.937   3.477  0.6079  3.9515 -0.5878
  118MOL   H24544939   6.103   5.838   3.354  0.8585 -0.8819  1.1836
  118MOL   H24644940   6.510   5.940   3.321  1.0081 -0.1303  1.8949
  118MOL   H24744941   6.382   6.052   3.353 -0.4237 -0.1555  0.2000
  118MOL   H24844942   6.430   5.949   3.481 -1.0078  2.9123  0.6516
  118MOL   C24944943   6.163   5.506   3.529  0.0753  0.1560  0.3810
  118MOL   C25044944   6.239   5.384   3.590 -0.0173  0.4563 -0.7864
  118MOL   O25144945   6.196   5.261   3.530  0.0275 -0.0490 -0.1239
  118MOL   C25244946   6.064   5.213   3.570 -0.2430 -0.4678  0.8248
  118MOL   C25344947   6.017   5.106   3.470  0.5746 -0.0588  1.1708
  118MOL   C25444948   5.865   5.071   3.481  0.3864 -0.5189  0.0619
  118MOL   C25544949   6.102   4.973   3.471 -0.2237 -0.9849  0.5931
  118MOL   H25644950   6.148   5.490   3.422  1.3212  1.8095 -0.0638
  118MOL   H25744951   6.061   5.499   3.567  1.0536 -1.0575  2.8862
  118MOL   H25844952   6.217   5.369   3.696  2.3651  0.2067 -0.3021
  118MOL   H25944953   6.083   5.162   3.664  2.4662  1.8500  1.6118
  118MOL   H26044954   5.983   5.281   3.596 -0.0503 -0.2102  0.7593
  118MOL   H26144955   6.022   5.159   3.374  0.4243 -1.1372  0.5667
  118MOL   H26244956   5.834   5.027   3.386 -1.7382  2.0127 -0.4732
  118MOL   H26344957   5.797   5.154   3.498  1.9694  0.9628 -0.6683
  118MOL   H26444958   5.846   4.990   3.551 -1.8510 -1.1197 -1.2047
  118MOL   H26544959   6.074   4.895   3.400 -2.0471  1.3645 -1.3495
  118MOL   H26644960   6.210   4.990   3.461 -0.5562  0.5317 -0.6934
  118MOL   H26744961   6.073   4.922   3.562 -0.0489 -0.3318  1.0176
  118MOL   C26844962   6.394   5.383   3.575  0.3845  0.0958 -0.2772
  118MOL   C26944963   6.467   5.256   3.630  0.5062  0.3763  0.9563
  118MOL   O27044964   6.456   5.251   3.776 -0.1144  0.1678 -0.2624
  118MOL   C27144965   6.435   5.120   3.831  0.1283  0.2791  0.1509
  118MOL   C27244966   6.428   5.139   3.981 -0.7809  0.4063 -0.2108
  118MOL   C27344967   6.548   5.201   4.049 -0.0161  0.0219 -0.1715
  118MOL   C27444968   6.306   5.218   4.027 -0.0235 -0.8669 -0.2981
  118MOL   H27544969   6.433   5.472   3.624 -0.4132  0.8242 -0.9306
  118MOL   H27644970   6.423   5.380   3.470 -2.2483 -0.1415 -1.0448
  118MOL   H27744971   6.411   5.167   3.602 -2.8544  2.3043  1.3273
  118MOL   H27844972   6.341   5.087   3.787 -0.0327  1.3128 -0.2965
  118MOL   H27944973   6.514   5.051   3.801 -0.7282 -1.5682  2.0294
  118MOL   H28044974   6.408   5.047   4.036 -1.0597  0.1132 -0.7942
  118MOL   H28144975   6.539   5.222   4.156 -2.6994 -0.7288 -0.2258
  118MOL   H28244976   6.564   5.300   4.006  1.4287 -0.2828 -0.3683
  118MOL   H28344977   6.641   5.151   4.023  1.6613  1.7417  2.2102
  118MOL   H28444978   6.217   5.204   3.965 -0.3402 -0.7808  0.1392
  118MOL   H28544979   6.329   5.324   4.015  0.6285 -1.0600 -0.8087
  118MOL   H28644980   6.286   5.199   4.132 -0.9708  1.5355 -0.0121
  118MOL   C28744981   6.611   5.248   3.574  0.5406 -0.9260  0.1666
  118MOL   C28844982   6.713   5.361   3.604  0.1008 -0.2055  0.5112
  118MOL   O28944983   6.788   5.405   3.491 -0.2227  0.1606 -0.1810
  118MOL   C29044984   6.736   5.510   3.411 -0.2957 -0.1130 -0.5856
  118MOL   C29144985   6.823   5.541   3.284 -0.0818  0.4659  0.0910
  118MOL   C29244986   6.790   5.454   3.163 -0.5939 -0.2134 -0.5900
  118MOL   C29344987   6.969   5.545   3.318  0.3463 -0.5601  0.3485
  118MOL   H29444988   6.612   5.231   3.466 -0.8570 -0.6427  0.1022
  118MOL   H29544989   6.649   5.149   3.600  2.0961  0.2491  2.5465
  118MOL   H29644990   6.670   5.439   3.667 -0.3563 -0.9951  1.1912
  118MOL   H29744991   6.629   5.508   3.393 -0.3585 -2.9903 -0.0830
  118MOL   H29844992   6.755   5.594   3.478  0.3499  1.8887 -3.1877
  118MOL   H29944993   6.795   5.639   3.246 -0.0587 -0.1529 -1.5362
  118MOL   H30044994   6.686   5.471   3.134  0.4095  0.6104 -4.0157
  118MOL   H30144995   6.796   5.352   3.200 -1.2552 -0.5655 -1.4332
  118MOL   H30244996   6.860   5.474   3.082  1.5917 -0.8691  1.0868
  118MOL   H30344997   7.001   5.453   3.367 -1.0425  0.7280  3.8366
  118MOL   H30444998   7.027   5.550   3.226 -0.0186  0.9465  0.1899
  118MOL   H30544999   6.992   5.636   3.373 -1.4583 -0.7132  1.4068
  118MOL   C30645000   6.816   5.303   3.709 -0.2108 -0.3584  0.3398
  118MOL   C30745001   6.918   5.413   3.746  0.1316  0.0216  0.0042
  118MOL   O30845002   6.860   5.492   3.853 -0.5267  0.0639  0.0841
  118MOL   C30945003   6.874   5.632   3.843  0.0717 -0.5244 -0.1219
  118MOL   C31045004   6.752   5.691   3.907  0.0944  0.6209 -0.0238
  118MOL   C31145005   6.762   5.679   4.056  0.0232 -0.4651  0.1787
  118MOL   C31245006   6.619   5.638   3.847  0.0645  0.5324  1.6157
  118MOL   H31345007   6.870   5.221   3.662  1.2635  0.8507 -0.1303
  118MOL   H31445008   6.766   5.279   3.803 -0.2396 -0.3876  0.3176
  118MOL   H31545009   6.943   5.469   3.656  0.5989  0.0976  0.1846
  118MOL   H31645010   6.887   5.665   3.740 -0.7026 -0.7723 -0.3035
  118MOL   H31745011   6.964   5.655   3.900 -0.1864 -0.5316  0.2904
  118MOL   H31845012   6.759   5.797   3.886  0.2073  0.3280 -1.5068
  118MOL   H31945013   6.850   5.733   4.091  0.8157 -1.2880 -0.5275
  118MOL   H32045014   6.778   5.574   4.082 -0.7937 -1.4591 -3.1520
  118MOL   H32145015   6.691   5.733   4.119 -3.5105 -3.9867 -0.6333
  118MOL   H32245016   6.542   5.682   3.911 -2.3211 -1.3559  0.1106
  118MOL   H32345017   6.613   5.530   3.858  0.5732  0.1866 -1.1426
  118MOL   H32445018   6.600   5.667   3.744 -0.9169 -2.1222  1.0128
  118MOL   C32545019   7.057   5.366   3.794  0.2463  0.5131  0.1071
  118MOL   C32645020   7.064   5.239   3.884 -1.3072  0.9701  0.7043
  118MOL   O32745021   7.037   5.123   3.803  0.0031  0.0093  0.3524
  118MOL   C32845022   6.932   5.041   3.852 -0.1641  0.7464  0.2627
  118MOL   C32945023   6.891   4.923   3.756  0.2495 -0.5513  0.4768
  118MOL   C33045024   7.013   4.858   3.681  0.0132  0.1689 -0.2454
  118MOL   C33145025   6.801   4.824   3.832 -0.1087 -0.4827 -0.2623
  118MOL   H33245026   7.106   5.445   3.851  0.0184  1.4613 -0.9725
  118MOL   H33345027   7.119   5.326   3.714  1.3524 -3.7336  2.9191
  118MOL   H33445028   6.988   5.244   3.962 -0.8218  0.1039  1.2418
  118MOL   H33545029   6.984   4.993   3.934  0.0750  0.0720 -0.2793
  118MOL   H33645030   6.843   5.090   3.894 -0.0960  0.0057  1.2847
  118MOL   H33745031   6.828   4.970   3.681 -0.6714  0.0836  1.6447
  118MOL   H33845032   7.069   4.929   3.620  0.7396 -0.2039 -0.0168
  118MOL   H33945033   7.081   4.817   3.755  1.4438  1.0903 -1.0294
  118MOL   H34045034   7.000   4.779   3.608  0.5010  0.1675 -0.3295
  118MOL   H34145035   6.861   4.768   3.905 -0.4528 -2.5018 -1.4740
  118MOL   H34245036   6.725   4.877   3.889  1.0702  0.1534  0.7457
  118MOL   H34345037   6.754   4.754   3.763  2.0774 -0.6391 -1.6381
  118MOL   C34445038   7.197   5.227   3.951  0.0599 -0.2515 -0.3549
  118MOL   C34545039   7.232   5.335   4.057 -0.3807  0.3839  0.2358
  118MOL   O34645040   7.150   5.322   4.171  0.1744  0.3595  0.5523
  118MOL   C34745041   7.129   5.442   4.251 -0.1713 -0.5033 -0.2501
  118MOL   C34845042   7.045   5.393   4.372 -0.2182 -0.6026 -0.2681
  118MOL   C34945043   7.114   5.309   4.472  0.5640  0.0843 -0.0435
  118MOL   C35045044   6.920   5.322   4.321 -0.0805 -0.3643  0.3637
  118MOL   H35145045   7.276   5.218   3.877 -0.7894 -0.0410 -1.2966
  118MOL   H35245046   7.210   5.127   3.993  1.4744 -1.2588 -3.0396
  118MOL   H35345047   7.215   5.434   4.014 -2.6786 -0.0620  0.0165
  118MOL   H35445048   7.095   5.528   4.192  1.4641 -0.9244 -1.8649
  118MOL   H35545049   7.221   5.479   4.296  0.2460 -0.1189 -1.3796
  118MOL   H35645050   7.006   5.484   4.418 -1.6898 -2.2049  1.7655
  118MOL   H35745051   7.046   5.255   4.538 -1.2044  0.9480 -1.1262
  118MOL   H35845052   7.174   5.371   4.539  0.0517  0.2392  0.2771
  118MOL   H35945053   7.174   5.226   4.435  1.5597  0.1813  1.3328
  118MOL   H36045054   6.933   5.226   4.272  1.4344 -0.3618  0.7500
  118MOL   H36145055   6.861   5.303   4.410  0.3378  0.5380  0.8434
  118MOL   H36245056   6.861   5.398   4.268 -0.4313 -0.4075  0.6903
  118MOL   C36345057   7.381   5.322   4.121  0.2320 -0.3184  0.6219
  118MOL   C36445058   7.489   5.315   4.011  0.4594 -0.0594  0.0408
  118MOL   O36545059   7.615   5.351   4.049 -0.6694  0.4776  0.3253
  118MOL   C36645060   7.723   5.362   3.957  0.1911 -0.2904 -0.4085
  118MOL   C36745061   0.026   5.402   4.035 -0.6102 -0.3075  0.5345
  118MOL   C36845062   0.079   5.288   4.126  0.2372  0.6119 -0.4697
  118MOL   C36945063   7.821   5.524   4.118  0.2960 -0.1456  0.4800
  118MOL   H37045064   7.392   5.412   4.181 -0.1034 -0.0290  0.2513
  118MOL   H37145065   7.381   5.241   4.194  1.3960  0.0532  1.0316
  118MOL   H37245066   7.467   5.365   3.917 -1.7733  0.6834  0.9220
  118MOL   H37345067   7.715   5.265   3.909 -1.7073 -0.4932  0.2859
  118MOL   H37445068   7.709   5.442   3.884 -1.7471 -0.4830 -0.2596
  118MOL   H37545069   0.105   5.433   3.967 -2.0526  0.5200 -0.8127
  118MOL   H37645070   0.148   5.318   4.205 -0.6970  0.4130  0.4233
  118MOL   H37745071   0.116   5.202   4.071 -1.9385 -1.7402  1.6341
  118MOL   H37845072   7.813   5.240   4.162  0.5706  0.1273 -0.2707
  118MOL   H37945073   7.786   5.495   4.217  3.1305  1.9281  2.1987
  118MOL   H38045074   7.757   5.595   4.065  0.6652 -1.0986 -1.2736
  118MOL   H38145075   0.089   5.570   4.153  1.0295 -1.6799  0.5803
  118MOL   H38245076   7.488   5.210   3.982  0.6513 -0.6368  2.0279
  119MOL     C145077   4.729   2.941   3.152  0.1314 -0.3534 -0.4859
  119MOL     C245078   4.681   2.790   3.189 -0.2442 -0.5758 -0.5252
  119MOL     O345079   4.769   2.709   3.118 -0.5689 -0.2069 -0.2254
  119MOL     C445080   4.727   2.661   2.994  0.0462 -0.2924  0.6485
  119MOL     C545081   4.848   2.580   2.942 -0.0498  0.4450  0.2763
  119MOL     C645082   4.957   2.676   2.893 -0.6614 -0.3265  0.0755
  119MOL     C745083   4.803   2.485   2.827 -0.5793 -0.3833 -0.2455
  119MOL     H845084   4.708   2.973   3.050  1.8227 -0.7745 -0.9758
  119MOL     H945085   4.683   3.017   3.216  1.1024  1.6651 -2.1153
  119MOL    H1045086   4.576   2.778   3.163 -0.8133  0.5664  1.1791
  119MOL    H1145087   4.696   2.735   2.920  3.1360 -0.8399 -1.3000
  119MOL    H1245088   4.639   2.598   3.002 -1.0721  1.1328 -0.2303
  119MOL    H1345089   4.882   2.510   3.020 -1.9699 -3.7701 -2.4897
  119MOL    H1445090   5.049   2.628   2.859  1.3915  2.4864  1.4506
  119MOL    H1545091   4.927   2.727   2.801 -0.1663 -0.1423  0.0137
  119MOL    H1645092   4.975   2.756   2.965  1.5813  0.5030 -1.3377
  119MOL    H1745093   4.771   2.549   2.745  2.9331  1.5359 -0.1811
  119MOL    H1845094   4.881   2.413   2.804 -1.7671 -0.9142 -2.8263
  119MOL    H1945095   4.713   2.433   2.861 -0.4026 -1.2998 -1.1545
  119MOL    H2045096   4.837   2.948   3.165 -0.2592  0.9126  2.6176
  119MOL    C2145097   4.708   2.762   3.338  0.3009  0.0477  0.1884
  119MOL    C2245098   4.697   2.617   3.379  0.3276 -1.0849  0.6213
  119MOL    O2345099   4.739   2.619   3.514  0.5683  0.0754  0.0139
  119MOL    C2445100   4.876   2.583   3.533  1.0615 -0.8520 -0.3689
  119MOL    C2545101   4.932   2.615   3.675 -0.4716  0.1560  0.0374
  119MOL    C2645102   4.839   2.549   3.783  0.3509  0.5101  0.3311
  119MOL    C2745103   5.086   2.593   3.702 -0.0290  0.2907  0.5425
  119MOL    H2845104   4.800   2.810   3.369  0.6268 -0.5811  0.2050
  119MOL    H2945105   4.629   2.826   3.376 -0.9917 -0.7190 -1.1389
  119MOL    H3045106   4.769   2.553   3.328 -1.2951 -0.2795 -2.8299
  119MOL    H3145107   4.932   2.634   3.455 -0.4778  0.5118 -0.6096
  119MOL    H3245108   4.885   2.477   3.510  2.3110 -0.8117 -0.0554
  119MOL    H3345109   4.917   2.723   3.690 -0.0617  0.2784 -0.4473
  119MOL    H3445110   4.878   2.585   3.879 -1.4482  1.4170  0.7363
  119MOL    H3545111   4.862   2.443   3.792  0.3383  0.5024  0.2697
  119MOL    H3645112   4.733   2.573   3.775  0.1726 -0.9316 -2.3161
  119MOL    H3745113   5.102   2.625   3.805  5.7268  0.8702 -0.3669
  119MOL    H3845114   5.134   2.497   3.681  1.2220  1.6619 -3.2922
  119MOL    H3945115   5.151   2.664   3.650  1.8785 -1.4056  0.5195
  119MOL    C4045116   4.562   2.550   3.347  0.2945  0.1780 -0.6475
  119MOL    C4145117   4.561   2.397   3.369  0.4740  0.1224  0.0998
  119MOL    O4245118   4.452   2.334   3.307 -0.7100  0.3463 -0.3864
  119MOL    C4345119   4.474   2.308   3.175  0.5340  0.7788 -0.2179
  119MOL    C4445120   4.341   2.258   3.105  0.1206  0.6295  0.0153
  119MOL    C4545121   4.354   2.206   2.962  0.0451  0.2153 -0.6025
  119MOL    C4645122   4.277   2.152   3.191  0.5097 -0.1061 -0.1450
  119MOL    H4745123   4.548   2.570   3.240  0.1097 -1.7294 -0.9876
  119MOL    H4845124   4.480   2.593   3.405  0.5009 -1.4209  0.8346
  119MOL    H4945125   4.658   2.364   3.331  2.3299  2.3070  2.6824
  119MOL    H5045126   4.543   2.224   3.159 -0.7510 -0.3802  0.2188
  119MOL    H5145127   4.502   2.393   3.113 -0.0086 -0.8399 -2.7626
  119MOL    H5245128   4.275   2.344   3.096  0.3865  0.9920  1.3705
  119MOL    H5345129   4.253   2.192   2.924  0.2670  3.0493 -2.3382
  119MOL    H5445130   4.409   2.281   2.905 -0.3236 -0.4605 -1.8656
  119MOL    H5545131   4.400   2.107   2.961  0.0968  0.2201  0.6356
  119MOL    H5645132   4.350   2.076   3.217  1.1338  0.7160  0.5162
  119MOL    H5745133   4.188   2.110   3.144 -0.6207  1.7917  0.2217
  119MOL    H5845134   4.240   2.179   3.290  1.2257  2.6771 -0.5894
  119MOL    C5945135   4.551   2.365   3.519 -0.4621 -0.3480 -0.3712
  119MOL    C6045136   4.593   2.219   3.558 -0.0577 -0.1772 -0.4804
  119MOL    O6145137   4.552   2.210   3.694  0.1133  0.1012 -0.5160
  119MOL    C6245138   4.425   2.153   3.711 -0.1484 -0.9639  0.0697
  119MOL    C6345139   4.405   2.114   3.860  0.5866 -0.7744  0.1945
  119MOL    C6445140   4.263   2.095   3.900 -0.4259 -0.1827  0.1214
  119MOL    C6545141   4.495   1.986   3.893  0.2421 -0.2173 -0.3400
  119MOL    H6645142   4.446   2.383   3.541 -0.5559 -2.5141  1.0863
  119MOL    H6745143   4.599   2.443   3.577 -0.8610 -0.4787  0.1386
  119MOL    H6845144   4.545   2.160   3.480 -0.4806 -2.0949  1.1976
  119MOL    H6945145   4.338   2.210   3.679  0.3722  1.2975  2.4493
  119MOL    H7045146   4.410   2.072   3.640  1.2375 -1.4934  0.3663
  119MOL    H7145147   4.425   2.190   3.936  0.2869 -0.6137  0.1148
  119MOL    H7245148   4.188   2.166   3.867 -1.6178 -0.9887  1.0278
  119MOL    H7345149   4.261   2.076   4.007  0.0646 -1.7114 -0.1185
  119MOL    H7445150   4.222   2.003   3.857  0.3352 -1.5592  2.2204
  119MOL    H7545151   4.487   1.937   3.990 -1.9769 -0.1041 -0.4575
  119MOL    H7645152   4.451   1.901   3.841 -2.2280  0.0801  1.2019
  119MOL    H7745153   4.599   2.004   3.865 -0.6125  3.2555 -1.5226
  119MOL    C7845154   4.749   2.202   3.550  0.1233 -0.3378  0.6257
  119MOL    C7945155   4.799   2.085   3.631  0.1204 -0.5643 -0.2927
  119MOL    O8045156   4.776   1.962   3.563  0.4449  0.4482  0.1178
  119MOL    C8145157   4.689   1.865   3.608  0.5981  0.4680  0.0373
  119MOL    C8245158   4.657   1.768   3.491  0.2768  0.4384 -0.4724
  119MOL    C8345159   4.550   1.672   3.528 -0.1024  0.2788  0.1866
  119MOL    C8445160   4.787   1.705   3.435  0.0761  0.5659  0.3152
  119MOL    H8545161   4.797   2.286   3.600  0.9640  0.5020 -1.5408
  119MOL    H8645162   4.783   2.201   3.446  0.6397  0.1606  0.7869
  119MOL    H8745163   4.759   2.081   3.732 -1.1116 -0.6666 -0.7699
  119MOL    H8845164   4.717   1.826   3.706 -1.3172  1.1513  0.8918
  119MOL    H8945165   4.595   1.912   3.638 -0.3662  0.5323 -2.8812
  119MOL    H9045166   4.630   1.826   3.402 -0.0299  1.5102  0.3108
  119MOL    H9145167   4.573   1.621   3.621 -0.7522 -0.4049 -0.0230
  119MOL    H9245168   4.545   1.595   3.451 -1.3380 -0.5460  1.0679
  119MOL    H9345169   4.452   1.719   3.535  0.2347  0.9086  0.7758
  119MOL    H9445170   4.852   1.780   3.390 -0.2315  0.0443 -1.0217
  119MOL    H9545171   4.774   1.624   3.364  1.6959  0.7205 -0.1663
  119MOL    H9645172   4.847   1.656   3.512 -2.5961 -0.3696  1.8670
  119MOL    C9745173   4.943   2.086   3.664 -0.3024  0.5655  0.3458
  119MOL    C9845174   5.049   2.089   3.552 -0.1285 -0.3513 -0.4361
  119MOL    O9945175   5.172   2.047   3.601  0.3039  0.0709  0.2926
  119MOL   C10045176   5.182   1.907   3.597  0.0513  0.1374 -0.6858
  119MOL   C10145177   5.308   1.875   3.684 -0.2344  0.8897 -0.3904
  119MOL   C10245178   5.311   1.736   3.744  0.5729  0.3534 -0.4482
  119MOL   C10345179   5.435   1.899   3.601 -0.3626  0.0297 -0.0228
  119MOL   H10445180   4.963   2.002   3.731 -1.4848  0.1597  0.1911
  119MOL   H10545181   4.957   2.166   3.737 -0.0438  0.6708  0.1834
  119MOL   H10645182   5.015   2.037   3.463 -2.6743  0.4997 -0.0149
  119MOL   H10745183   5.210   1.882   3.495  1.7962 -0.1987 -0.1435
  119MOL   H10845184   5.092   1.851   3.623  1.9505 -1.9109  1.7747
  119MOL   H10945185   5.307   1.942   3.770 -0.7399 -1.1343  1.2556
  119MOL   H11045186   5.215   1.712   3.790  1.3431  0.1411  1.1080
  119MOL   H11145187   5.318   1.661   3.665  0.0731 -0.7978  0.5767
  119MOL   H11245188   5.399   1.720   3.807  0.8550 -2.1059 -1.4091
  119MOL   H11345189   5.454   1.833   3.516 -0.7507 -1.8140  1.2932
  119MOL   H11445190   5.436   2.002   3.565  2.8144 -0.1793 -0.7132
  119MOL   H11545191   5.530   1.888   3.654 -0.1223 -0.1846 -0.5004
  119MOL   C11645192   5.074   2.231   3.502  0.4780  0.0608 -0.3189
  119MOL   C11745193   5.116   2.233   3.353  0.2037  0.2603 -0.5507
  119MOL   O11845194   5.007   2.179   3.274 -0.5921  0.0467 -0.1699
  119MOL   C11945195   5.047   2.092   3.170 -0.4199 -0.3712  0.4987
  119MOL   C12045196   4.918   2.067   3.089 -0.1133  0.0929  0.2094
  119MOL   C12145197   4.801   2.011   3.174 -0.1068 -0.2303 -0.0800
  119MOL   C12245198   4.888   2.180   2.983 -0.7588 -0.4306  0.0753
  119MOL   H12345199   4.989   2.297   3.516 -0.5647 -1.3809  0.2085
  119MOL   H12445200   5.158   2.270   3.561 -0.0554 -0.1722  0.6046
  119MOL   H12545201   5.196   2.160   3.341  1.0262  0.8772  0.9806
  119MOL   H12645202   5.082   2.005   3.226 -0.3808 -0.0553  0.9698
  119MOL   H12745203   5.125   2.135   3.107  0.4718 -0.1969  1.7022
  119MOL   H12845204   4.950   1.987   3.023 -0.6378 -0.5062  0.6707
  119MOL   H12945205   4.732   1.956   3.111 -1.0222  0.9846 -0.1521
  119MOL   H13045206   4.746   2.095   3.216 -1.8533 -1.1428 -0.4746
  119MOL   H13145207   4.850   1.941   3.242 -1.1622 -2.2207 -1.3188
  119MOL   H13245208   4.854   2.271   3.033  1.6333  0.7973 -0.4330
  119MOL   H13345209   4.981   2.211   2.934 -0.3188 -0.0938  1.1007
  119MOL   H13445210   4.818   2.155   2.903 -1.3239 -1.5358  0.9158
  119MOL   C13545211   5.138   2.376   3.294 -0.7367 -0.1647 -0.2020
  119MOL   C13645212   5.273   2.452   3.339  0.0483 -0.2605  0.1614
  119MOL   O13745213   5.385   2.371   3.304 -0.4478  0.0430  0.0585
  119MOL   C13845214   5.463   2.309   3.408 -0.2868  0.6055  0.3401
  119MOL   C13945215   5.583   2.229   3.358  0.7617  0.5304 -0.3113
  119MOL   C14045216   5.536   2.120   3.269 -0.4860 -0.5543 -0.3100
  119MOL   C14145217   5.693   2.318   3.285  0.0777  0.4206 -0.4882
  119MOL   H14245218   5.130   2.364   3.186  0.4312 -2.5322 -0.0626
  119MOL   H14345219   5.048   2.433   3.318  0.3768  1.5935 -0.1164
  119MOL   H14445220   5.275   2.451   3.448  1.5051 -0.7971  0.1304
  119MOL   H14545221   5.400   2.243   3.469 -0.2898  2.4324  2.3718
  119MOL   H14645222   5.508   2.387   3.470 -0.3605  1.5296 -0.7527
  119MOL   H14745223   5.638   2.185   3.441  1.1243 -1.0835 -1.3858
  119MOL   H14845224   5.625   2.077   3.224  0.8284  1.6762  0.0550
  119MOL   H14945225   5.478   2.169   3.190 -3.0772 -1.2572  1.1164
  119MOL   H15045226   5.482   2.043   3.323  1.5401 -0.9057  1.2876
  119MOL   H15145227   5.653   2.328   3.184  0.6385  0.1275 -0.7467
  119MOL   H15245228   5.710   2.417   3.326  1.4840  1.3334 -3.1294
  119MOL   H15345229   5.787   2.263   3.279  0.7625  1.6132 -0.8707
  119MOL   C15445230   5.297   2.588   3.277  0.2718  0.0845 -0.3476
  119MOL   C15545231   5.421   2.668   3.321  0.1609  0.1024 -0.1569
  119MOL   O15645232   5.422   2.802   3.255 -0.5987 -0.1829  0.5813
  119MOL   C15745233   5.483   2.811   3.128  0.6259 -0.0906 -0.6928
  119MOL   C15845234   5.423   2.932   3.046 -0.3028  0.5073  0.1151
  119MOL   C15945235   5.507   2.968   2.928 -0.3243  0.3153 -0.4059
  119MOL   C16045236   5.273   2.915   3.017 -0.1200 -0.6360  0.2577
  119MOL   H16145237   5.213   2.649   3.311  0.9696 -0.9480  3.4753
  119MOL   H16245238   5.289   2.575   3.169  0.9368 -0.8426 -0.2974
  119MOL   H16345239   5.506   2.610   3.287 -0.2019 -1.1074  0.9539
  119MOL   H16445240   5.465   2.715   3.079  2.5588 -1.0843  0.4502
  119MOL   H16545241   5.589   2.832   3.143  0.1390  0.8666  1.7254
  119MOL   H16645242   5.423   3.019   3.112 -1.3014  1.1947 -0.7617
  119MOL   H16745243   5.613   2.964   2.951 -0.3879  0.5016 -0.0792
  119MOL   H16845244   5.479   3.064   2.885 -0.3703  1.1759  1.4874
  119MOL   H16945245   5.491   2.894   2.850  1.4156 -0.9685  0.4224
  119MOL   H17045246   5.208   2.878   3.096  0.1476  2.7819  2.1362
  119MOL   H17145247   5.223   3.001   2.971 -0.6224 -1.3907 -0.6423
  119MOL   H17245248   5.263   2.823   2.958 -0.7890 -0.9862  0.9167
  119MOL   C17345249   5.439   2.690   3.477  0.5299 -0.7437  0.8613
  119MOL   C17445250   5.566   2.744   3.538 -0.9130  0.1833 -0.3026
  119MOL   O17545251   5.550   2.743   3.678  0.0346 -0.3387  0.1630
  119MOL   C17645252   5.548   2.864   3.738 -0.1894 -0.1305 -0.2684
  119MOL   C17745253   5.500   2.837   3.883  0.4781 -0.1833 -0.1073
  119MOL   C17845254   5.349   2.796   3.893 -0.6543 -0.0994 -0.3242
  119MOL   C17945255   5.600   2.740   3.956  0.5585  0.4943  0.0540
  119MOL   H18045256   5.351   2.751   3.502 -1.3210 -0.9892 -4.3408
  119MOL   H18145257   5.409   2.606   3.539 -1.0807 -0.0272  1.1023
  119MOL   H18245258   5.577   2.845   3.498 -0.6148 -0.4808 -1.9218
  119MOL   H18345259   5.468   2.925   3.696  0.7218  1.4322  0.1986
  119MOL   H18445260   5.637   2.926   3.735 -0.5213  0.5884  2.6671
  119MOL   H18545261   5.505   2.932   3.936  0.2565  1.2715 -2.6025
  119MOL   H18645262   5.283   2.880   3.869  0.5519  0.7513 -0.7421
  119MOL   H18745263   5.327   2.707   3.834 -0.8935 -0.9678  1.0693
  119MOL   H18845264   5.323   2.757   3.991  0.6788 -0.4337 -0.0939
  119MOL   H18945265   5.703   2.771   3.942  0.9488 -1.5624 -1.9396
  119MOL   H19045266   5.603   2.640   3.913 -2.8490  0.0514  0.6260
  119MOL   H19145267   5.577   2.720   4.061  0.5650 -0.3081 -0.0921
  119MOL   C19245268   5.682   2.653   3.501 -0.2571 -0.0444  0.2584
  119MOL   C19345269   5.824   2.698   3.557 -0.0059  0.4515  0.3464
  119MOL   O19445270   5.857   2.823   3.492 -0.0851  0.2798  0.5280
  119MOL   C19545271   5.903   2.926   3.571 -0.3905 -0.1833  0.1317
  119MOL   C19645272   5.911   3.053   3.479 -0.4817 -0.5725  0.2402
  119MOL   C19745273   5.771   3.094   3.444 -0.1284 -0.0828 -0.3961
  119MOL   C19845274   6.000   3.036   3.353 -0.5396 -0.1755  0.3143
  119MOL   H19945275   5.695   2.643   3.393  1.5062 -0.8234  0.5303
  119MOL   H20045276   5.665   2.549   3.532  1.4046  0.2950  2.3885
  119MOL   H20145277   5.820   2.709   3.666  0.6856  0.3355  0.3890
  119MOL   H20245278   6.003   2.900   3.605  0.2836  1.9527 -0.1142
  119MOL   H20345279   5.837   2.932   3.658 -1.6130  0.3852 -0.8264
  119MOL   H20445280   5.965   3.129   3.536 -0.0939 -0.6981  0.0410
  119MOL   H20545281   5.709   3.081   3.532  0.4495  2.6852  0.4912
  119MOL   H20645282   5.761   3.198   3.410 -1.6743 -0.0944  0.0057
  119MOL   H20745283   5.721   3.029   3.372 -1.8121  0.2235  0.4664
  119MOL   H20845284   5.982   2.955   3.282  0.6318  0.2534 -0.4786
  119MOL   H20945285   5.996   3.130   3.299 -0.8877  0.0726  0.7693
  119MOL   H21045286   6.101   3.015   3.388 -1.1303  1.7936  3.3641
  119MOL   C21145287   5.939   2.596   3.518  0.6453 -0.1967 -0.2472
  119MOL   C21245288   6.080   2.600   3.580 -0.6250 -0.0111  0.1309
  119MOL   O21345289   6.076   2.519   3.703 -0.5938 -0.4903 -0.9208
  119MOL   C21445290   5.997   2.562   3.813  0.0848  0.2585 -0.4535
  119MOL   C21545291   6.017   2.467   3.934 -0.3692 -0.0464  0.1128
  119MOL   C21645292   5.935   2.533   4.050  0.3011  0.1937  0.6459
  119MOL   C21745293   5.971   2.325   3.912 -0.4018 -1.3186  0.1099
  119MOL   H21845294   5.930   2.584   3.410 -2.7404 -1.2721  0.0706
  119MOL   H21945295   5.893   2.503   3.552 -1.4231 -0.1606 -2.7911
  119MOL   H22045296   6.116   2.702   3.594  0.5685 -0.5490  0.9990
  119MOL   H22145297   5.888   2.560   3.803  0.2256  2.2884 -3.2107
  119MOL   H22245298   6.036   2.661   3.834 -2.2910  0.8899  1.2756
  119MOL   H22345299   6.117   2.464   3.975 -1.3351 -1.7028  2.4312
  119MOL   H22445300   5.829   2.516   4.032  0.0724  2.1054  0.0625
  119MOL   H22545301   5.970   2.483   4.140  1.9141  0.9949  0.4898
  119MOL   H22645302   5.952   2.641   4.049 -2.5000  0.6491 -1.0374
  119MOL   H22745303   5.864   2.320   3.891 -0.1066 -0.4236 -1.7443
  119MOL   H22845304   6.006   2.253   3.985  3.3263 -1.0511 -1.3030
  119MOL   H22945305   6.026   2.302   3.821 -0.4454  2.8631 -1.0825
  119MOL   C23045306   6.169   2.537   3.482  0.4198 -0.1438 -0.2302
  119MOL   C23145307   6.191   2.598   3.337 -0.0675 -0.8198  0.1432
  119MOL   O23245308   6.320   2.657   3.355 -0.4822 -0.0142 -0.1687
  119MOL   C23345309   6.324   2.798   3.348 -0.2051  0.0046 -0.5809
  119MOL   C23445310   6.461   2.859   3.356 -0.8482 -0.0036  0.0514
  119MOL   C23545311   6.549   2.847   3.224 -0.1171 -0.4176  0.4265
  119MOL   C23645312   6.451   3.008   3.384 -0.1187 -0.3456 -0.8164
  119MOL   H23745313   6.128   2.438   3.461  0.5857 -0.0178 -1.1497
  119MOL   H23845314   6.263   2.534   3.537 -0.0838 -1.6293  0.5803
  119MOL   H23945315   6.113   2.668   3.310 -0.0575 -1.7513 -2.3742
  119MOL   H24045316   6.289   2.822   3.247  0.7406 -0.4174 -1.0189
  119MOL   H24145317   6.258   2.836   3.426 -1.3396 -2.8187 -0.1220
  119MOL   H24245318   6.503   2.814   3.447  0.2774 -0.1213 -0.5142
  119MOL   H24345319   6.491   2.892   3.144  0.7872 -0.5758 -0.3266
  119MOL   H24445320   6.565   2.748   3.184 -0.8702 -0.3216 -0.1147
  119MOL   H24545321   6.646   2.897   3.236 -0.0146 -0.5886  0.3102
  119MOL   H24645322   6.549   3.054   3.390  0.1224 -1.0034  0.4096
  119MOL   H24745323   6.382   3.069   3.326 -1.6173 -1.5235 -0.3116
  119MOL   H24845324   6.406   3.031   3.481  1.4733  0.6718 -0.2962
  119MOL   C24945325   6.198   2.486   3.234 -0.9836  0.4807  0.0479
  119MOL   C25045326   6.062   2.414   3.208 -0.5279 -0.2707 -0.0329
  119MOL   O25145327   5.965   2.505   3.155 -0.2753 -0.2174  0.0923
  119MOL   C25245328   5.987   2.558   3.025  0.0137  0.2745 -0.7783
  119MOL   C25345329   5.870   2.658   2.983 -0.9261 -0.4960  0.3871
  119MOL   C25445330   5.871   2.769   3.086 -0.6598  0.6574 -0.0536
  119MOL   C25545331   5.734   2.591   2.973  0.7328  0.1896  0.0767
  119MOL   H25645332   6.282   2.424   3.264 -0.8748  0.9149  0.6384
  119MOL   H25745333   6.229   2.542   3.145  0.0912 -0.1899 -0.0026
  119MOL   H25845334   6.029   2.383   3.307 -0.1235 -0.0441  0.1759
  119MOL   H25945335   6.082   2.607   3.005  1.3261 -2.1340 -0.7111
  119MOL   H26045336   5.990   2.476   2.954 -1.4995 -1.5777  1.1955
  119MOL   H26145337   5.890   2.702   2.885  1.0369  0.8821  1.3594
  119MOL   H26245338   5.825   2.857   3.042 -2.1029 -0.2263 -0.3326
  119MOL   H26345339   5.975   2.802   3.078  0.2451 -1.7224  1.4021
  119MOL   H26445340   5.840   2.751   3.189 -0.7296  0.3596 -0.1257
  119MOL   H26545341   5.731   2.492   2.927 -2.0718  0.3451 -0.1666
  119MOL   H26645342   5.691   2.579   3.073  0.4830 -1.7081 -0.2361
  119MOL   H26745343   5.661   2.654   2.922 -0.6368 -0.7325  0.8846
  119MOL   C26845344   6.058   2.283   3.133  0.0165 -0.0008  0.6992
  119MOL   C26945345   6.138   2.171   3.201  0.1592 -0.2708 -0.0607
  119MOL   O27045346   6.275   2.190   3.163 -0.4414 -0.3006  0.2340
  119MOL   C27145347   6.362   2.095   3.213 -0.5103 -0.0334 -0.6412
  119MOL   C27245348   6.505   2.120   3.162 -0.4519 -0.7636  0.2451
  119MOL   C27345349   6.603   2.022   3.226 -0.3434  0.0678  0.3659
  119MOL   C27445350   6.520   2.109   3.007 -1.0171 -0.0976 -0.2720
  119MOL   H27545351   6.100   2.299   3.033 -0.5322  0.6946  0.5779
  119MOL   H27645352   5.955   2.247   3.132  0.1032 -0.3353 -2.2798
  119MOL   H27745353   6.131   2.183   3.309  0.9104 -0.3884  0.0025
  119MOL   H27845354   6.360   2.087   3.322  0.7101 -0.4289 -0.6408
  119MOL   H27945355   6.336   1.997   3.174  1.8987 -1.1347  0.4253
  119MOL   H28045356   6.523   2.219   3.204 -2.0308  0.0109 -0.8260
  119MOL   H28145357   6.559   1.924   3.211 -0.1424  0.0780 -0.2890
  119MOL   H28245358   6.602   2.042   3.333  0.7950  1.7285  0.0950
  119MOL   H28345359   6.707   2.035   3.197 -0.3928 -0.0349  0.1410
  119MOL   H28445360   6.621   2.129   2.972 -0.3616 -2.3128  0.2551
  119MOL   H28545361   6.459   2.183   2.956  0.2049  0.8499 -0.3918
  119MOL   H28645362   6.482   2.011   2.978 -1.8338 -0.1587  0.9271
  119MOL   C28745363   6.081   2.027   3.175 -0.4802 -0.0806  0.7892
  119MOL   C28845364   6.036   1.993   3.029 -0.7512 -0.5942 -0.3316
  119MOL   O28945365   5.977   1.864   3.048  0.3116 -0.8972 -0.0008
  119MOL   C29045366   5.842   1.854   3.084  0.4876  1.0164 -0.3209
  119MOL   C29145367   5.782   1.713   3.057  0.7808  0.4581  0.3691
  119MOL   C29245368   5.629   1.699   3.078  0.0800 -0.5110  0.0997
  119MOL   C29345369   5.857   1.608   3.138  0.2064 -0.1445 -0.2057
  119MOL   H29445370   5.990   2.024   3.236 -1.4005  3.0158 -0.3195
  119MOL   H29545371   6.135   1.949   3.229 -2.0181 -0.0904  2.3618
  119MOL   H29645372   5.964   2.064   2.989 -1.2861 -0.3317  1.0873
  119MOL   H29745373   5.832   1.889   3.187 -0.6348 -0.2552  0.0300
  119MOL   H29845374   5.785   1.915   3.015  0.9538  0.6896 -0.9932
  119MOL   H29945375   5.812   1.697   2.953 -0.0986 -0.2425  0.2124
  119MOL   H30045376   5.599   1.702   3.183 -3.2643 -0.5685 -0.8090
  119MOL   H30145377   5.593   1.602   3.045  0.7258 -1.2744  1.5463
  119MOL   H30245378   5.577   1.777   3.022  1.3913 -0.7077 -1.3976
  119MOL   H30345379   5.810   1.512   3.121  2.7353 -1.3492 -0.6943
  119MOL   H30445380   5.966   1.606   3.133  0.2823  2.1061 -0.0992
  119MOL   H30545381   5.848   1.622   3.246 -1.1469  2.2792 -0.6019
  119MOL   C30645382   6.153   2.004   2.939  0.1909 -0.1378 -0.2105
  119MOL   C30745383   6.128   1.992   2.789  1.0211  0.6283  0.3083
  119MOL   O30845384   6.232   2.050   2.717  0.2298  0.7516 -0.1004
  119MOL   C30945385   6.233   2.189   2.676  0.7734  0.0840 -0.2612
  119MOL   C31045386   6.363   2.212   2.588  0.0580 -0.2493 -0.1825
  119MOL   C31145387   6.375   2.103   2.478  0.0151  0.7185  0.9624
  119MOL   C31245388   6.493   2.200   2.669 -0.7177  0.0771  0.4199
  119MOL   H31345389   6.230   1.931   2.965  0.1277 -0.6718 -1.4771
  119MOL   H31445390   6.215   2.092   2.957  2.6154 -2.1540  1.7839
  119MOL   H31545391   6.050   2.061   2.755  1.2574  1.4029  1.3032
  119MOL   H31645392   6.232   2.249   2.766  0.2449 -1.2933  0.6660
  119MOL   H31745393   6.138   2.205   2.625 -0.1020  0.5240  1.4765
  119MOL   H31845394   6.345   2.307   2.539  0.9383  0.7760  1.4324
  119MOL   H31945395   6.390   2.002   2.517  2.6393  0.0171 -1.7711
  119MOL   H32045396   6.460   2.113   2.412 -0.7431 -0.8758 -0.3023
  119MOL   H32145397   6.288   2.093   2.412 -1.0978  4.3904  1.7410
  119MOL   H32245398   6.580   2.186   2.605  0.0715  1.0693  1.2598
  119MOL   H32345399   6.486   2.111   2.732 -0.7553 -0.4927 -0.3860
  119MOL   H32445400   6.507   2.299   2.714 -2.3972 -0.1881  1.6093
  119MOL   C32545401   6.105   1.849   2.742  0.8909 -0.1759  0.1460
  119MOL   C32645402   5.998   1.834   2.634 -0.2036  0.5504 -0.2795
  119MOL   O32745403   6.031   1.732   2.542  0.3957  0.0418  0.0442
  119MOL   C32845404   5.991   1.755   2.415 -0.3460 -0.9916 -0.1781
  119MOL   C32945405   6.064   1.654   2.326  0.8265 -0.1474  0.3839
  119MOL   C33045406   6.216   1.668   2.327  0.0700 -0.1163  0.4769
  119MOL   C33145407   6.029   1.507   2.365 -0.0892  0.4257 -0.1603
  119MOL   H33245408   6.078   1.779   2.821  0.5603  1.2892  1.3543
  119MOL   H33345409   6.202   1.821   2.701  1.5504  1.3144  0.6445
  119MOL   H33445410   5.999   1.925   2.573 -0.0333 -0.1891 -1.3954
  119MOL   H33545411   5.884   1.737   2.404 -0.9589  1.7854  0.7230
  119MOL   H33645412   6.027   1.851   2.377 -2.4704  0.6626  1.8336
  119MOL   H33745413   6.013   1.680   2.233 -0.4505  0.2627  1.1804
  119MOL   H33845414   6.247   1.632   2.425  0.5551  0.9309  0.7207
  119MOL   H33945415   6.266   1.604   2.254 -0.6367 -0.1842  0.0463
  119MOL   H34045416   6.247   1.771   2.307 -1.7393  0.3939  0.2605
  119MOL   H34145417   6.047   1.441   2.280 -1.2184 -0.5909  0.3685
  119MOL   H34245418   6.078   1.459   2.450 -0.2798  0.3680 -0.0836
  119MOL   H34345419   5.923   1.491   2.387 -0.0120 -0.7465 -0.6018
  119MOL   C34445420   5.865   1.808   2.699 -0.1254  0.2638  0.1669
  119MOL   C34545421   5.743   1.875   2.641  0.2426  0.1355  0.9746
  119MOL   O34645422   5.632   1.792   2.670  0.3501  0.3996 -0.6647
  119MOL   C34745423   5.589   1.701   2.566 -0.2976 -0.4240 -0.5047
  119MOL   C34845424   5.462   1.618   2.617 -0.1948  0.4338 -0.1851
  119MOL   C34945425   5.348   1.702   2.664 -0.0513  0.1167 -0.1393
  119MOL   C35045426   5.497   1.533   2.738 -0.0632 -0.6497 -0.0939
  119MOL   H35145427   5.876   1.833   2.804  2.6944 -0.2551  0.0551
  119MOL   H35245428   5.844   1.702   2.707 -0.2259  0.4225  2.0731
  119MOL   H35345429   5.749   1.903   2.536  0.2448 -1.2580  0.5878
  119MOL   H35445430   5.665   1.626   2.545  0.1899  0.0063 -0.2773
  119MOL   H35545431   5.567   1.753   2.473 -0.0809  0.6512  0.0313
  119MOL   H35645432   5.430   1.545   2.543  1.3121 -1.7006  1.2042
  119MOL   H35745433   5.253   1.648   2.664  0.3473 -0.6490 -2.2012
  119MOL   H35845434   5.350   1.793   2.604 -0.8272  1.5891  2.0050
  119MOL   H35945435   5.364   1.735   2.766  0.1290  0.5163 -0.2973
  119MOL   H36045436   5.530   1.602   2.815  0.7294 -0.3163 -0.7262
  119MOL   H36145437   5.413   1.474   2.776  0.1602 -0.0535  1.3537
  119MOL   H36245438   5.573   1.460   2.711 -0.5335 -0.1711 -2.8803
  119MOL   C36345439   5.715   2.010   2.702 -0.2663  0.1802 -0.0902
  119MOL   C36445440   5.599   2.089   2.641  0.2034 -0.0500 -0.1283
  119MOL   O36545441   5.578   2.204   2.728 -0.2498 -0.8058  0.5751
  119MOL   C36645442   5.447   2.264   2.722 -0.4803 -0.5379  0.4140
  119MOL   C36745443   5.440   2.377   2.832  1.2084  0.4753 -0.1439
  119MOL   C36845444   5.447   2.328   2.975  0.0839 -0.3931 -0.2286
  119MOL   C36945445   5.315   2.472   2.813 -0.2558  1.1682 -0.4300
  119MOL   H37045446   5.678   1.993   2.804 -1.0997 -0.2804 -0.4606
  119MOL   H37145447   5.810   2.059   2.718  0.7635 -2.0294  0.8283
  119MOL   H37245448   5.524   2.011   2.634 -0.5990  0.7632 -0.6939
  119MOL   H37345449   5.434   2.295   2.619 -1.9983 -3.0089 -0.1575
  119MOL   H37445450   5.373   2.185   2.731  0.5274 -1.3967  1.3672
  119MOL   H37545451   5.524   2.445   2.821  2.6770 -1.1928  0.5835
  119MOL   H37645452   5.362   2.266   3.005  0.2508  0.4206  2.0050
  119MOL   H37745453   5.443   2.405   3.052 -1.1394 -1.0242  0.3500
  119MOL   H37845454   5.529   2.259   2.996  2.0004  1.2237 -2.1613
  119MOL   H37945455   5.226   2.413   2.834 -0.7132  0.8344 -3.1134
  119MOL   H38045456   5.299   2.510   2.712  0.8515  0.4612 -0.8765
  119MOL   H38145457   5.316   2.556   2.882 -0.1422  0.7331  0.1109
  119MOL   H38245458   5.623   2.109   2.537 -0.6676 -1.4635 -0.6123
  120MOL     C145459   1.678   0.226   4.288  0.3246 -0.0854  0.1384
  120MOL     C245460   1.525   0.259   4.301  0.9005 -0.5083  0.2063
  120MOL     O345461   1.524   0.401   4.308  0.1144  0.9917 -0.6032
  120MOL     C445462   1.504   0.454   4.439  1.1372 -0.5856  0.3931
  120MOL     C545463   1.520   0.604   4.419  0.2450 -0.6035 -0.4898
  120MOL     C645464   1.452   0.665   4.294 -0.0489  0.1071  0.2584
  120MOL     C745465   1.673   0.630   4.410  0.2806  0.6797 -0.5349
  120MOL     H845466   1.734   0.265   4.374  0.6433  0.1313 -0.1670
  120MOL     H945467   1.701   0.120   4.285  2.9679  0.3811  2.0657
  120MOL    H1045468   1.488   0.212   4.393  2.6723  1.6901  2.1055
  120MOL    H1145469   1.572   0.406   4.510  0.5047 -0.6863  0.9340
  120MOL    H1245470   1.400   0.427   4.455  1.1470  0.0321  1.5103
  120MOL    H1345471   1.501   0.653   4.515  0.5275  1.3256 -1.4131
  120MOL    H1445472   1.511   0.659   4.203 -0.4311  3.1727 -0.2308
  120MOL    H1545473   1.356   0.624   4.265  1.5822 -1.1397 -3.7510
  120MOL    H1645474   1.445   0.773   4.302 -0.1858  0.1826 -0.7999
  120MOL    H1745475   1.727   0.595   4.321  0.4963  0.1092 -0.1838
  120MOL    H1845476   1.698   0.736   4.411  2.7761  0.1372 -1.1475
  120MOL    H1945477   1.731   0.596   4.496  1.5536  2.4038 -0.6797
  120MOL    H2045478   1.716   0.272   4.197  0.0566 -0.3686 -0.1177
  120MOL    C2145479   1.446   0.213   4.172  0.5592  0.0609  0.0240
  120MOL    C2245480   1.293   0.229   4.169 -0.5131 -0.3038  0.2117
  120MOL    O2345481   1.244   0.170   4.041 -0.1991  0.4054 -0.1600
  120MOL    C2445482   1.129   0.236   3.973  0.0942 -0.3985  0.5041
  120MOL    C2545483   1.046   0.132   3.900 -0.2564 -0.0667 -0.0506
  120MOL    C2645484   0.966   0.206   3.790  0.1895  0.3481  0.2987
  120MOL    C2745485   1.127   0.024   3.832  0.3657  0.7768 -1.2638
  120MOL    H2845486   1.490   0.268   4.088  0.7515 -0.4986 -0.2433
  120MOL    H2945487   1.469   0.117   4.127 -1.6429 -0.6474  0.3939
  120MOL    H3045488   1.281   0.338   4.165  1.8117 -0.0606 -0.6906
  120MOL    H3145489   1.175   0.324   3.929 -2.9876  1.6630  1.2337
  120MOL    H3245490   1.066   0.286   4.046  1.3404  0.3473  1.0898
  120MOL    H3345491   0.971   0.072   3.952  0.3392 -2.0096 -1.3434
  120MOL    H3445492   0.894   0.271   3.838  1.3009  1.4745  0.4622
  120MOL    H3545493   0.910   0.136   3.727  2.6559 -1.0824 -0.4129
  120MOL    H3645494   1.029   0.268   3.725  0.7323  0.0028  0.4878
  120MOL    H3745495   1.070   7.800   3.752  0.9519 -0.8449 -0.7283
  120MOL    H3845496   1.220   0.067   3.797 -0.4296  3.3994 -0.2361
  120MOL    H3945497   1.149   7.767   3.901 -2.2381  0.2766 -0.9690
  120MOL    C4045498   1.229   0.161   4.291 -0.1685 -0.2336  0.7466
  120MOL    C4145499   1.086   0.215   4.325  0.1462  0.6845 -0.1283
  120MOL    O4245500   1.117   0.347   4.353  0.0788 -0.5612  0.7353
  120MOL    C4345501   1.005   0.431   4.371  0.0673 -0.6889  0.3084
  120MOL    C4445502   1.045   0.574   4.380  0.5669 -0.2745  0.3833
  120MOL    C4545503   0.941   0.682   4.381  0.1278  0.2016  0.0387
  120MOL    C4645504   1.135   0.600   4.511  0.3027 -0.1139  0.1244
  120MOL    H4745505   1.286   0.186   4.380 -0.4603 -0.3992  0.9825
  120MOL    H4845506   1.225   0.052   4.291 -0.2727 -0.2652 -1.4989
  120MOL    H4945507   1.021   0.199   4.239 -2.4212 -0.1789  1.9082
  120MOL    H5045508   0.949   0.400   4.460  0.3387 -0.4930  0.5451
  120MOL    H5145509   0.945   0.423   4.281  0.6972  0.0548 -0.1735
  120MOL    H5245510   1.104   0.593   4.291  0.0047  1.5069  0.3600
  120MOL    H5345511   0.893   0.695   4.284 -1.1740 -1.3160  0.4620
  120MOL    H5445512   0.867   0.669   4.460 -0.5452  1.6606 -0.3310
  120MOL    H5545513   0.986   0.776   4.414 -0.5034 -0.2627  2.3111
  120MOL    H5645514   1.080   0.641   4.595  0.5169  0.1600  0.1308
  120MOL    H5745515   1.202   0.678   4.474 -1.0608  0.5605 -0.9835
  120MOL    H5845516   1.204   0.527   4.552 -0.3199 -0.2977  0.8455
  120MOL    C5945517   1.027   0.137   4.451 -0.1331 -0.0969 -0.2302
  120MOL    C6045518   0.974   7.822   4.427 -0.6030 -0.2559  0.4225
  120MOL    O6145519   0.846   0.021   4.354  0.2950 -0.0316 -0.6344
  120MOL    C6245520   0.824   7.761   4.235 -0.0915 -0.2344  0.3834
  120MOL    C6345521   0.802   7.610   4.269 -0.6108 -0.8741  0.0460
  120MOL    C6445522   0.668   7.593   4.339  0.3620 -0.6608  0.1089
  120MOL    C6545523   0.799   7.534   4.132 -0.3626  0.3689 -0.1869
  120MOL    H6645524   0.940   0.191   4.490 -1.1780 -1.2802 -0.8807
  120MOL    H6745525   1.102   0.137   4.530  0.9182 -0.1639 -1.2169
  120MOL    H6845526   1.044   7.768   4.363 -0.8994 -0.3051  0.1399
  120MOL    H6945527   0.740   7.789   4.172  0.0128  0.2867  0.4732
  120MOL    H7045528   0.913   7.777   4.174 -0.6552 -0.9080 -0.6298
  120MOL    H7145529   0.893   7.568   4.313  0.9840 -0.3999 -2.6321
  120MOL    H7245530   0.644   7.487   4.346  0.0388 -0.6648 -0.8651
  120MOL    H7345531   0.588   7.636   4.279  1.6673 -0.3785 -1.4625
  120MOL    H7445532   0.666   7.641   4.436 -0.9207 -0.5923  0.0599
  120MOL    H7545533   0.733   7.571   4.054  1.5933  0.2012 -1.9706
  120MOL    H7645534   0.894   7.538   4.078  0.1295 -0.7516  0.5729
  120MOL    H7745535   0.787   7.427   4.151 -0.7570 -0.2839 -3.6847
  120MOL    C7845536   0.944   7.746   4.556  0.2620 -0.2467  0.0231
  120MOL    C7945537   1.064   7.679   4.623  0.3477  0.1089  1.2448
  120MOL    O8045538   1.016   7.599   4.722  0.1423  0.2349 -0.0271
  120MOL    C8145539   1.046   7.642   4.855 -0.2476 -0.7444  0.3432
  120MOL    C8245540   0.986   7.543   4.953 -0.0311  0.2089 -0.1855
  120MOL    C8345541   0.966   7.589   5.098 -0.1722 -0.5076  0.2790
  120MOL    C8445542   1.066   7.414   4.961  0.2357  0.6272 -0.2184
  120MOL    H8545543   0.873   7.670   4.523 -1.5339  1.6602 -0.5371
  120MOL    H8645544   0.894   7.820   4.617  1.7037  0.3500  0.5118
  120MOL    H8745545   1.128   7.754   4.670  0.6066 -1.0135  2.7369
  120MOL    H8845546   1.154   7.644   4.871 -0.4550  1.1925  1.7329
  120MOL    H8945547   0.994   7.737   4.873  0.9092  0.2069 -1.1963
  120MOL    H9045548   0.883   7.520   4.924  0.9783 -0.8286 -3.1536
  120MOL    H9145549   0.944   7.696   5.101 -1.7963 -0.8545  1.4825
  120MOL    H9245550   1.057   7.590   5.158 -0.5499  3.1037  0.9148
  120MOL    H9345551   0.892   7.530   5.152 -1.2977  2.3663  1.9679
  120MOL    H9445552   1.093   7.377   4.862 -2.2650 -0.2731 -0.5987
  120MOL    H9545553   1.005   7.345   5.020  2.4777 -0.7408  0.5666
  120MOL    H9645554   1.163   7.431   5.009 -0.5755 -1.7555  2.3760
  120MOL    C9745555   1.149   7.587   4.532  0.6431 -0.3663 -0.0230
  120MOL    C9845556   1.286   7.535   4.590 -0.2177  0.5560  0.7227
  120MOL    O9945557   1.371   7.651   4.603 -0.8078  0.0451  0.1368
  120MOL   C10045558   1.423   7.676   4.737 -0.0408  0.2475 -0.2715
  120MOL   C10145559   1.500   7.816   4.726 -0.0204  0.4820 -0.2640
  120MOL   C10245560   1.614   7.823   4.623  0.0660 -0.1138 -0.5217
  120MOL   C10345561   1.393   0.095   4.684 -0.0897  0.0200  0.7021
  120MOL   H10445562   1.180   7.647   4.447 -2.8081  1.3024 -0.1959
  120MOL   H10545563   1.094   7.496   4.508 -0.8107 -0.4719  3.4055
  120MOL   H10645564   1.276   7.491   4.690  1.5296 -0.3724  0.5074
  120MOL   H10745565   1.492   7.594   4.760 -2.2223 -1.4489  0.4588
  120MOL   H10845566   1.360   7.685   4.826  0.5516 -0.9510  0.2871
  120MOL   H10945567   1.527   0.025   4.826 -0.2525 -0.2198  0.0450
  120MOL   H11045568   1.585   7.768   4.534 -2.6714  1.1255 -0.4429
  120MOL   H11145569   1.624   0.103   4.592  1.5914  0.6576  2.4208
  120MOL   H11245570   1.709   7.784   4.660  1.4502  3.1269 -0.4906
  120MOL   H11345571   1.306   0.090   4.749 -0.5182  1.2492  0.2502
  120MOL   H11445572   1.430   0.197   4.690 -0.2433  0.1782 -0.8182
  120MOL   H11545573   1.364   0.087   4.580  2.9861 -1.2796 -0.1249
  120MOL   C11645574   1.353   7.442   4.485  0.4260 -0.6503 -0.6644
  120MOL   C11745575   1.458   7.343   4.547 -0.2889  0.0829  0.2146
  120MOL   O11845576   1.379   7.252   4.615  0.1278  0.2343  0.0523
  120MOL   C11945577   1.464   7.195   4.714 -0.4113  0.1707 -0.0429
  120MOL   C12045578   1.395   7.075   4.781  0.7538  0.6428 -0.2557
  120MOL   C12145579   1.480   7.015   4.892  0.2427 -0.3993 -0.3108
  120MOL   C12245580   1.254   7.111   4.822 -0.0976  0.0519 -0.1558
  120MOL   H12345581   1.274   7.390   4.431 -1.4831  0.7331  0.7422
  120MOL   H12445582   1.397   7.510   4.412 -0.2388  0.2002 -0.2907
  120MOL   H12545583   1.524   7.395   4.616  1.7507 -1.9880 -0.1105
  120MOL   H12645584   1.481   7.266   4.795 -0.1329  0.3121 -0.2240
  120MOL   H12745585   1.563   7.174   4.673  0.2027  0.7514  1.1086
  120MOL   H12845586   1.393   7.000   4.702 -1.8892  0.3719  0.0186
  120MOL   H12945587   1.585   6.998   4.868  0.0960 -0.9393 -0.6020
  120MOL   H13045588   1.432   6.925   4.931 -0.1511  0.1172  0.4009
  120MOL   H13145589   1.486   7.095   4.965  2.1154  0.1312 -1.0208
  120MOL   H13245590   1.202   7.035   4.880  1.7817 -2.6413 -1.8361
  120MOL   H13345591   1.265   7.205   4.876  0.2909  1.8991 -3.3124
  120MOL   H13445592   1.198   7.135   4.732  0.8260  1.1067 -0.4637
  120MOL   C13545593   1.531   7.269   4.431  0.6174 -0.2176 -0.1428
  120MOL   C13645594   1.651   7.351   4.369  0.3059  0.0424 -0.0112
  120MOL   O13745595   1.756   7.358   4.467 -0.0785 -0.8828 -0.5287
  120MOL   C13845596   1.807   7.488   4.502  0.2510  0.1635 -0.2944
  120MOL   C13945597   1.883   7.480   4.641  0.1934  0.8142  0.6258
  120MOL   C14045598   1.981   7.591   4.669 -0.5436  0.3016 -0.2690
  120MOL   C14145599   1.792   7.465   4.764  0.8569 -0.1742 -0.2683
  120MOL   H14245600   1.573   7.177   4.472 -0.4637 -0.0244  1.4333
  120MOL   H14345601   1.452   7.241   4.362 -0.0111  0.8222  0.1374
  120MOL   H14445602   1.621   7.453   4.347  0.5335 -0.0271 -0.6476
  120MOL   H14545603   1.727   7.561   4.518 -1.0206 -1.1042 -0.7920
  120MOL   H14645604   1.879   7.515   4.426 -0.6733  2.0964 -0.5261
  120MOL   H14745605   1.945   7.391   4.644 -0.0411  0.6622  0.9642
  120MOL   H14845606   2.042   7.562   4.754 -0.4115  2.1404  0.2774
  120MOL   H14945607   1.922   7.679   4.693 -1.4484 -0.6359  1.0354
  120MOL   H15045608   2.056   7.605   4.591 -0.6766 -0.3103 -0.5100
  120MOL   H15145609   1.714   7.540   4.752 -0.6728 -1.4009  1.7229
  120MOL   H15245610   1.754   7.363   4.757 -0.5326  0.3070  0.2558
  120MOL   H15345611   1.838   7.477   4.862  0.2896 -0.2383  0.0047
  120MOL   C15445612   1.706   7.290   4.241  0.3297 -0.3579  0.0643
  120MOL   C15545613   1.617   7.287   4.118  0.0814 -0.1072  0.1818
  120MOL   O15645614   1.577   7.421   4.103  0.2059  0.2885  0.0242
  120MOL   C15745615   1.444   7.444   4.124 -0.5496  0.0509  0.7146
  120MOL   C15845616   1.405   7.589   4.105 -0.3408  0.1499 -0.6780
  120MOL   C15945617   1.437   7.632   3.959  0.2787  0.3609  1.0078
  120MOL   C16045618   1.261   7.610   4.133 -0.7780  0.3776  0.3185
  120MOL   H16145619   1.726   7.186   4.268  1.4221 -0.9476 -2.8321
  120MOL   H16245620   1.797   7.343   4.214 -0.8141  0.7556 -1.7114
  120MOL   H16345621   1.535   7.220   4.143 -1.1438  0.7311 -1.5413
  120MOL   H16445622   1.417   7.411   4.225  0.6280 -0.0625  0.9919
  120MOL   H16545623   1.385   7.377   4.062  0.4978 -0.0540 -0.1707
  120MOL   H16645624   1.468   7.647   4.172  0.1311 -0.1167 -0.8918
  120MOL   H16745625   1.395   7.565   3.883  0.6615  1.1082  0.1184
  120MOL   H16845626   1.544   7.628   3.938  0.0661  1.6849 -0.4377
  120MOL   H16945627   1.415   7.735   3.932 -2.4921 -0.2578  0.7305
  120MOL   H17045628   1.240   7.716   4.121  2.2684  0.6714 -3.4433
  120MOL   H17145629   1.194   7.563   4.060 -0.0532 -0.6913  0.3353
  120MOL   H17245630   1.225   7.572   4.228  1.0655  1.0317  1.2900
  120MOL   C17345631   1.673   7.239   3.983  0.1424  0.6498 -0.4269
  120MOL   C17445632   1.571   7.222   3.872 -0.3507 -0.2789  0.6268
  120MOL   O17545633   1.639   7.189   3.746 -0.2746  0.2979 -0.6589
  120MOL   C17645634   1.708   7.292   3.694 -0.0243  0.4807  1.1549
  120MOL   C17745635   1.751   7.260   3.549 -0.0436 -0.4349  0.7058
  120MOL   C17845636   1.649   7.173   3.469 -0.9329 -0.4284 -0.7594
  120MOL   C17945637   1.796   7.383   3.472 -0.6036  0.3058 -0.0442
  120MOL   H18045638   1.744   7.317   3.953 -0.4814  1.6567  0.6753
  120MOL   H18145639   1.732   7.148   3.989 -0.4406  0.3248  0.4135
  120MOL   H18245640   1.516   7.316   3.867 -0.6041 -0.3820  1.4391
  120MOL   H18345641   1.799   7.314   3.749  0.3451  0.7561  0.4432
  120MOL   H18445642   1.636   7.373   3.695  0.9915  1.4198 -0.1709
  120MOL   H18545643   1.834   7.189   3.545  0.4591  0.2273 -1.6470
  120MOL   H18645644   1.550   7.216   3.456 -1.4815  0.6544  5.4529
  120MOL   H18745645   1.699   7.146   3.375  0.9247 -0.7784  0.3071
  120MOL   H18845646   1.644   7.079   3.523  2.4142 -1.0142 -1.3321
  120MOL   H18945647   1.825   7.354   3.371  1.5394  1.2057  0.2708
  120MOL   H19045648   1.877   7.441   3.518  0.2883 -2.0885  1.5530
  120MOL   H19145649   1.712   7.452   3.465  0.3808  1.5371  0.0664
  120MOL   C19245650   1.472   7.104   3.888 -0.1326 -0.2869  0.0413
  120MOL   C19345651   1.373   7.088   3.770 -0.2164 -0.4748 -0.4975
  120MOL   O19445652   1.267   7.177   3.807 -0.1404 -0.5440 -0.5329
  120MOL   C19545653   1.196   7.248   3.701  0.1928 -0.7335  0.0209
  120MOL   C19645654   1.106   7.352   3.772  1.1196 -0.1653  0.0659
  120MOL   C19745655   1.015   7.278   3.882  0.3316 -0.5643 -0.0188
  120MOL   C19845656   1.030   7.429   3.663  0.3988 -0.4524 -0.2200
  120MOL   H19945657   1.421   7.099   3.984  1.6590  0.1730  1.0179
  120MOL   H20045658   1.536   7.016   3.885 -1.5804 -1.3832  0.5553
  120MOL   H20145659   1.421   7.121   3.678 -0.0357  1.2735  0.2163
  120MOL   H20245660   1.129   7.176   3.654  0.1988 -3.0397  3.3334
  120MOL   H20345661   1.270   7.287   3.632  0.4997 -1.1685  0.0997
  120MOL   H20445662   1.170   7.418   3.830 -0.3546  1.4488 -0.1141
  120MOL   H20545663   1.059   7.211   3.955 -1.6371 -2.1459 -0.2347
  120MOL   H20645664   0.956   7.345   3.945  0.3394 -0.5525 -0.0243
  120MOL   H20745665   0.952   7.204   3.832 -0.3196 -0.1544  0.1784
  120MOL   H20845666   0.950   7.380   3.607 -0.6597 -0.0442  0.9009
  120MOL   H20945667   0.964   7.507   3.702 -1.6251 -1.1567 -2.1791
  120MOL   H21045668   1.102   7.470   3.592  0.4877  1.4680  0.9321
  120MOL   C21145669   1.313   6.949   3.751 -1.4110  0.2835  0.4940
  120MOL   C21245670   1.408   6.853   3.676 -0.2099 -0.7031 -0.5478
  120MOL   O21345671   1.518   6.810   3.760  0.1166 -0.3169  0.1343
  120MOL   C21445672   1.649   6.843   3.712 -0.2951 -0.3995  0.6262
  120MOL   C21545673   1.758   6.771   3.803  0.2538  0.2115 -0.4922
  120MOL   C21645674   1.740   6.806   3.956  0.6294 -0.2644 -0.2399
  120MOL   C21745675   1.759   6.622   3.791 -0.1042  0.1382  1.1368
  120MOL   H21845676   1.217   6.951   3.700 -1.0250  0.4188 -0.2288
  120MOL   H21945677   1.292   6.909   3.850 -1.5600 -1.0527 -0.0739
  120MOL   H22045678   1.453   6.895   3.586 -0.3923  1.5136  0.3554
  120MOL   H22145679   1.669   6.950   3.709 -0.7825 -0.2880  1.2403
  120MOL   H22245680   1.669   6.813   3.609  0.5634  1.5940  0.1923
  120MOL   H22345681   1.855   6.815   3.778  0.9673 -0.0680  1.7547
  120MOL   H22445682   1.736   6.911   3.985 -0.6795 -0.3883  0.0893
  120MOL   H22545683   1.642   6.774   3.991 -0.5407  1.6899 -1.6592
  120MOL   H22645684   1.815   6.770   4.027 -1.4011  0.8340  2.5518
  120MOL   H22745685   1.781   6.594   3.688  1.7794  1.7338  1.0771
  120MOL   H22845686   1.656   6.587   3.801 -0.0219 -0.3401  0.3568
  120MOL   H22945687   1.835   6.573   3.851  0.9306  0.8109  0.4046
  120MOL   C23045688   1.331   6.725   3.638 -0.5679  0.2003 -0.9480
  120MOL   C23145689   1.226   6.740   3.518  0.4491 -0.3297  0.0061
  120MOL   O23245690   1.303   6.779   3.406  0.2505  0.0403  0.6013
  120MOL   C23345691   1.233   6.866   3.320 -0.1221 -0.4206  0.3315
  120MOL   C23445692   1.323   6.924   3.206 -0.2808 -0.2994 -0.0461
  120MOL   C23545693   1.237   7.000   3.106  0.6254 -0.1870  0.2543
  120MOL   C23645694   1.430   7.017   3.261  0.9154 -0.3002 -0.8537
  120MOL   H23745695   1.278   6.681   3.723  0.0381 -0.9524 -1.1655
  120MOL   H23845696   1.408   6.653   3.613 -0.2903 -0.1892  0.9265
  120MOL   H23945697   1.159   6.817   3.555 -1.4185 -1.2315 -1.4178
  120MOL   H24045698   1.153   6.807   3.275 -0.2926  0.7601 -0.9500
  120MOL   H24145699   1.191   6.948   3.378 -0.5051  0.1566 -0.7583
  120MOL   H24245700   1.385   6.855   3.149  0.2434 -1.0003  1.3650
  120MOL   H24345701   1.284   7.051   3.021 -2.2947  2.5264  0.1754
  120MOL   H24445702   1.180   7.083   3.148 -1.3817 -0.3592 -2.0410
  120MOL   H24545703   1.169   6.932   3.054  0.6005 -0.2733  0.4002
  120MOL   H24645704   1.516   6.954   3.280  0.8913 -0.0673  0.0441
  120MOL   H24745705   1.472   7.083   3.185 -3.0377  0.7567 -2.2657
  120MOL   H24845706   1.394   7.062   3.353  0.6404  0.5979 -1.3961
  120MOL   C24945707   1.143   6.611   3.504 -0.2004  0.2331 -0.3102
  120MOL   C25045708   1.207   6.467   3.509  0.2208  0.2080 -0.1642
  120MOL   O25145709   1.104   6.372   3.509 -0.1703 -0.5931 -0.3747
  120MOL   C25245710   1.046   6.345   3.639  0.2734  0.5734 -0.0112
  120MOL   C25345711   0.932   6.247   3.630 -0.0607  0.6955  0.2514
  120MOL   C25445712   0.980   6.110   3.585  0.3328  0.8753 -0.3195
  120MOL   C25545713   0.825   6.286   3.528 -0.2287  0.1386  0.3509
  120MOL   H25645714   1.082   6.620   3.414 -1.2849 -0.1101  0.3729
  120MOL   H25745715   1.069   6.616   3.584 -1.6926 -0.9782 -1.5826
  120MOL   H25845716   1.282   6.459   3.587  0.2614 -0.2814 -0.2567
  120MOL   H25945717   1.129   6.303   3.697  0.8683  1.8972  0.1069
  120MOL   H26045718   1.013   6.432   3.695 -0.0814  0.2355  0.3047
  120MOL   H26145719   0.872   6.233   3.720 -0.1799  1.3594  0.2735
  120MOL   H26245720   1.047   6.106   3.498  1.5212 -2.5427  0.6552
  120MOL   H26345721   0.901   6.038   3.561  0.6582  0.5301 -0.3546
  120MOL   H26445722   1.045   6.053   3.652 -0.2511 -0.7815 -1.1224
  120MOL   H26545723   0.773   6.375   3.563 -1.6547 -0.1732 -0.9366
  120MOL   H26645724   0.869   6.321   3.434  0.8845  0.1557  0.8634
  120MOL   H26745725   0.751   6.208   3.511 -0.2249 -0.1837  1.7845
  120MOL   C26845726   1.274   6.444   3.376  0.4695 -0.0261 -0.2372
  120MOL   C26945727   1.333   6.306   3.359  0.5190  0.1353  0.1992
  120MOL   O27045728   1.453   6.309   3.438 -0.1494 -0.1581  1.0187
  120MOL   C27145729   1.468   6.198   3.527  0.6938 -0.3911  0.1599
  120MOL   C27245730   1.608   6.209   3.585  0.2593  0.3083  0.2297
  120MOL   C27345731   1.630   6.346   3.652  0.0825  0.0815  0.5053
  120MOL   C27445732   1.637   6.094   3.687 -0.0667 -0.0675  0.2641
  120MOL   H27545733   1.346   6.522   3.354 -0.7193  1.4113  0.8890
  120MOL   H27645734   1.191   6.456   3.306 -3.4647 -2.4525  3.7771
  120MOL   H27745735   1.262   6.230   3.391 -0.5108  1.2548  0.6094
  120MOL   H27845736   1.391   6.198   3.604  1.9944 -0.7276  1.4938
  120MOL   H27945737   1.438   6.107   3.475 -1.1434  0.6642 -0.6600
  120MOL   H28045738   1.679   6.201   3.502  0.1909 -1.4276  0.3199
  120MOL   H28145739   1.550   6.380   3.718 -0.9631 -1.1188 -0.1452
  120MOL   H28245740   1.619   6.428   3.580 -0.5694 -1.0006 -0.6366
  120MOL   H28345741   1.729   6.370   3.691  0.6807  0.7978 -1.4075
  120MOL   H28445742   1.728   6.106   3.747  1.2440  2.4995 -2.0702
  120MOL   H28545743   1.644   5.998   3.637  0.3720 -0.5596  1.2585
  120MOL   H28645744   1.556   6.097   3.759 -0.2314 -1.3099  0.1422
  120MOL   C28745745   1.376   6.278   3.214  0.1413 -0.8606 -0.1999
  120MOL   C28845746   1.261   6.240   3.121  0.4115 -0.2334 -0.0278
  120MOL   O28945747   1.158   6.337   3.105 -0.4831 -0.0284 -0.2308
  120MOL   C29045748   1.197   6.456   3.038 -0.6322 -0.5551 -0.7884
  120MOL   C29145749   1.066   6.535   3.014  0.2576 -0.2796 -0.6116
  120MOL   C29245750   1.105   6.664   2.926 -1.2563 -0.4523 -0.0852
  120MOL   C29345751   0.994   6.587   3.138  0.3448 -0.1294  0.3964
  120MOL   H29445752   1.450   6.199   3.202  2.0463  0.9772 -0.8269
  120MOL   H29545753   1.427   6.367   3.176 -0.7138 -1.0970 -1.9911
  120MOL   H29645754   1.302   6.226   3.021 -0.4444  0.1430 -0.4371
  120MOL   H29745755   1.260   6.511   3.108  0.4923 -0.5744 -1.7822
  120MOL   H29845756   1.250   6.436   2.945 -0.5912  2.9642 -1.6086
  120MOL   H29945757   1.000   6.476   2.951  2.5986 -0.6172 -2.8220
  120MOL   H30045758   1.197   6.707   2.965 -1.1173  1.6856 -2.6092
  120MOL   H30145759   1.032   6.744   2.926 -1.6476 -0.8057 -0.0435
  120MOL   H30245760   1.124   6.624   2.826  0.5332 -0.9353  0.4316
  120MOL   H30345761   0.986   6.506   3.211 -1.9135  0.2045  0.5613
  120MOL   H30445762   1.048   6.665   3.191  0.2860  0.4957 -0.4599
  120MOL   H30545763   0.892   6.625   3.125  0.2346 -0.6007 -0.1206
  120MOL   C30645764   1.196   6.106   3.156 -0.3842 -0.8243  0.1639
  120MOL   C30745765   1.091   6.064   3.056  0.0697 -0.0066  0.5691
  120MOL   O30845766   1.139   6.056   2.920 -0.1039 -0.1782 -0.6596
  120MOL   C30945767   1.041   6.085   2.823  0.0031 -0.1382  0.7338
  120MOL   C31045768   1.104   6.087   2.680 -0.2667 -0.3288  0.1920
  120MOL   C31145769   1.011   6.162   2.582  0.1719 -0.2021  0.0231
  120MOL   C31245770   1.146   5.949   2.630  0.1423  0.6226  0.0804
  120MOL   H31345771   1.142   6.105   3.251 -0.5551 -0.2504  0.0746
  120MOL   H31445772   1.274   6.031   3.164 -0.0291 -0.4586  0.1316
  120MOL   H31545773   1.030   6.154   3.065 -0.9826 -0.7398  0.8762
  120MOL   H31645774   1.011   6.188   2.846  2.5577  1.0612 -1.0575
  120MOL   H31745775   0.959   6.013   2.826  0.9294 -1.2064  0.7056
  120MOL   H31845776   1.193   6.149   2.694 -0.7140  0.1378  0.9999
  120MOL   H31945777   1.076   6.187   2.498  1.3934  0.6159  1.1848
  120MOL   H32045778   0.989   6.261   2.621 -1.4918 -0.9068  0.9205
  120MOL   H32145779   0.918   6.110   2.560  1.3258 -1.5227 -1.8659
  120MOL   H32245780   1.099   5.885   2.704 -0.1916 -0.1241 -0.7624
  120MOL   H32345781   1.251   5.924   2.624 -0.1184 -0.5422  0.3084
  120MOL   H32445782   1.100   5.920   2.535 -1.2843  1.0973  0.6098
  120MOL   C32545783   0.998   5.946   3.080  0.6118  0.1423  0.3285
  120MOL   C32645784   0.928   5.936   3.207  0.4156 -0.4267 -0.9336
  120MOL   O32745785   1.015   5.909   3.319  0.4922 -0.0409 -0.1285
  120MOL   C32845786   1.100   5.798   3.309 -0.7459  0.9688 -0.5002
  120MOL   C32945787   1.159   5.756   3.451  0.0185 -0.4476  0.2223
  120MOL   C33045788   1.241   5.869   3.515 -0.0896  0.6029 -0.0588
  120MOL   C33145789   1.054   5.698   3.544  0.6063 -1.0020  0.8333
  120MOL   H33245790   1.047   5.851   3.060  0.5606  0.0230  0.7560
  120MOL   H33345791   0.930   5.926   2.997  2.5205  1.1389 -1.5294
  120MOL   H33445792   0.860   5.851   3.194  1.1976 -0.9502 -1.6587
  120MOL   H33545793   1.049   5.718   3.256 -0.4360  0.9557 -0.7795
  120MOL   H33645794   1.179   5.819   3.238 -0.1383 -3.6091 -1.3068
  120MOL   H33745795   1.228   5.673   3.431 -0.9850 -1.4529  0.8695
  120MOL   H33845796   1.339   5.874   3.467  0.1461  3.9113  0.6524
  120MOL   H33945797   1.197   5.966   3.492  1.5657  1.0433 -1.4669
  120MOL   H34045798   1.254   5.855   3.623 -0.8427  0.3316  0.0012
  120MOL   H34145799   0.971   5.645   3.498  0.6771  0.2102 -0.7526
  120MOL   H34245800   1.106   5.644   3.623  0.4980 -2.3739 -0.0232
  120MOL   H34345801   0.995   5.784   3.578 -1.4006 -0.7209 -3.1233
  120MOL   C34445802   0.837   6.054   3.251  0.0045 -0.1353  0.4584
  120MOL   C34545803   0.711   6.082   3.162  0.2030 -0.0326 -0.5120
  120MOL   O34645804   0.624   5.969   3.181  0.3358 -0.7025 -0.1745
  120MOL   C34745805   0.550   5.933   3.068  0.6336  0.3135  0.3700
  120MOL   C34845806   0.408   5.892   3.116  0.0212 -0.5457  0.7499
  120MOL   C34945807   0.324   5.834   2.995 -1.0492 -0.4607  0.1129
  120MOL   C35045808   0.331   6.001   3.197 -0.9586 -0.0044 -0.4664
  120MOL   H35145809   0.900   6.143   3.262  0.1879 -0.5673  3.1264
  120MOL   H35245810   0.800   6.031   3.350 -0.3117 -1.5916  0.0169
  120MOL   H35345811   0.750   6.088   3.060 -1.7734  1.6256 -1.1945
  120MOL   H35445812   0.602   5.853   3.016  2.2774  2.0867 -0.7540
  120MOL   H35545813   0.542   6.022   3.007  1.5107  0.0339 -0.1547
  120MOL   H35645814   0.424   5.805   3.181  2.1743 -2.2004 -1.9071
  120MOL   H35745815   0.393   5.766   2.944  1.4401  2.2105 -0.2299
  120MOL   H35845816   0.298   5.914   2.926  1.5658  2.0395  1.9021
  120MOL   H35945817   0.231   5.787   3.027 -0.6651 -1.6364 -0.4452
  120MOL   H36045818   0.318   6.096   3.145 -0.5712 -0.0557 -0.6556
  120MOL   H36145819   0.235   5.966   3.234 -0.4287 -1.7243 -0.6593
  120MOL   H36245820   0.389   6.017   3.288 -0.5458 -2.2882 -0.2822
  120MOL   C36345821   0.644   6.217   3.209 -0.2816 -0.0370  0.3589
  120MOL   C36445822   0.715   6.344   3.168 -0.2558  0.5049  0.1861
  120MOL   O36545823   0.707   6.364   3.025 -0.2656  0.8352 -0.1435
  120MOL   C36645824   0.585   6.409   2.981  0.3460  0.1152  0.7190
  120MOL   C36745825   0.587   6.433   2.829  0.1948  0.2240 -0.0985
  120MOL   C36845826   0.563   6.306   2.754 -0.5945 -0.7253 -0.5762
  120MOL   C36945827   0.709   6.520   2.776  0.1217  0.1681 -0.9647
  120MOL   H37045828   0.539   6.226   3.181 -0.6406 -0.9371  1.3671
  120MOL   H37145829   0.638   6.224   3.318  1.6086 -1.2803  0.5562
  120MOL   H37245830   0.816   6.323   3.204 -0.9839 -0.0450  1.9507
  120MOL   H37345831   0.507   6.340   3.013  0.2761 -0.8453 -1.4316
  120MOL   H37445832   0.564   6.507   3.024 -0.2106  0.5158 -0.4406
  120MOL   H37545833   0.501   6.497   2.808 -2.1286 -2.6066  0.4833
  120MOL   H37645834   0.480   6.249   2.796 -0.6360 -0.1786  0.0912
  120MOL   H37745835   0.646   6.235   2.745 -0.7437 -0.8695 -0.8275
  120MOL   H37845836   0.521   6.323   2.655 -1.3172 -1.6225 -0.4284
  120MOL   H37945837   0.695   6.550   2.672  0.3956  0.5704 -0.8857
  120MOL   H38045838   0.804   6.466   2.787  0.0113 -0.4121 -2.6826
  120MOL   H38145839   0.731   6.612   2.830  0.2761  1.0833 -2.5598
  120MOL   H38245840   0.669   6.426   3.224 -2.3131  0.8355 -1.9251
  121MOL     C145841   1.412   0.302   2.968 -0.3019 -0.1705  0.0425
  121MOL     C245842   1.436   0.366   2.828 -0.3779 -0.0944 -0.1518
  121MOL     O345843   1.384   0.499   2.816  0.2095 -0.3413  0.7757
  121MOL     C445844   1.250   0.523   2.846 -0.5001 -0.3753  0.5792
  121MOL     C545845   1.229   0.672   2.833  0.1249 -0.8414  0.3857
  121MOL     C645846   1.131   0.711   2.933 -0.5695  0.4652 -0.0801
  121MOL     C745847   1.173   0.718   2.695  0.9734  0.0063 -0.8913
  121MOL     H845848   1.310   0.284   3.000  0.1785 -2.9735  0.1166
  121MOL     H945849   1.459   0.204   2.968 -1.1000 -0.5527  0.6683
  121MOL    H1045850   1.392   0.307   2.749  1.0509 -0.4503 -0.7087
  121MOL    H1145851   1.237   0.488   2.949  0.4997  0.2950  0.9411
  121MOL    H1245852   1.183   0.473   2.777 -2.2517 -0.8998  2.5978
  121MOL    H1345853   1.323   0.719   2.863 -0.1764 -0.2376  0.3779
  121MOL    H1445854   1.161   0.674   3.031  0.6598  1.1436 -0.1877
  121MOL    H1545855   1.118   0.819   2.922 -1.3410  0.4689  0.8589
  121MOL    H1645856   1.038   0.656   2.920  0.2436 -1.3075  1.4603
  121MOL    H1745857   1.245   0.698   2.616  1.0339 -1.5071 -0.4541
  121MOL    H1845858   1.083   0.660   2.674 -0.4806  2.0301 -0.5016
  121MOL    H1945859   1.141   0.822   2.687 -0.9447 -0.5314 -0.5609
  121MOL    H2045860   1.460   0.358   3.048 -0.4345  0.4518 -0.3092
  121MOL    C2145861   1.587   0.377   2.804  0.2855 -0.2118  0.9277
  121MOL    C2245862   1.626   0.394   2.650  0.4722 -0.4780 -0.1105
  121MOL    O2345863   1.750   0.453   2.636 -0.1378 -0.3599  0.1134
  121MOL    C2445864   1.755   0.597   2.633 -0.5037  0.4765 -0.1315
  121MOL    C2545865   1.892   0.633   2.583 -0.0454  0.0532 -0.4804
  121MOL    C2645866   1.889   0.777   2.523 -0.2983  0.1341  0.2228
  121MOL    C2745867   2.005   0.615   2.692  0.3855  0.3863  0.4176
  121MOL    H2845868   1.638   0.448   2.869 -1.6267 -0.1985  2.4675
  121MOL    H2945869   1.632   0.280   2.827  1.2491 -0.1688 -0.7285
  121MOL    H3045870   1.544   0.443   2.597 -0.8536 -1.2745  1.1558
  121MOL    H3145871   1.740   0.636   2.734  1.2105 -2.2348  1.2278
  121MOL    H3245872   1.682   0.640   2.564  0.4476  0.1804 -1.3189
  121MOL    H3345873   1.913   0.571   2.496  0.9196 -1.1078  0.5385
  121MOL    H3445874   1.990   0.791   2.484  0.2797  0.7137  1.8711
  121MOL    H3545875   1.875   0.843   2.609  1.6197 -0.6992  1.2071
  121MOL    H3645876   1.815   0.789   2.445 -0.0329  1.6617  0.1762
  121MOL    H3745877   1.979   0.660   2.787  0.4734  0.6322  0.3239
  121MOL    H3845878   2.022   0.507   2.689  1.9509  0.6358 -0.2897
  121MOL    H3945879   2.095   0.657   2.649  0.5964 -2.4348 -2.1282
  121MOL    C4045880   1.629   0.252   2.584  0.0021 -0.3290 -0.0304
  121MOL    C4145881   1.645   0.259   2.432 -0.1917 -0.0103 -0.4859
  121MOL    O4245882   1.579   0.146   2.380 -0.6478 -0.5433  0.0388
  121MOL    C4345883   1.453   0.178   2.327 -0.4653  0.5113 -0.0486
  121MOL    C4445884   1.400   0.060   2.249 -0.7133  0.9684  0.5409
  121MOL    C4545885   1.273   0.094   2.166  0.4125 -0.1417 -0.1916
  121MOL    C4645886   1.503   0.007   2.154  0.3399  0.1201  0.6313
  121MOL    H4745887   1.535   0.201   2.608  0.3138 -0.8232  0.1413
  121MOL    H4845888   1.702   0.188   2.633  0.2180 -0.3933 -0.4344
  121MOL    H4945889   1.614   0.354   2.390 -0.8785  0.6520  1.4712
  121MOL    H5045890   1.461   0.264   2.261  0.5820 -1.8685 -3.1507
  121MOL    H5145891   1.389   0.207   2.411 -1.8693  0.5069 -1.0886
  121MOL    H5245892   1.382   7.808   2.325 -0.1674 -1.1415 -1.4006
  121MOL    H5345893   1.300   0.148   2.075 -1.6622 -0.1245 -0.8116
  121MOL    H5445894   1.216   0.009   2.130  3.1439 -2.6985  1.3030
  121MOL    H5545895   1.205   0.149   2.232 -0.7141  0.9118 -2.2012
  121MOL    H5645896   1.593   7.790   2.199  1.0947  1.9679  0.8803
  121MOL    H5745897   1.532   0.079   2.077  1.5197 -1.3706 -0.3454
  121MOL    H5845898   1.447   7.757   2.097 -1.3082  1.1922  0.7941
  121MOL    C5945899   1.793   0.243   2.396 -0.2241 -0.7041 -0.2111
  121MOL    C6045900   1.815   0.297   2.251  0.1218 -0.3576 -0.4455
  121MOL    O6145901   1.938   0.238   2.205  0.2545  0.4121 -0.4750
  121MOL    C6245902   1.940   0.101   2.173  0.3426  0.6329  0.0540
  121MOL    C6345903   2.063   0.073   2.081  0.4739  0.3087 -0.4623
  121MOL    C6445904   2.066   7.748   2.031 -0.4489  0.3542  1.1416
  121MOL    C6545905   2.058   0.167   1.963 -0.2792 -0.3817 -0.6114
  121MOL    H6645906   1.825   0.140   2.409 -0.4777 -0.5086  2.0797
  121MOL    H6745907   1.854   0.299   2.466  0.1763 -1.7394  0.2724
  121MOL    H6845908   1.734   0.264   2.185 -0.0059 -2.6564  0.8155
  121MOL    H6945909   1.955   0.034   2.258  0.6677  0.2499 -0.2997
  121MOL    H7045910   1.850   0.080   2.116  0.6541 -0.6024  0.0112
  121MOL    H7145911   2.149   0.094   2.145  0.2399  0.7113 -0.2794
  121MOL    H7245912   2.062   7.678   2.114 -0.9539 -0.9273  0.0520
  121MOL    H7345913   2.161   7.722   1.984 -0.3812 -0.3454  1.6722
  121MOL    H7445914   1.983   7.739   1.961  0.1116 -1.0548  0.6354
  121MOL    H7545915   2.158   0.168   1.920  0.7573 -1.2779  1.6664
  121MOL    H7645916   1.981   0.133   1.894 -2.2809  2.2219  0.2332
  121MOL    H7745917   2.034   0.272   1.982 -0.8807 -0.6533  0.1532
  121MOL    C7845918   1.840   0.447   2.233 -0.0900  0.0753 -0.1351
  121MOL    C7945919   1.867   0.491   2.090 -0.0028 -0.4324 -0.0237
  121MOL    O8045920   1.739   0.483   2.035  0.4581  0.3789  0.6309
  121MOL    C8145921   1.733   0.442   1.896  0.8978 -0.6518  0.3058
  121MOL    C8245922   1.586   0.452   1.858 -0.6220 -0.0925 -0.4329
  121MOL    C8345923   1.505   0.342   1.933  0.5757 -0.1078  0.1456
  121MOL    C8445924   1.567   0.452   1.707  0.1828 -0.1548 -0.0602
  121MOL    H8545925   1.925   0.482   2.291  1.7302  1.8963 -3.6782
  121MOL    H8645926   1.760   0.513   2.268  0.9814  2.0215 -1.2280
  121MOL    H8745927   1.941   0.421   2.051 -1.3701 -2.2746  0.6747
  121MOL    H8845928   1.791   0.509   1.832 -0.9596 -0.3678 -1.1060
  121MOL    H8945929   1.774   0.344   1.872  0.5450 -0.8839  0.6346
  121MOL    H9045930   1.547   0.550   1.889  0.7994  0.3791 -0.1026
  121MOL    H9145931   1.400   0.367   1.916 -0.0859 -3.5767 -1.4364
  121MOL    H9245932   1.528   0.348   2.039  2.2862  2.4018 -0.3195
  121MOL    H9345933   1.527   0.249   1.879 -0.9565 -0.4752  0.1298
  121MOL    H9445934   1.609   0.545   1.670  2.6927 -1.4965 -0.6897
  121MOL    H9545935   1.461   0.437   1.688  0.6228 -1.0565 -1.8942
  121MOL    H9645936   1.613   0.365   1.661 -0.2890 -0.1528 -0.5331
  121MOL    C9745937   1.913   0.636   2.072 -0.7935  0.0554  0.2783
  121MOL    C9845938   2.030   0.682   2.158 -0.1795  0.3515 -1.2378
  121MOL    O9945939   2.084   0.804   2.119 -0.1339 -0.7340  0.9225
  121MOL   C10045940   2.013   0.915   2.161  0.1227 -0.4068 -0.8873
  121MOL   C10145941   2.077   1.047   2.114  0.0112  0.5977  0.1311
  121MOL   C10245942   2.001   1.171   2.164 -0.1971  0.2420 -0.3840
  121MOL   C10345943   2.223   1.066   2.162  0.0994  0.0185  0.0541
  121MOL   H10445944   1.831   0.707   2.077 -0.4427  0.4026  1.1878
  121MOL   H10545945   1.942   0.631   1.968 -0.4367  0.7043  0.3478
  121MOL   H10645946   1.994   0.693   2.260  0.1031  2.2861 -1.3338
  121MOL   H10745947   2.026   0.921   2.269  0.6279  0.1608 -0.9749
  121MOL   H10845948   1.905   0.909   2.151  0.1537 -0.1247 -1.4306
  121MOL   H10945949   2.077   1.044   2.005  0.3532  0.2842  0.1393
  121MOL   H11045950   1.912   1.194   2.106 -1.8317  0.5975  2.1607
  121MOL   H11145951   1.978   1.172   2.271  2.3656 -0.2189  0.1857
  121MOL   H11245952   2.061   1.261   2.168 -0.5215  0.4704 -0.6206
  121MOL   H11345953   2.231   1.094   2.266 -1.2826  0.9689 -0.0928
  121MOL   H11445954   2.289   0.985   2.129  1.9335  2.5380 -2.7236
  121MOL   H11545955   2.266   1.140   2.095  1.7504  0.1265  1.1911
  121MOL   C11645956   2.154   0.584   2.149 -0.0399  0.4583 -0.7000
  121MOL   C11745957   2.243   0.593   2.269  0.0727  0.0134  0.5460
  121MOL   O11845958   2.328   0.475   2.261  0.1793 -0.1524  0.1749
  121MOL   C11945959   2.261   0.357   2.320  0.4774 -0.1590 -0.1962
  121MOL   C12045960   2.313   0.329   2.468  0.1339 -0.2214  0.3525
  121MOL   C12145961   2.204   0.241   2.523  0.3619  0.3496 -0.0126
  121MOL   C12245962   2.447   0.255   2.461  0.0684  0.2137 -0.0038
  121MOL   H12345963   2.120   0.480   2.156  0.1175  0.4902  0.5831
  121MOL   H12445964   2.198   0.571   2.049  1.5184 -2.1288  0.2483
  121MOL   H12545965   2.186   0.582   2.361  1.6346 -3.5817  1.1473
  121MOL   H12645966   2.289   0.276   2.253  1.4626  1.2823 -1.5614
  121MOL   H12745967   2.153   0.353   2.304  0.1743  2.4054  0.9232
  121MOL   H12845968   2.310   0.416   2.533 -3.1491  0.0302 -0.0235
  121MOL   H12945969   2.211   0.139   2.485 -0.5126 -0.0178  0.7880
  121MOL   H13045970   2.109   0.285   2.495  1.0382  1.0547 -1.2205
  121MOL   H13145971   2.220   0.226   2.630  2.1630  2.0210 -0.0195
  121MOL   H13245972   2.439   0.165   2.399 -0.9388 -0.9447  1.7660
  121MOL   H13345973   2.526   0.315   2.414 -0.9651 -0.0750 -2.1572
  121MOL   H13445974   2.479   0.223   2.560 -0.4836 -2.1029 -0.5400
  121MOL   C13545975   2.337   0.716   2.271  0.1750  0.3664  0.3383
  121MOL   C13645976   2.437   0.727   2.382 -0.2853  0.1888 -0.3004
  121MOL   O13745977   2.523   0.840   2.360 -0.5442  0.2716  0.0107
  121MOL   C13845978   2.640   0.796   2.293 -0.0782 -0.5344 -0.6473
  121MOL   C13945979   2.749   0.908   2.285 -0.0827  0.4051  0.3431
  121MOL   C14045980   2.688   1.032   2.214 -0.2445  0.0778  0.5548
  121MOL   C14145981   2.818   0.938   2.422 -1.3055 -0.0913 -0.3349
  121MOL   H14245982   2.396   0.709   2.179 -0.0198  1.3837  0.1207
  121MOL   H14345983   2.282   0.810   2.262 -0.2185  0.0645 -0.4482
  121MOL   H14445984   2.496   0.636   2.387  3.3408  2.5410  1.3211
  121MOL   H14545985   2.618   0.765   2.191  1.6698 -1.9316 -0.6325
  121MOL   H14645986   2.689   0.710   2.340 -0.7048 -1.7220 -2.1343
  121MOL   H14745987   2.835   0.872   2.230 -2.5510 -0.7952 -2.8834
  121MOL   H14845988   2.755   1.112   2.184 -0.1115 -0.4142 -0.4848
  121MOL   H14945989   2.632   1.085   2.292  0.9686 -2.0297  2.9381
  121MOL   H15045990   2.616   1.005   2.137  2.1435 -2.2669 -0.9181
  121MOL   H15145991   2.874   1.032   2.427  0.8082 -1.2372 -1.7387
  121MOL   H15245992   2.739   0.935   2.497  1.0269 -0.3977  2.1622
  121MOL   H15345993   2.889   0.860   2.447 -2.4084 -1.0872 -0.2490
  121MOL   C15445994   2.370   0.756   2.522  0.9298 -0.0562 -0.0268
  121MOL   C15545995   2.480   0.744   2.621 -0.6422 -0.3861  0.0396
  121MOL   O15645996   2.442   0.815   2.732 -0.5089 -0.3803 -0.7041
  121MOL   C15745997   2.506   0.940   2.763 -0.3692  0.2770  0.2469
  121MOL   C15845998   2.481   0.993   2.901  0.0391  0.6107  0.6812
  121MOL   C15945999   2.572   1.110   2.934 -0.2664 -0.2321  0.0725
  121MOL   C16046000   2.325   1.020   2.919 -0.8966 -0.3170 -0.4068
  121MOL   H16146001   2.289   0.685   2.536  1.3508 -0.5904 -0.2643
  121MOL   H16246002   2.342   0.861   2.516  1.5356  0.0659 -0.9082
  121MOL   H16346003   2.572   0.784   2.577  0.3621 -0.7791  1.7405
  121MOL   H16446004   2.486   1.019   2.691 -0.9475  0.2840  0.4144
  121MOL   H16546005   2.612   0.918   2.752 -0.4013 -0.3925  1.1643
  121MOL   H16646006   2.506   0.915   2.974  0.3297  0.6474  0.6215
  121MOL   H16746007   2.550   1.189   2.862  2.0990  0.5562  0.1514
  121MOL   H16846008   2.679   1.089   2.924 -0.3325 -0.6605  0.2918
  121MOL   H16946009   2.549   1.148   3.034 -0.8559  1.9430 -0.8581
  121MOL   H17046010   2.300   1.051   3.020 -1.5338 -0.0260 -0.6464
  121MOL   H17146011   2.287   1.100   2.855 -1.4962 -0.7270 -0.5774
  121MOL   H17246012   2.267   0.928   2.908 -0.4202 -0.9757  2.2948
  121MOL   C17346013   2.495   0.595   2.661  0.2994  0.3770  0.2665
  121MOL   C17446014   2.615   0.564   2.749  0.3704  0.1983 -0.5788
  121MOL   O17546015   2.611   0.441   2.820 -0.0272  0.3469  0.2899
  121MOL   C17646016   2.517   0.432   2.931 -0.0354 -0.0614  0.4992
  121MOL   C17746017   2.479   0.282   2.952 -0.3242  0.7825  0.0974
  121MOL   C17846018   2.432   0.265   3.100  0.9726 -0.1753 -0.6216
  121MOL   C17946019   2.370   0.218   2.864  0.1113 -0.1370 -0.4537
  121MOL   H18046020   2.406   0.567   2.718 -0.0759  1.7598  0.3689
  121MOL   H18146021   2.498   0.529   2.575 -0.9066 -0.6449  0.9719
  121MOL   H18246022   2.625   0.642   2.824 -1.9065 -2.3677  2.5445
  121MOL   H18346023   2.424   0.488   2.920 -0.8865 -1.5480 -0.2110
  121MOL   H18446024   2.567   0.475   3.017  0.5937  2.4077 -1.0665
  121MOL   H18546025   2.575   0.230   2.949  0.5193  2.1671  2.0005
  121MOL   H18646026   2.430   0.165   3.143  0.9896  1.0899  2.4469
  121MOL   H18746027   2.487   0.323   3.174 -1.1699  0.5400  0.4458
  121MOL   H18846028   2.326   0.290   3.103  0.9767  0.0902 -2.1724
  121MOL   H18946029   2.272   0.267   2.871  0.4189  0.4719 -0.4121
  121MOL   H19046030   2.366   0.112   2.888 -0.8457 -0.2470 -1.0409
  121MOL   H19146031   2.392   0.223   2.758  0.2555 -2.0544 -0.5194
  121MOL   C19246032   2.754   0.573   2.678  0.6239  0.3577 -0.5133
  121MOL   C19346033   2.872   0.579   2.773  0.3042  0.3262  0.2902
  121MOL   O19446034   2.862   0.704   2.845 -0.2104 -0.4484  0.1985
  121MOL   C19546035   2.884   0.687   2.983  0.5280 -0.1702  0.0375
  121MOL   C19646036   2.867   0.820   3.063  0.5214  0.7939 -0.2549
  121MOL   C19746037   2.980   0.915   3.021  0.1581  0.1768 -0.5421
  121MOL   C19846038   2.862   0.791   3.216 -0.2760  0.4221 -0.3071
  121MOL   H19946039   2.741   0.654   2.606 -2.4138 -0.6119 -1.1463
  121MOL   H20046040   2.766   0.483   2.617  1.3994  0.9693 -1.2833
  121MOL   H20146041   2.869   0.488   2.834  2.1511  0.3972  0.4985
  121MOL   H20246042   2.983   0.647   3.005  0.6089  1.9191  4.0175
  121MOL   H20346043   2.811   0.617   3.023 -0.8988  0.7991 -0.8374
  121MOL   H20446044   2.781   0.872   3.020 -0.7458 -0.1388  1.0878
  121MOL   H20546045   3.077   0.885   3.059 -0.5024 -2.8918 -1.1552
  121MOL   H20646046   2.993   0.926   2.913 -2.5016 -1.8201 -1.1182
  121MOL   H20746047   2.962   1.015   3.060 -1.6864  0.7369 -2.6615
  121MOL   H20846048   2.960   0.762   3.256 -1.7640 -0.7538  2.6993
  121MOL   H20946049   2.831   0.888   3.256 -1.8578 -0.1577 -0.1063
  121MOL   H21046050   2.794   0.719   3.262  2.1019 -1.2037  0.7952
  121MOL   C21146051   3.008   0.562   2.704  0.7474 -0.1572 -0.6239
  121MOL   C21246052   3.140   0.580   2.775  0.4218 -0.1307 -0.1349
  121MOL   O21346053   3.145   0.471   2.865 -0.2315  0.1754  0.1359
  121MOL   C21446054   3.240   0.495   2.965 -0.3691 -0.2724 -0.6629
  121MOL   C21546055   3.238   0.381   3.070  0.2503 -0.3992  0.5950
  121MOL   C21646056   3.278   0.248   3.006  0.6484 -1.0066 -0.6316
  121MOL   C21746057   3.317   0.418   3.201 -0.3867 -0.7831 -0.6519
  121MOL   H21846058   3.004   0.644   2.632  2.4774  0.0364 -0.5002
  121MOL   H21946059   3.003   0.469   2.646  0.7016 -0.7936  0.3930
  121MOL   H22046060   3.135   0.667   2.841 -0.4398 -0.0776 -0.2526
  121MOL   H22146061   3.220   0.587   3.020  1.8291  0.4439 -1.0281
  121MOL   H22246062   3.344   0.503   2.932 -0.1405 -0.4956  0.0045
  121MOL   H22346063   3.133   0.370   3.095  0.2981  1.1202  1.5345
  121MOL   H22446064   3.386   0.229   3.010  0.8093 -0.1737 -0.9317
  121MOL   H22546065   3.234   0.160   3.053 -0.0559 -0.8395 -0.9724
  121MOL   H22646066   3.242   0.242   2.903  0.6213  1.3491 -0.7864
  121MOL   H22746067   3.293   0.344   3.278  0.8495 -1.3502 -0.7902
  121MOL   H22846068   3.272   0.510   3.239  0.5932  0.1921 -1.7955
  121MOL   H22946069   3.425   0.428   3.187 -0.5324 -0.8003 -1.8009
  121MOL   C23046070   3.266   0.586   2.688 -0.1018  0.5801  0.3768
  121MOL   C23146071   3.274   0.691   2.575  0.4945  0.0410 -0.0529
  121MOL   O23246072   3.268   0.817   2.641  0.2805  0.6790 -0.7726
  121MOL   C23346073   3.172   0.907   2.590  0.2860 -0.3524  0.7228
  121MOL   C23446074   3.180   1.039   2.676 -0.4913  0.2441  0.4233
  121MOL   C23546075   3.304   1.120   2.644 -0.3087 -0.7427  0.4002
  121MOL   C23646076   3.060   1.130   2.660  0.1678 -0.2944 -0.4929
  121MOL   H23746077   3.288   0.485   2.652  1.2238  1.3930 -1.1319
  121MOL   H23846078   3.354   0.601   2.751  1.6884 -0.8210 -1.7058
  121MOL   H23946079   3.193   0.674   2.504 -1.1212 -1.2646  2.0379
  121MOL   H24046080   3.194   0.927   2.485 -3.1462 -1.5697 -0.3086
  121MOL   H24146081   3.077   0.856   2.576 -0.1068  1.1585 -2.7185
  121MOL   H24246082   3.185   1.002   2.778 -1.1003 -1.8544 -0.2887
  121MOL   H24346083   3.292   1.220   2.687  1.1144  1.6830 -4.4848
  121MOL   H24446084   3.319   1.129   2.536  0.2389  2.6325  0.6970
  121MOL   H24546085   3.395   1.084   2.693 -0.0057  1.5934  1.6201
  121MOL   H24646086   2.966   1.077   2.668 -2.2485  3.7412 -0.5963
  121MOL   H24746087   3.061   1.216   2.727  2.2545 -0.2465 -0.5427
  121MOL   H24846088   3.055   1.175   2.560  0.0108 -0.4297 -0.5459
  121MOL   C24946089   3.410   0.669   2.509 -0.3243 -0.1138  0.1595
  121MOL   C25046090   3.449   0.774   2.405 -0.6936  0.7136  0.8847
  121MOL   O25146091   3.585   0.746   2.393 -0.1100  0.2191 -0.5298
  121MOL   C25246092   3.678   0.834   2.459  0.0366 -0.6152 -0.1396
  121MOL   C25346093   3.829   0.798   2.431  0.0213  0.7484 -0.1295
  121MOL   C25446094   3.874   0.856   2.304  0.4525 -0.6029  0.3646
  121MOL   C25546095   3.864   0.647   2.427 -0.4557 -0.6913 -0.2297
  121MOL   H25646096   3.407   0.577   2.450 -0.8438  0.4021 -0.6287
  121MOL   H25746097   3.488   0.652   2.583 -0.1349 -0.5050 -0.1244
  121MOL   H25846098   3.428   0.876   2.437 -0.7888  0.3629  1.9572
  121MOL   H25946099   3.646   0.934   2.430 -0.3859 -0.5848  0.4265
  121MOL   H26046100   3.668   0.821   2.567 -0.3820 -2.2026 -0.3561
  121MOL   H26146101   3.899   0.840   2.503  0.0098  2.1671 -0.9340
  121MOL   H26246102   3.832   0.955   2.284  2.1730  0.0104 -0.2782
  121MOL   H26346103   3.839   0.803   2.216 -2.9323 -1.8034  2.3226
  121MOL   H26446104   3.983   0.862   2.314  0.6814  0.4774 -2.5376
  121MOL   H26546105   3.966   0.630   2.392 -0.7746  2.2885 -2.8076
  121MOL   H26646106   3.852   0.607   2.528  0.3846  1.9960  0.9904
  121MOL   H26746107   3.794   0.596   2.361  0.2173 -0.7358 -0.9231
  121MOL   C26846108   3.388   0.756   2.270 -0.2042 -0.3418 -0.5360
  121MOL   C26946109   3.405   0.873   2.163 -0.0530 -0.7324 -0.4629
  121MOL   O27046110   3.303   0.964   2.191  0.1060 -0.2819 -0.5918
  121MOL   C27146111   3.324   1.102   2.162 -0.5147  0.4392  0.8089
  121MOL   C27246112   3.191   1.174   2.158 -0.1475  0.1820  0.6688
  121MOL   C27346113   3.108   1.113   2.050  0.5358 -0.2986  0.0403
  121MOL   C27446114   3.114   1.164   2.290  0.3945  0.4291 -0.1578
  121MOL   H27546115   3.281   0.750   2.290 -0.1093  1.2608  0.5421
  121MOL   H27646116   3.425   0.660   2.233 -1.3764 -0.6634 -0.9182
  121MOL   H27746117   3.502   0.921   2.182 -0.6700  0.1562  0.5141
  121MOL   H27846118   3.391   1.153   2.232 -0.8385  1.0369  0.6864
  121MOL   H27946119   3.368   1.119   2.064  0.9609 -2.4103  0.9272
  121MOL   H28046120   3.203   1.276   2.121 -0.7125  1.2692  3.3510
  121MOL   H28146121   3.023   1.178   2.028 -0.1041 -1.2144 -0.2213
  121MOL   H28246122   3.069   1.014   2.073  0.1112 -0.3264 -0.7657
  121MOL   H28346123   3.175   1.100   1.965  0.1013 -0.4977 -0.2782
  121MOL   H28446124   3.172   1.225   2.360  0.0971 -1.3807  1.7208
  121MOL   H28546125   3.116   1.070   2.345 -0.2715  0.6559  0.2622
  121MOL   H28646126   3.019   1.218   2.295 -0.8387 -1.5976 -1.0895
  121MOL   C28746127   3.369   0.823   2.020  0.2542  0.2459  0.0282
  121MOL   C28846128   3.479   0.771   1.926 -0.2355  0.4029  0.0341
  121MOL   O28946129   3.518   0.875   1.830 -0.3570 -0.0518 -0.1562
  121MOL   C29046130   3.645   0.867   1.785  0.6200  0.2381 -0.2571
  121MOL   C29146131   3.655   0.903   1.635 -0.3416 -0.0593  0.6089
  121MOL   C29246132   3.609   0.786   1.548  0.6299 -0.2527 -0.6104
  121MOL   C29346133   3.782   0.964   1.587 -0.1990  0.5034  0.4618
  121MOL   H29446134   3.304   0.890   1.963 -1.3444 -0.3209  1.1809
  121MOL   H29546135   3.296   0.744   2.033  1.6649 -1.0118  0.4032
  121MOL   H29646136   3.570   0.738   1.977  0.3082 -2.9648 -2.9127
  121MOL   H29746137   3.699   0.931   1.855 -0.0496  1.3729 -0.7555
  121MOL   H29846138   3.690   0.768   1.793  0.8554  0.2054 -1.8271
  121MOL   H29946139   3.572   0.973   1.619 -0.4984 -0.2520  0.5697
  121MOL   H30046140   3.689   0.712   1.561 -0.3607 -1.1716  0.3867
  121MOL   H30146141   3.608   0.817   1.444  0.8457 -0.5811 -0.7124
  121MOL   H30246142   3.513   0.740   1.572 -0.0221  2.3676  2.1135
  121MOL   H30346143   3.874   0.907   1.588  0.3155  1.2203 -2.0246
  121MOL   H30446144   3.782   1.006   1.486 -1.3776 -0.4944  0.0353
  121MOL   H30546145   3.798   1.041   1.663 -0.7042  0.1741  0.9066
  121MOL   C30646146   3.426   0.655   1.840  0.2645 -0.1026 -0.2655
  121MOL   C30746147   3.423   0.523   1.912  0.3973  0.0440  0.4659
  121MOL   O30846148   3.334   0.436   1.840 -0.5053 -0.1368 -0.5300
  121MOL   C30946149   3.195   0.444   1.879  0.5581  0.4261  0.6559
  121MOL   C31046150   3.121   0.338   1.792 -0.2564 -0.1301 -0.3801
  121MOL   C31146151   3.123   0.391   1.648 -0.1800 -0.1767 -1.2253
  121MOL   C31246152   2.976   0.306   1.847  0.0573 -0.2004 -0.0294
  121MOL   H31346153   3.483   0.650   1.748  0.9979 -1.7344  0.2664
  121MOL   H31446154   3.322   0.676   1.815  0.4511 -1.3939 -2.1921
  121MOL   H31546155   3.393   0.549   2.013  1.5055  1.2301  0.4964
  121MOL   H31646156   3.145   0.540   1.864 -0.1730  0.1961  1.5795
  121MOL   H31746157   3.189   0.412   1.983 -5.3438 -1.9831 -0.2406
  121MOL   H31846158   3.183   0.249   1.796  4.7617  3.1358 -1.5935
  121MOL   H31946159   3.095   0.310   1.580  3.1990 -2.2234 -0.2879
  121MOL   H32046160   3.224   0.413   1.615  0.0118  0.4208 -0.2630
  121MOL   H32146161   3.059   0.479   1.641 -0.1399 -0.0570 -0.2523
  121MOL   H32246162   2.906   0.264   1.775 -2.8766  0.9641  2.0114
  121MOL   H32346163   2.936   0.397   1.893 -2.3990 -1.1646 -0.1624
  121MOL   H32446164   2.990   0.242   1.934 -0.8938  1.5250  1.4345
  121MOL   C32546165   3.566   0.456   1.902  0.0529  0.2019 -0.0912
  121MOL   C32646166   3.579   0.309   1.966 -0.5871  0.6868 -0.8418
  121MOL   O32746167   3.711   0.259   1.958  0.4734 -0.2788  0.0755
  121MOL   C32846168   3.711   0.144   1.876  0.0655 -0.7096 -0.5079
  121MOL   C32946169   3.853   0.092   1.849  0.1410 -0.4385 -0.2618
  121MOL   C33046170   3.856   7.788   1.754  0.5257 -0.4243  0.0661
  121MOL   C33146171   3.958   0.201   1.807  0.7736  1.0921  0.9074
  121MOL   H33246172   3.646   0.517   1.945  0.8172 -1.2378  0.5616
  121MOL   H33346173   3.593   0.444   1.797  1.8116  2.2390  0.0733
  121MOL   H33446174   3.513   0.239   1.914 -1.1760 -0.4505  1.3781
  121MOL   H33546175   3.652   0.064   1.921  0.3548 -0.6897 -0.0881
  121MOL   H33646176   3.672   0.165   1.776 -1.6659  1.2020  0.5361
  121MOL   H33746177   3.885   0.059   1.947 -1.3932  0.1638  0.4571
  121MOL   H33846178   3.845   0.007   1.655 -1.8680 -1.9143 -0.3541
  121MOL   H33946179   3.948   7.730   1.758 -0.5853 -2.2080  0.0784
  121MOL   H34046180   3.773   7.720   1.774 -0.0848  0.2431 -0.1967
  121MOL   H34146181   4.051   0.147   1.786  0.0242  0.6774 -1.4796
  121MOL   H34246182   3.920   0.257   1.722 -2.7411 -1.9243  0.3218
  121MOL   H34346183   3.963   0.274   1.888 -0.9805 -0.0473  2.0923
  121MOL   C34446184   3.551   0.314   2.119  0.8102  0.8248  0.6626
  121MOL   C34546185   3.508   0.186   2.197  0.7103 -0.3166 -0.0915
  121MOL   O34646186   3.475   0.227   2.328  0.2138 -0.0872  0.0919
  121MOL   C34746187   3.567   0.210   2.435 -0.3427 -0.6230 -0.0935
  121MOL   C34846188   3.520   0.285   2.565 -0.0137  0.4331  0.1254
  121MOL   C34946189   3.631   0.329   2.656 -0.2595 -0.2967  0.4804
  121MOL   C35046190   3.400   0.210   2.626 -0.0855  0.1799 -0.3019
  121MOL   H35146191   3.474   0.391   2.132  0.3068  0.4116  0.1659
  121MOL   H35246192   3.640   0.360   2.161  2.6378 -1.0548 -1.0353
  121MOL   H35346193   3.592   0.117   2.207 -0.6204 -1.8756  0.4741
  121MOL   H35446194   3.659   0.257   2.400 -1.1274  1.4525  0.5257
  121MOL   H35546195   3.580   0.103   2.448  0.2557 -0.3863  1.3057
  121MOL   H35646196   3.476   0.382   2.540 -2.2561 -0.1345  1.6975
  121MOL   H35746197   3.679   0.241   2.699  1.1110  0.1221 -0.1601
  121MOL   H35846198   3.595   0.395   2.735 -1.4059  0.1286 -0.3932
  121MOL   H35946199   3.708   0.392   2.611 -1.9752  3.2690  2.2962
  121MOL   H36046200   3.370   0.262   2.717  0.0958  1.9743 -1.2560
  121MOL   H36146201   3.313   0.201   2.561  1.2620 -2.3404 -1.8592
  121MOL   H36246202   3.442   0.110   2.643 -0.6586 -0.1723 -0.9487
  121MOL   C36346203   3.381   0.123   2.130 -0.4124  1.2629 -0.3088
  121MOL   C36446204   3.333   7.808   2.187 -0.3905  0.2248  1.0620
  121MOL   O36546205   3.208   7.781   2.114 -0.0622 -0.2095  0.2109
  121MOL   C36646206   3.195   7.645   2.074  0.7394 -0.1362 -0.4533
  121MOL   C36746207   3.063   7.638   1.998  0.0119  0.0830  0.1205
  121MOL   C36846208   3.001   7.497   1.991 -0.2277 -0.8446 -0.4742
  121MOL   C36946209   3.075   7.703   1.864 -0.1169  0.1865  0.3005
  121MOL   H37046210   3.299   0.192   2.144 -1.5371  0.0071 -0.6310
  121MOL   H37146211   3.403   0.105   2.025  1.1013  0.0527  0.1795
  121MOL   H37246212   3.313   7.810   2.294 -2.5071 -0.6842  0.7301
  121MOL   H37346213   3.285   7.618   2.018  1.5499 -3.0942  2.1427
  121MOL   H37446214   3.194   7.582   2.163 -3.0277  0.2098 -0.1604
  121MOL   H37546215   2.991   7.687   2.063  2.1716  2.8415  0.4784
  121MOL   H37646216   3.071   7.440   1.930  1.5989  0.5101  0.2956
  121MOL   H37746217   2.903   7.490   1.944 -2.2725 -2.2793  3.7196
  121MOL   H37846218   2.992   7.455   2.092  0.0749  0.6102  0.1744
  121MOL   H37946219   2.972   7.711   1.831 -0.3869  1.7907  1.4394
  121MOL   H38046220   3.135   7.650   1.790 -1.2002  0.6933 -0.9554
  121MOL   H38146221   3.111   7.806   1.867  1.3798 -0.3716  2.8693
  121MOL   H38246222   3.421   7.745   2.173  1.1185  2.3643  0.8399
  122MOL     C146223   7.768   5.185   7.205  0.5189  0.5818  0.7135
  122MOL     C246224   7.736   5.269   7.330  0.8019  0.8688  0.3975
  122MOL     O346225   7.670   5.168   7.410 -0.0927  0.3152  0.1352
  122MOL     C446226   7.608   5.206   7.530  0.1144 -0.3397 -0.0622
  122MOL     C546227   7.513   5.093   7.562  0.8356 -0.1998 -0.1409
  122MOL     C646228   7.418   5.133   7.670  0.3168  0.4763  0.2075
  122MOL     C746229   7.587   4.964   7.599  0.5892 -0.5691 -0.1319
  122MOL     H846230   0.011   5.103   7.231 -0.6696 -0.6946 -0.1456
  122MOL     H946231   7.675   5.138   7.175  0.7070 -1.0640  2.5618
  122MOL    H1046232   7.660   5.344   7.309  1.4393  1.3155 -0.3093
  122MOL    H1146233   7.548   5.296   7.517  1.0700  0.7500  2.7340
  122MOL    H1246234   7.676   5.230   7.611 -1.5046 -2.5672  2.0475
  122MOL    H1346235   7.461   5.066   7.470  0.0308 -1.4199  0.6507
  122MOL    H1446236   7.364   5.041   7.693 -0.1129  0.9680  1.2248
  122MOL    H1546237   7.474   5.149   7.763  2.7047 -0.0854 -1.0805
  122MOL    H1646238   7.343   5.211   7.659  1.8470  1.9398 -0.0317
  122MOL    H1746239   7.654   4.929   7.521  1.2830  0.4817 -0.0186
  122MOL    H1846240   7.648   4.976   7.688 -0.0975  4.4543 -0.1583
  122MOL    H1946241   7.515   4.883   7.611 -0.0413  0.1653  1.0829
  122MOL    H2046242   7.811   5.240   7.122  0.5005 -1.4817 -0.7049
  122MOL    C2146243   0.040   5.328   7.399  0.4565  0.2086  0.0470
  122MOL    C2246244   0.115   5.427   7.308 -0.8353 -0.3883 -0.6437
  122MOL    O2346245   0.034   5.542   7.272  0.5009  0.4994 -0.1411
  122MOL    C2446246   0.026   5.574   7.139  0.2711 -0.3007 -0.0490
  122MOL    C2546247   7.733   5.669   7.120  0.1687 -0.0949  0.9007
  122MOL    C2646248   7.601   5.608   7.170  0.7159  0.0279 -0.1460
  122MOL    C2746249   7.766   5.806   7.199  0.8949  0.2568  0.0796
  122MOL    H2846250   0.009   5.385   7.486  1.5913  1.0956 -0.1279
  122MOL    H2946251   0.096   5.245   7.441  0.2872 -0.4064 -0.9053
  122MOL    H3046252   0.141   5.368   7.221  0.2210  1.2665 -1.4834
  122MOL    H3146253   0.035   5.485   7.077  1.4525 -1.8261  2.2497
  122MOL    H3246254   0.122   5.623   7.125  0.9829 -1.4981  0.6067
  122MOL    H3346255   7.731   5.689   7.013  1.9356 -1.5126  0.5885
  122MOL    H3446256   7.591   5.606   7.279 -0.2734  1.5076 -0.2012
  122MOL    H3546257   7.593   5.505   7.133  0.8595 -0.3842  0.9564
  122MOL    H3646258   7.515   5.668   7.139  0.3683  0.3240  1.3403
  122MOL    H3746259   7.751   5.804   7.307  2.1358 -1.3943  0.2298
  122MOL    H3846260   0.045   5.833   7.182  0.9858  0.3402  0.7517
  122MOL    H3946261   7.706   5.889   7.160 -0.6828  0.1147  2.1394
  122MOL    C4046262   0.242   5.468   7.380 -0.2379 -0.8065 -0.0428
  122MOL    C4146263   0.338   5.570   7.318 -0.6512 -0.3844  0.6237
  122MOL    O4246264   0.382   5.501   7.200  0.0023  0.3223 -0.1932
  122MOL    C4346265   0.461   5.574   7.098  0.0843 -0.3742  0.1909
  122MOL    C4446266   0.471   5.485   6.969  1.1174 -0.5819  0.0812
  122MOL    C4546267   0.342   5.485   6.881 -0.0876 -0.5141 -0.0861
  122MOL    C4646268   0.597   5.519   6.886 -0.1702 -0.0404 -0.4011
  122MOL    H4746269   0.310   5.387   7.404 -0.4420 -0.4094  1.9930
  122MOL    H4846270   0.222   5.522   7.473  0.0544 -0.6621 -0.0647
  122MOL    H4946271   0.285   5.662   7.292  1.5905  0.4271 -1.2342
  122MOL    H5046272   0.557   5.599   7.143 -0.3101 -0.7242  1.2436
  122MOL    H5146273   0.412   5.669   7.081  2.4169  0.7531 -0.4274
  122MOL    H5246274   0.481   5.387   7.017 -0.8336 -1.1366 -0.6300
  122MOL    H5346275   0.347   5.574   6.819 -0.3860  0.1138  0.7731
  122MOL    H5446276   0.353   5.393   6.825  0.0061 -0.1941 -0.5968
  122MOL    H5546277   0.257   5.485   6.949 -0.2287  2.5289 -0.1795
  122MOL    H5646278   0.580   5.461   6.795 -1.8885  0.5378 -0.4643
  122MOL    H5746279   0.682   5.488   6.946 -0.3787  1.7731  0.8693
  122MOL    H5846280   0.617   5.625   6.867 -0.8573  0.1332 -0.1705
  122MOL    C5946281   0.457   5.607   7.405 -0.1453  0.1250 -0.5079
  122MOL    C6046282   0.542   5.502   7.473  0.4785  0.0697 -0.2968
  122MOL    O6146283   0.643   5.578   7.542  0.6138  0.3106 -0.3453
  122MOL    C6246284   0.637   5.583   7.679 -0.3836  0.3066 -0.3798
  122MOL    C6346285   0.746   5.672   7.754 -0.0256 -0.3701  0.5192
  122MOL    C6446286   0.738   5.646   0.076  0.9232  0.2395 -1.0255
  122MOL    C6546287   0.881   5.621   7.697 -0.0298  0.3954  0.4652
  122MOL    H6646288   0.422   5.678   7.480 -0.0070  1.3200 -1.5452
  122MOL    H6746289   0.524   5.670   7.347  0.4196 -0.0417 -0.0398
  122MOL    H6846290   0.488   5.438   7.543 -0.5284 -1.1994 -2.1709
  122MOL    H6946291   0.540   5.629   7.694 -0.2325  0.4417  0.1917
  122MOL    H7046292   0.626   5.487   7.730  1.2374 -0.9602 -2.3364
  122MOL    H7146293   0.747   5.777   7.724  1.5094 -0.2778  0.8344
  122MOL    H7246294   0.784   5.552   0.107 -0.9306 -0.3392  0.0617
  122MOL    H7346295   0.635   5.644   0.111  0.8634 -0.3141 -1.2166
  122MOL    H7446296   0.782   5.735   0.120  0.7660 -0.7821  1.2482
  122MOL    H7546297   0.971   5.660   7.746 -1.0132  1.0205  1.7857
  122MOL    H7646298   0.878   5.512   7.704  1.4679  0.2921 -0.2472
  122MOL    H7746299   0.888   5.619   7.589 -3.9037  1.3141  0.1350
  122MOL    C7846300   0.610   5.401   7.374 -0.6440 -0.0432  0.1532
  122MOL    C7946301   0.721   5.313   7.441 -0.9772  0.0436  0.0676
  122MOL    O8046302   0.667   5.220   7.537 -0.2448  0.3547  0.1660
  122MOL    C8146303   0.747   5.195   7.652  0.5973  0.0078  0.2115
  122MOL    C8246304   0.707   5.051   7.693  0.2612 -0.6231 -0.5064
  122MOL    C8346305   0.779   5.009   7.824 -0.2681 -0.0469 -0.3753
  122MOL    C8446306   0.726   4.939   7.582 -0.0092  0.0928 -0.4767
  122MOL    H8546307   0.657   5.464   7.299 -0.8926  2.0484  1.7028
  122MOL    H8646308   0.540   5.339   7.319 -0.0380 -0.0193 -0.6525
  122MOL    H8746309   0.777   5.378   7.508  0.6147  0.1869 -1.3889
  122MOL    H8846310   0.855   5.201   7.639  0.6142  0.5732  0.5727
  122MOL    H8946311   0.717   5.272   7.724  1.8454  1.1002 -0.4211
  122MOL    H9046312   0.604   5.047   7.727  0.7205  1.5246  1.2304
  122MOL    H9146313   0.800   5.086   0.074  0.0132  0.5421 -1.0546
  122MOL    H9246314   0.880   4.977   7.800 -0.4120 -0.5908 -0.2532
  122MOL    H9346315   0.733   4.920   0.042 -2.3289  1.1799  0.0231
  122MOL    H9446316   0.670   4.849   7.605  0.5459 -0.2289 -0.3820
  122MOL    H9546317   0.832   4.924   7.562 -0.4389 -2.7972 -0.6733
  122MOL    H9646318   0.686   4.970   7.486  1.2473  0.1410 -0.9959
  122MOL    C9746319   0.838   5.251   7.356  0.1126  0.0746 -0.1816
  122MOL    C9846320   0.910   5.345   7.249  0.4995  0.2885  0.1561
  122MOL    O9946321   0.988   5.262   7.168  0.5597  0.2711  0.9693
  122MOL   C10046322   0.940   5.241   7.036  0.4985  0.4971  0.2947
  122MOL   C10146323   1.019   5.118   6.982  0.1805  0.5496  0.1038
  122MOL   C10246324   1.175   5.147   6.961  0.5316  0.2158  0.3097
  122MOL   C10346325   1.007   5.002   7.078  0.4119 -0.5188  0.0876
  122MOL   H10446326   0.797   5.163   7.307 -1.2239 -0.1101  1.2319
  122MOL   H10546327   0.914   5.209   7.423 -0.4133 -0.0164  0.3595
  122MOL   H10646328   0.832   5.404   7.201  0.8396  0.9346  0.3915
  122MOL   H10746329   0.966   5.333   6.983  0.5617  0.9230  1.0597
  122MOL   H10846330   0.831   5.230   7.029  0.3918  1.7944 -0.2846
  122MOL   H10946331   0.976   5.081   6.889  2.0840  0.2709 -0.6980
  122MOL   H11046332   1.227   5.064   6.912  1.7596  0.8124  0.5777
  122MOL   H11146333   1.182   5.224   6.884  2.6169 -0.1568  0.1047
  122MOL   H11246334   1.222   5.163   7.057 -2.6254 -1.5029  2.2314
  122MOL   H11346335   1.021   5.023   7.184 -2.2632 -2.4068  0.8958
  122MOL   H11446336   0.913   4.947   7.078  0.2157 -0.1893 -0.5048
  122MOL   H11546337   1.071   4.923   7.040  1.7098  0.2375  0.6660
  122MOL   C11646338   1.008   5.441   7.317 -0.1879 -0.2206  0.2644
  122MOL   C11746339   1.031   5.579   7.249 -0.5986  0.2845 -0.2710
  122MOL   O11846340   1.098   5.572   7.128 -0.4981  0.3952  0.0641
  122MOL   C11946341   1.236   5.536   7.117  0.4184  0.0155 -0.7314
  122MOL   C12046342   1.276   5.549   6.972  0.1648  0.1042 -0.0172
  122MOL   C12146343   1.283   5.705   6.933  0.2417 -0.7659  0.0415
  122MOL   C12246344   1.408   5.475   6.949 -0.1753 -0.3666 -0.7190
  122MOL   H12346345   0.967   5.461   7.416 -0.1671 -0.8059  0.3969
  122MOL   H12446346   1.106   5.393   7.327 -0.3627 -0.5611  0.3545
  122MOL   H12546347   1.085   5.640   7.322 -1.5819  0.0613  0.6585
  122MOL   H12646348   1.253   5.434   7.151  0.2431  0.9012  2.1450
  122MOL   H12746349   1.293   5.608   7.177 -0.3965  2.1320 -2.4072
  122MOL   H12846350   1.207   5.494   6.908  0.8154 -0.2966 -0.3798
  122MOL   H12946351   1.295   5.716   6.826 -0.8597 -1.1514 -0.1354
  122MOL   H13046352   1.376   5.742   6.975 -1.1772  0.7395  1.9549
  122MOL   H13146353   1.191   5.751   6.967  0.3921 -0.1801 -0.3459
  122MOL   H13246354   1.489   5.517   7.009 -0.0433 -0.4025 -0.8723
  122MOL   H13346355   1.411   5.368   6.966  2.9400 -0.1534  0.5293
  122MOL   H13446356   1.422   5.487   6.842 -1.2619  0.5788 -0.7710
  122MOL   C13546357   0.904   5.669   7.229 -0.6316 -0.0865 -0.5673
  122MOL   C13646358   0.931   5.819   7.248 -0.1228  0.5070 -0.0781
  122MOL   O13746359   0.810   5.879   7.213 -0.4001  0.3570  0.0322
  122MOL   C13846360   0.817   5.972   7.115 -0.6996  0.0453  0.4166
  122MOL   C13946361   0.678   6.030   7.127 -0.4280 -0.3108 -0.1312
  122MOL   C14046362   0.570   5.917   7.122 -0.2196  0.4337  0.1012
  122MOL   C14146363   0.674   6.114   7.258  0.4706 -0.0570 -0.0999
  122MOL   H14246364   0.879   5.652   7.125 -2.4952  2.9808 -0.6884
  122MOL   H14346365   0.821   5.636   7.292  1.7974 -1.8134  1.8710
  122MOL   H14446366   1.006   5.833   7.169 -0.1892  0.2396 -0.1875
  122MOL   H14546367   0.823   5.914   7.023 -1.9341 -0.3388  0.5654
  122MOL   H14646368   0.898   6.045   7.111  0.6385 -1.4107  0.7018
  122MOL   H14746369   0.650   6.098   7.047  3.4687  0.7902 -0.6386
  122MOL   H14846370   0.579   5.856   7.033  0.2462 -1.5429  1.4698
  122MOL   H14946371   0.469   5.957   7.126 -1.1646 -2.0949  3.4932
  122MOL   H15046372   0.585   5.849   7.206  0.7182 -1.5813 -1.6638
  122MOL   H15146373   0.576   6.155   7.280  0.2913  0.8286 -2.4498
  122MOL   H15246374   0.685   6.044   7.341  2.0195  1.6024  1.1249
  122MOL   H15346375   0.745   6.196   7.266 -0.7176  0.9110  0.6026
  122MOL   C15446376   0.978   5.875   7.384  0.1780  0.2122 -0.7135
  122MOL   C15546377   1.016   6.022   7.391  0.0072 -0.4716  0.0954
  122MOL   O15646378   1.038   6.057   7.530 -0.0725  0.0960 -0.1933
  122MOL   C15746379   0.927   6.126   7.585  0.0637 -0.7660  0.3671
  122MOL   C15846380   0.939   6.136   7.732  0.6819 -0.0431 -0.5193
  122MOL   C15946381   0.820   6.209   7.800  0.1014  0.7263 -0.1945
  122MOL   C16046382   0.959   5.992   7.786  0.1587  0.5212 -0.2828
  122MOL   H16146383   1.055   5.808   7.423  1.1925  1.1627 -1.0653
  122MOL   H16246384   0.889   5.870   7.448  1.0599  1.9380  0.6899
  122MOL   H16346385   0.944   6.091   7.349 -0.4872 -1.1944 -0.2626
  122MOL   H16446386   0.836   6.071   7.558 -0.7039 -0.0723  1.4954
  122MOL   H16546387   0.938   6.226   7.542 -0.6830 -0.5329  0.6949
  122MOL   H16646388   1.030   6.188   7.763  0.5704 -0.4698  0.5290
  122MOL   H16746389   0.849   6.244   0.075 -0.1992 -2.6531  1.1530
  122MOL   H16846390   0.741   6.139   0.004  1.6742 -0.7038  0.7415
  122MOL   H16946391   0.780   6.295   7.746  2.3754  2.1873  0.3998
  122MOL   H17046392   0.978   5.988   0.068  0.9199 -3.7666 -0.4751
  122MOL   H17146393   0.876   5.921   7.785 -0.0349  0.7547 -1.2438
  122MOL   H17246394   1.051   5.949   7.746 -0.1567 -0.8630  0.4484
  122MOL   C17346395   1.150   6.049   7.325  0.0595  0.7843 -0.1862
  122MOL   C17446396   1.216   6.190   7.347 -0.5366  0.0704  0.2536
  122MOL   O17546397   1.342   6.182   7.278 -0.1645 -0.2128 -0.1559
  122MOL   C17646398   1.449   6.121   7.350  0.1128 -0.7587 -0.0525
  122MOL   C17746399   1.569   6.100   7.267 -0.2940 -0.8419  0.8802
  122MOL   C17846400   1.691   6.031   7.338  0.0398 -0.5937 -0.2073
  122MOL   C17946401   1.546   6.036   7.130 -0.4888 -0.1428  0.1004
  122MOL   H18046402   1.216   5.966   7.352 -1.5434  0.1838  2.0623
  122MOL   H18146403   1.130   6.043   7.218  0.5219  0.6074 -0.2630
  122MOL   H18246404   1.247   6.197   7.451  0.5821 -1.0863  0.0093
  122MOL   H18346405   1.422   6.024   7.392 -0.0945 -1.6287 -2.1793
  122MOL   H18446406   1.462   6.193   7.431 -1.3303 -2.2759  1.5779
  122MOL   H18546407   1.594   6.206   7.252 -2.3557 -0.5552 -0.6858
  122MOL   H18646408   1.665   5.925   7.342 -1.8002 -0.1654 -0.4684
  122MOL   H18746409   1.783   6.048   7.282 -1.4062 -3.2419 -3.5864
  122MOL   H18846410   1.712   6.043   7.444 -1.1419  3.3733 -0.3629
  122MOL   H18946411   1.510   5.933   7.124 -1.3825  0.1389  0.5306
  122MOL   H19046412   1.639   6.035   7.074  0.9717 -0.1895  2.4380
  122MOL   H19146413   1.474   6.097   7.076  1.6348  2.7829  0.4295
  122MOL   C19246414   1.142   6.324   7.297 -0.3161 -0.1459  0.2108
  122MOL   C19346415   1.206   6.457   7.350 -0.7556  0.4112  0.5640
  122MOL   O19446416   1.160   6.475   7.485 -0.0533  0.7613  0.3346
  122MOL   C19546417   1.258   6.459   7.582 -0.0346 -0.0547 -0.5419
  122MOL   C19646418   1.228   6.531   7.718 -0.5244 -0.5440  0.7647
  122MOL   C19746419   1.107   6.475   7.796 -0.1681  0.4326  1.3447
  122MOL   C19846420   1.216   6.684   7.700 -0.0343 -0.7154  0.4369
  122MOL   H19946421   1.042   6.313   7.338 -0.4209 -0.4386 -0.1146
  122MOL   H20046422   1.133   6.326   7.188 -0.2246  0.0517  0.2058
  122MOL   H20146423   1.314   6.449   7.337 -0.9918 -2.6013 -0.0085
  122MOL   H20246424   1.345   6.508   7.537 -1.8015  0.0441 -4.0018
  122MOL   H20346425   1.296   6.360   7.605 -0.8337 -0.5771 -1.4315
  122MOL   H20446426   1.319   6.522   7.777  0.0623  2.4791  0.4243
  122MOL   H20546427   1.128   6.374   0.007 -2.0668  0.0372  1.4103
  122MOL   H20646428   1.087   6.535   0.060  1.1219  2.6166  0.1932
  122MOL   H20746429   1.011   6.483   7.745  0.5815 -0.0522 -0.1520
  122MOL   H20846430   1.303   6.724   7.648  1.4282 -1.1944  2.4479
  122MOL   H20946431   1.126   6.699   7.639  1.3442 -2.3790 -2.1059
  122MOL   H21046432   1.207   6.732   7.797 -1.1147  0.3849 -0.1935
  122MOL   C21146433   1.168   6.581   7.263  0.1360 -0.9595 -0.0755
  122MOL   C21246434   1.028   6.591   7.200 -0.1402  0.3330  0.4167
  122MOL   O21346435   0.931   6.556   7.300  0.2867  0.2103  0.1994
  122MOL   C21446436   0.901   6.645   7.405  0.3305  0.1267 -0.0278
  122MOL   C21546437   0.830   6.568   7.514 -0.4370 -0.0007 -0.1952
  122MOL   C21646438   0.779   6.667   7.623 -0.0549 -0.0933 -0.7514
  122MOL   C21746439   0.721   6.469   7.469 -0.0377 -0.5265  0.0873
  122MOL   H21846440   1.239   6.586   7.180  1.4888 -1.2082  1.0359
  122MOL   H21946441   1.197   6.668   7.320  0.0819 -0.0226 -1.4527
  122MOL   H22046442   1.019   6.520   7.118  1.1303 -1.2298  1.5918
  122MOL   H22146443   0.830   6.721   7.370 -0.9077 -0.5727  0.9609
  122MOL   H22246444   0.992   6.692   7.441 -0.2898  1.6961 -0.4250
  122MOL   H22346445   0.904   6.503   7.560  0.0479  0.3713 -0.4473
  122MOL   H22446446   0.722   6.615   7.700  1.4558  0.6002  0.8692
  122MOL   H22546447   0.859   6.726   7.668 -1.0949  0.7968 -0.0346
  122MOL   H22646448   0.706   6.732   7.574 -0.5910 -0.7029 -0.7639
  122MOL   H22746449   0.646   6.519   7.408  1.5917  2.1344  0.1467
  122MOL   H22846450   0.676   6.417   7.553 -0.0033 -0.5645  0.0820
  122MOL   H22946451   0.765   6.391   7.407 -1.9423 -0.3741 -1.5174
  122MOL   C23046452   1.000   6.731   7.133 -0.9027  0.6923  0.0840
  122MOL   C23146453   1.084   6.776   7.008  0.1763  0.3645 -0.0787
  122MOL   O23246454   1.053   6.682   6.901 -0.2410 -0.2691 -0.2231
  122MOL   C23346455   1.171   6.637   6.838  0.0297 -0.1909  0.3052
  122MOL   C23446456   1.143   6.515   6.747  0.8008 -0.0856 -0.5980
  122MOL   C23546457   1.027   6.546   6.643 -0.4921  0.1492 -0.3829
  122MOL   C23646458   1.265   6.491   6.668  0.1023 -0.0829  0.6456
  122MOL   H23746459   1.010   6.805   7.213  0.3347  1.2673 -0.5927
  122MOL   H23846460   0.900   6.739   7.091 -0.5484  1.6272 -0.6024
  122MOL   H23946461   1.184   6.771   7.053 -0.1407  2.3519  0.9250
  122MOL   H24046462   1.219   6.716   6.780  0.3232 -1.6015 -1.3777
  122MOL   H24146463   1.241   6.609   6.917  2.5360  0.6980 -1.5491
  122MOL   H24246464   1.116   6.435   6.816 -0.8711  0.9399 -0.0311
  122MOL   H24346465   1.037   6.622   6.566 -2.2245 -1.7765 -2.5872
  122MOL   H24446466   0.936   6.569   6.700 -0.7708 -0.8044 -0.4352
  122MOL   H24546467   1.008   6.452   6.592 -0.5629  0.9762 -1.8923
  122MOL   H24646468   1.346   6.468   6.738  1.3277  2.7434  0.2472
  122MOL   H24746469   1.253   6.404   6.604  0.7020 -1.3766  2.2639
  122MOL   H24846470   1.298   6.576   6.608 -0.1171 -1.7276 -1.8577
  122MOL   C24946471   1.058   6.923   6.955  0.3521 -0.1384  0.1559
  122MOL   C25046472   1.125   7.039   7.029  0.3366  0.9130 -0.3734
  122MOL   O25146473   1.259   7.019   6.992  0.0277 -0.0524 -0.2101
  122MOL   C25246474   1.357   7.088   7.064  0.2529  0.5081 -0.8860
  122MOL   C25346475   1.494   7.041   7.018 -0.1743 -0.3084 -0.7764
  122MOL   C25446476   1.531   6.893   7.044  0.3544 -0.3150  0.8437
  122MOL   C25546477   1.589   7.136   7.083 -1.4443  0.7824  1.5765
  122MOL   H25646478   0.951   6.938   6.941 -0.0523 -2.5012  0.5874
  122MOL   H25746479   1.095   6.930   6.853  1.7151 -0.5931  0.5986
  122MOL   H25846480   1.120   7.026   7.137  0.6406  0.4265 -0.4190
  122MOL   H25946481   1.337   7.195   7.068  1.9532  0.8305 -0.4796
  122MOL   H26046482   1.342   7.042   7.162  0.5577 -0.4831 -1.2995
  122MOL   H26146483   1.489   7.061   6.911 -3.7026 -0.3438 -0.6586
  122MOL   H26246484   1.627   6.870   6.998  0.4428  0.9980  0.3474
  122MOL   H26346485   1.465   6.817   7.001 -0.0514 -0.3286  1.4970
  122MOL   H26446486   1.535   6.876   7.151 -1.0060  0.6652  1.0572
  122MOL   H26546487   1.577   7.140   7.192  0.0758  3.1101  1.6762
  122MOL   H26646488   1.692   7.101   7.070 -1.5503  0.7971  0.7058
  122MOL   H26746489   1.579   7.232   7.033 -0.8509 -0.5815 -1.2367
  122MOL   C26846490   1.068   7.183   7.004  0.1185 -0.2411 -0.8089
  122MOL   C26946491   0.915   7.194   7.021 -0.0184  0.0514  0.2855
  122MOL   O27046492   0.874   7.333   7.029  0.0394  0.3948 -0.0540
  122MOL   C27146493   0.813   7.369   6.911  1.2525  0.8313  0.6429
  122MOL   C27246494   0.768   7.515   6.916  0.2606  0.0664 -0.3908
  122MOL   C27346495   0.888   7.613   6.923  1.2558 -0.4538  0.2479
  122MOL   C27446496   0.670   7.535   6.796  0.0437  0.2166  0.7279
  122MOL   H27546497   1.098   7.225   6.908  0.0718 -0.2394 -0.8232
  122MOL   H27646498   1.111   7.247   7.081  0.8108 -1.0044 -0.5576
  122MOL   H27746499   0.868   7.145   6.936 -0.7126 -0.2361  0.8341
  122MOL   H27846500   0.874   7.346   6.823  1.3766  0.4608  0.8248
  122MOL   H27946501   0.724   7.308   6.893 -0.7793  4.1715 -1.1123
  122MOL   H28046502   0.713   7.521   7.010  1.7995 -1.6936  0.6486
  122MOL   H28146503   0.871   7.721   6.915 -1.6861 -0.8386  0.8046
  122MOL   H28246504   0.962   7.577   6.851  1.7497 -1.4026  1.2132
  122MOL   H28346505   0.948   7.612   7.014  0.5620 -0.0992  0.7144
  122MOL   H28446506   0.588   7.464   6.787  0.5438 -0.3823  0.8293
  122MOL   H28546507   0.738   7.531   6.711 -2.5094  0.7945 -1.3795
  122MOL   H28646508   0.625   7.633   6.788 -0.5328 -0.1040  0.0347
  122MOL   C28746509   0.865   7.135   7.157  0.7454 -0.7098 -0.4657
  122MOL   C28846510   0.706   7.128   7.166  0.3375  0.1577  0.1393
  122MOL   O28946511   0.677   7.081   7.308  0.2300 -0.2590 -0.5049
  122MOL   C29046512   0.606   7.180   7.389  0.0248  0.3225  0.2902
  122MOL   C29146513   0.552   7.124   7.518  0.1084  0.7695 -0.5616
  122MOL   C29246514   0.466   6.993   7.499  0.2105 -1.0944  0.2128
  122MOL   C29346515   0.474   7.236   7.597  0.2600  0.5226 -0.0343
  122MOL   H29446516   0.896   7.197   7.240  0.8323  2.0775 -2.5040
  122MOL   H29546517   0.910   7.038   7.177 -0.7003 -1.5561 -1.2243
  122MOL   H29646518   0.665   7.228   7.150  3.4179  1.9043  2.5778
  122MOL   H29746519   0.687   7.252   7.404 -1.7730  2.1381  1.5451
  122MOL   H29846520   0.521   7.221   7.335 -0.8483 -1.2228  0.4612
  122MOL   H29946521   0.635   7.086   7.577 -0.1887 -0.5386 -0.9678
  122MOL   H30046522   0.382   6.983   7.569 -0.6859  1.9748 -0.3245
  122MOL   H30146523   0.524   6.902   7.515  1.1105 -0.5781 -0.0957
  122MOL   H30246524   0.423   7.004   7.400 -1.9953 -0.3609  1.2006
  122MOL   H30346525   0.388   7.279   7.546 -1.1667 -0.2218  1.6895
  122MOL   H30446526   0.444   7.201   7.696  0.4370 -1.6831 -0.7436
  122MOL   H30546527   0.545   7.314   7.626  0.7368  0.4911 -1.0970
  122MOL   C30646528   0.637   7.024   7.081  0.4743  0.9206 -0.0709
  122MOL   C30746529   0.486   7.040   7.088 -0.5776  0.1778 -0.4372
  122MOL   O30846530   0.459   7.165   7.026 -0.2354  0.3651 -0.0507
  122MOL   C30946531   0.340   7.227   7.058  0.1815  0.3249 -0.0615
  122MOL   C31046532   0.339   7.358   6.980  0.0865  0.4547 -0.2960
  122MOL   C31146533   0.214   7.441   7.026 -0.1371  0.1742 -0.3603
  122MOL   C31246534   0.335   7.327   6.824 -0.8062 -0.2787 -0.2282
  122MOL   H31346535   0.675   6.926   7.109  2.7349  1.6079 -0.5933
  122MOL   H31446536   0.677   7.041   6.981  2.3623 -0.2094  0.4533
  122MOL   H31546537   0.451   7.043   7.191  1.3054 -1.3191  0.2774
  122MOL   H31646538   0.331   7.241   7.165 -0.2418 -2.6391  0.3365
  122MOL   H31746539   0.262   7.162   7.019  2.6165 -2.1578 -1.0523
  122MOL   H31846540   0.424   7.419   7.008  1.1974 -0.5859 -1.3371
  122MOL   H31946541   0.125   7.386   6.994  1.2192 -2.1031 -0.3465
  122MOL   H32046542   0.216   7.541   6.981  0.1287  0.5766  0.5355
  122MOL   H32146543   0.222   7.458   7.133 -0.4687  3.3528 -0.7929
  122MOL   H32246544   0.421   7.268   6.794  0.8600  0.9255  2.0270
  122MOL   H32346545   0.320   7.407   6.752  2.0585 -0.7541 -1.4214
  122MOL   H32446546   0.250   7.265   6.796 -1.0903  0.1863 -0.3982
  122MOL   C32546547   0.413   6.924   7.012 -0.2183 -0.4579  0.1138
  122MOL   C32646548   0.388   6.790   7.084  0.8477  0.7484  0.5224
  122MOL   O32746549   0.313   6.811   7.199  0.1930  0.3990 -0.4366
  122MOL   C32846550   0.334   6.718   7.307  0.3223 -0.7603 -0.0712
  122MOL   C32946551   0.206   6.719   7.396 -0.3108 -0.2930 -0.1019
  122MOL   C33046552   0.081   6.652   7.338 -0.3682 -0.0726  0.1608
  122MOL   C33146553   0.241   6.659   7.530  0.0413 -0.2984 -0.2775
  122MOL   H33246554   0.471   6.909   6.921  0.4570  2.8145 -0.0550
  122MOL   H33346555   0.317   6.958   6.972  0.6958  0.2878 -1.5075
  122MOL   H33446556   0.481   6.740   7.111  3.0853  2.8599 -2.8336
  122MOL   H33546557   0.340   6.614   7.276 -1.6664 -1.0968  0.5794
  122MOL   H33646558   0.423   6.748   7.362 -0.9298  3.4758 -0.2024
  122MOL   H33746559   0.184   6.825   7.411 -0.2185 -0.4022  0.8102
  122MOL   H33846560   7.815   6.676   7.394 -1.3347  0.1188 -1.4687
  122MOL   H33946561   0.060   6.681   7.235  0.1387 -0.6607 -0.1071
  122MOL   H34046562   0.087   6.544   7.346  0.6062 -0.0305  0.0296
  122MOL   H34146563   0.173   6.697   7.607  1.5726 -0.9742  1.4699
  122MOL   H34246564   0.231   6.550   7.530  1.0452 -0.4315  1.5527
  122MOL   H34346565   0.337   6.688   7.572 -0.6443 -0.5941  1.5486
  122MOL   C34446566   0.309   6.696   6.996  0.0700  0.2561 -0.2618
  122MOL   C34546567   0.392   6.644   6.879 -0.3007 -0.6336 -0.4809
  122MOL   O34646568   0.496   6.562   6.932 -0.8319 -0.2551  0.6674
  122MOL   C34746569   0.631   6.594   6.897 -0.6470  0.9193  0.1796
  122MOL   C34846570   0.720   6.465   6.906  0.4523 -0.3699 -0.3831
  122MOL   C34946571   0.709   6.366   6.790  0.3326 -0.1755 -0.0669
  122MOL   C35046572   0.703   6.414   7.052 -0.2273 -0.1484 -0.1175
  122MOL   H35146573   0.217   6.741   6.959  1.9344  2.5814 -2.2362
  122MOL   H35246574   0.277   6.608   7.052 -0.1638  1.1059  0.9388
  122MOL   H35346575   0.424   6.730   6.819 -0.4021  1.1803  1.9551
  122MOL   H35446576   0.678   6.669   6.961 -1.3271 -0.0368  1.8496
  122MOL   H35546577   0.626   6.631   6.795 -0.3787  2.3912  0.6939
  122MOL   H35646578   0.824   6.499   6.907  0.6399 -0.9246  1.2515
  122MOL   H35746579   0.785   6.288   6.802  1.9260  1.1252 -1.3804
  122MOL   H35846580   0.715   6.407   6.690  1.2706 -0.1132  0.0114
  122MOL   H35946581   0.606   6.332   6.799  0.1577  0.2861 -0.3257
  122MOL   H36046582   0.791   6.364   7.092  0.5338  0.3974 -1.0739
  122MOL   H36146583   0.692   6.492   7.126 -0.3965  0.4441 -0.7650
  122MOL   H36246584   0.615   6.354   7.077  1.5228 -2.4722  0.6315
  122MOL   C36346585   0.299   6.560   6.787  0.4263 -0.0961 -0.2209
  122MOL   C36446586   0.367   6.516   6.666 -0.1332  0.4628 -0.4386
  122MOL   O36546587   0.279   6.426   6.596  0.4442  0.1268 -0.8187
  122MOL   C36646588   0.326   6.377   6.475 -0.0526 -0.2015  0.4405
  122MOL   C36746589   0.241   6.246   6.442  0.2335  0.2862  0.3850
  122MOL   C36846590   0.295   6.159   6.333  0.1626 -1.1792  0.4163
  122MOL   C36946591   0.092   6.278   6.417  1.0814  0.3582 -0.5940
  122MOL   H37046592   0.263   6.475   6.845  1.2491  0.1935  0.7251
  122MOL   H37146593   0.208   6.615   6.759  0.5288 -0.6003 -1.5703
  122MOL   H37246594   0.462   6.462   6.676  0.4507  1.2902 -1.4114
  122MOL   H37346595   0.308   6.453   6.399 -1.2711 -1.0303 -0.1235
  122MOL   H37446596   0.433   6.360   6.477  0.0825  0.7282  2.7550
  122MOL   H37546597   0.240   6.175   6.524  0.8105  0.9876  1.0120
  122MOL   H37646598   0.222   6.084   6.300  0.6861 -0.9615 -1.3005
  122MOL   H37746599   0.391   6.113   6.357  0.9759 -0.0432 -0.6031
  122MOL   H37846600   0.317   6.200   6.234  0.5675 -2.8225 -0.1974
  122MOL   H37946601   0.071   6.378   6.379 -2.3390 -0.5134 -1.2258
  122MOL   H38046602   0.032   6.270   6.508  0.8166  0.2666 -0.7759
  122MOL   H38146603   0.038   6.217   6.344 -0.1912  0.9733 -0.1869
  122MOL   H38246604   0.385   6.603   6.603 -3.2968  0.3932 -1.5407
  123MOL     C146605   6.179   6.418   0.563 -1.1576  0.5325  0.0461
  123MOL     C246606   6.311   6.494   0.551  0.7078  0.6364  0.4215
  123MOL     O346607   6.346   6.483   0.411  0.3053  0.1528 -0.1772
  123MOL     C446608   6.477   6.456   0.395 -0.0919  0.0062  0.4761
  123MOL     C546609   6.501   6.483   0.239  0.5988 -0.5633 -0.3981
  123MOL     C646610   6.460   6.625   0.198 -0.0778 -0.3439 -0.0893
  123MOL     C746611   6.422   6.377   0.157 -0.2992  0.1179  0.2713
  123MOL     H846612   6.190   6.317   0.524 -0.6746  1.0173 -1.0810
  123MOL     H946613   6.152   6.404   0.668 -0.9479  0.6730  0.1185
  123MOL    H1046614   6.382   6.437   0.609 -0.4413 -0.5873  0.6477
  123MOL    H1146615   6.491   6.350   0.415  4.7059  0.2705 -0.6946
  123MOL    H1246616   6.529   6.530   0.456  1.6144 -2.0333  1.5665
  123MOL    H1346617   6.607   6.471   0.215  1.4211 -0.4917  2.9928
  123MOL    H1446618   6.485   6.669   0.101 -1.4652  0.5499 -0.0487
  123MOL    H1546619   6.352   6.631   0.199  0.0147  1.3313  0.9787
  123MOL    H1646620   6.502   6.693   0.272  1.4152 -1.4088  0.0724
  123MOL    H1746621   6.465   6.278   0.169 -1.2679 -0.7221 -2.5889
  123MOL    H1846622   6.317   6.373   0.188 -0.6133 -0.1881 -0.8191
  123MOL    H1946623   6.407   6.400   0.051 -0.1427  0.6008  0.3524
  123MOL    H2046624   6.093   6.468   0.518 -0.8969  1.1086  0.1870
  123MOL    C2146625   6.316   6.639   0.614 -0.2860  0.2938  1.0932
  123MOL    C2246626   6.266   6.653   0.754  0.3750  0.4849 -0.3068
  123MOL    O2346627   6.380   6.624   0.838 -0.7306  0.0236 -0.2528
  123MOL    C2446628   6.356   6.515   0.924  0.2154 -0.5504  0.4245
  123MOL    C2546629   6.494   6.478   0.988  0.2800  0.3142 -0.2667
  123MOL    C2646630   6.462   6.344   1.057 -0.0772 -1.2511  0.0922
  123MOL    C2746631   6.603   6.455   0.878 -0.4136 -0.1698 -0.2176
  123MOL    H2846632   6.416   6.677   0.593 -0.6652 -0.2015 -1.7740
  123MOL    H2946633   6.251   6.699   0.551  0.9807  1.3231  0.7559
  123MOL    H3046634   6.183   6.585   0.775  0.0657  1.2612  1.0106
  123MOL    H3146635   6.305   6.433   0.874 -0.8152 -1.0251  2.1989
  123MOL    H3246636   6.287   6.549   1.002  1.0130 -0.3892  1.0613
  123MOL    H3346637   6.516   6.550   1.066 -1.2470  0.3519  0.1524
  123MOL    H3446638   6.382   6.348   1.130  1.2142 -0.6186  1.5160
  123MOL    H3546639   6.559   6.320   1.102 -0.6421 -1.6098  1.1316
  123MOL    H3646640   6.435   6.276   0.977  0.5663  0.3453 -1.5370
  123MOL    H3746641   6.690   6.404   0.918  1.9776  3.0144 -1.1470
  123MOL    H3846642   6.570   6.388   0.798  0.1987 -0.4119 -0.2688
  123MOL    H3946643   6.643   6.546   0.834  2.2109  0.6768  3.7442
  123MOL    C4046644   6.234   6.798   0.790  0.5738  0.0549 -0.1011
  123MOL    C4146645   6.108   6.856   0.730  0.5248 -0.7541  0.0189
  123MOL    O4246646   6.084   6.996   0.760 -0.3277  0.6676 -0.0877
  123MOL    C4346647   6.177   7.098   0.718 -0.1760 -0.2297  0.4759
  123MOL    C4446648   6.128   7.244   0.748  0.4375  0.1622 -0.1669
  123MOL    C4546649   6.086   7.257   0.897  0.7274 -0.0408  0.1871
  123MOL    C4646650   6.243   7.338   0.714  0.1375 -0.4947  0.0294
  123MOL    H4746651   6.324   6.851   0.761  0.0267  0.2606 -1.4528
  123MOL    H4846652   6.216   6.811   0.897 -0.2502  3.6901 -0.6350
  123MOL    H4946653   6.117   6.852   0.622 -1.7687 -0.4651 -0.2118
  123MOL    H5046654   6.197   7.085   0.612  0.4775  0.2782  0.5337
  123MOL    H5146655   6.270   7.080   0.772 -0.7508 -3.6387  0.4883
  123MOL    H5246656   6.038   7.268   0.692  0.4680  0.2196 -0.1917
  123MOL    H5346657   6.002   7.195   0.931  0.4501 -0.6042 -1.5059
  123MOL    H5446658   6.173   7.229   0.956  2.2227  0.6122 -1.6454
  123MOL    H5546659   6.068   7.360   0.928 -2.1730 -0.4248 -0.0687
  123MOL    H5646660   6.231   7.367   0.610  0.6462  0.3863  0.2156
  123MOL    H5746661   6.341   7.289   0.716  0.0635 -0.6561 -0.2221
  123MOL    H5846662   6.244   7.439   0.755 -1.0835 -1.5084  2.6436
  123MOL    C5946663   5.985   6.781   0.783  0.7434 -0.4379 -0.0159
  123MOL    C6046664   5.842   6.810   0.722  0.0489 -0.4265 -0.1539
  123MOL    O6146665   5.847   6.796   0.581 -0.3043  0.1425  0.7283
  123MOL    C6246666   5.849   6.660   0.522 -0.8885  0.1847 -0.0377
  123MOL    C6346667   5.868   6.669   0.369  0.0705  0.0746  0.2065
  123MOL    C6446668   5.982   6.759   0.334  0.0338 -0.2261  0.3733
  123MOL    C6546669   5.890   6.535   0.302 -0.4379  0.0289 -0.8714
  123MOL    H6646670   5.979   6.800   0.890  0.4734 -1.6043  0.1872
  123MOL    H6746671   6.003   6.673   0.782 -1.3607 -0.8782  3.2924
  123MOL    H6846672   5.764   6.743   0.758 -0.2004  0.9238  1.9139
  123MOL    H6946673   5.941   6.615   0.561 -1.0586  0.6786  0.9239
  123MOL    H7046674   5.765   6.596   0.548 -0.2086 -1.2988 -1.3459
  123MOL    H7146675   5.775   6.715   0.337  0.1643  0.4430  0.4650
  123MOL    H7246676   6.079   6.712   0.351  1.2869  1.8311 -0.9136
  123MOL    H7346677   5.972   6.857   0.381 -3.0312 -0.6741  0.7690
  123MOL    H7446678   6.002   6.782   0.229  0.2550  0.8226  0.6393
  123MOL    H7546679   5.889   6.542   0.193 -0.8657  0.0061 -0.8697
  123MOL    H7646680   5.991   6.499   0.327 -0.8901 -0.9786 -0.4529
  123MOL    H7746681   5.811   6.465   0.329  0.6568 -1.6202 -1.7976
  123MOL    C7846682   5.793   6.955   0.761 -0.1934  0.4272 -0.3770
  123MOL    C7946683   5.642   6.968   0.739  0.2437 -0.2708 -0.1611
  123MOL    O8046684   5.611   7.101   0.773 -0.1830 -0.3376 -0.6916
  123MOL    C8146685   5.573   7.118   0.906 -0.1953 -0.1181  0.0316
  123MOL    C8246686   5.511   7.257   0.936 -0.5506  0.1801  0.4592
  123MOL    C8346687   5.365   7.275   0.882  0.0831  0.2963 -0.7380
  123MOL    C8446688   5.600   7.370   0.894  0.1785 -0.7818  0.6334
  123MOL    H8546689   5.830   7.038   0.701 -2.1002  1.8784  0.3970
  123MOL    H8646690   5.819   6.967   0.866 -1.3628  2.7456 -0.3226
  123MOL    H8746691   5.594   6.895   0.805  0.7301  1.3633  2.0521
  123MOL    H8846692   5.502   7.045   0.943 -1.3986  0.7112 -0.6129
  123MOL    H8946693   5.653   7.113   0.980  0.2418  2.7260 -0.1795
  123MOL    H9046694   5.503   7.266   1.044 -0.3013  0.6676  0.4404
  123MOL    H9146695   5.291   7.198   0.905  0.5154 -0.3936 -1.6221
  123MOL    H9246696   5.370   7.260   0.775  0.5907  0.3209 -0.7187
  123MOL    H9346697   5.317   7.368   0.912 -0.1296  0.5646 -1.9053
  123MOL    H9446698   5.685   7.382   0.960  0.3024  2.7534 -0.0420
  123MOL    H9546699   5.548   7.462   0.922  0.0401 -0.5489 -0.3827
  123MOL    H9646700   5.613   7.383   0.787 -1.1616  1.3490  0.6810
  123MOL    C9746701   5.597   6.940   0.591 -0.6996  0.3396  0.3931
  123MOL    C9846702   5.444   6.929   0.575  0.1265  0.1388 -0.2525
  123MOL    O9946703   5.421   6.806   0.639 -1.0730  0.0988 -0.4932
  123MOL   C10046704   5.323   6.807   0.738 -0.4933 -0.5269  0.0710
  123MOL   C10146705   5.324   6.670   0.802  0.5157  0.6274  0.0015
  123MOL   C10246706   5.305   6.548   0.703 -0.2185 -0.0381  0.1527
  123MOL   C10346707   5.457   6.653   0.885  0.1312  0.2444  0.4245
  123MOL   H10446708   5.625   6.845   0.547  0.5370  0.6559  0.4854
  123MOL   H10546709   5.633   7.024   0.533  0.3536 -0.8658 -0.7197
  123MOL   H10646710   5.391   7.007   0.629  1.7480  0.9204  0.2577
  123MOL   H10746711   5.227   6.826   0.691 -0.8893 -1.7402  0.3504
  123MOL   H10846712   5.347   6.884   0.811 -0.0690 -0.8665  0.2982
  123MOL   H10946713   5.239   6.681   0.871  0.9457  0.0861  0.6289
  123MOL   H11046714   5.393   6.537   0.639  0.6023  0.4208  1.1812
  123MOL   H11146715   5.293   6.450   0.749 -3.5599  1.3218  2.3746
  123MOL   H11246716   5.225   6.577   0.636  0.1066  0.1471 -0.1567
  123MOL   H11346717   5.541   6.656   0.816  0.5426  1.3595  0.9559
  123MOL   H11446718   5.461   6.739   0.953 -0.1564 -0.1049  0.8843
  123MOL   H11546719   5.466   6.561   0.941  1.4997  0.3443  0.3762
  123MOL   C11646720   5.390   6.926   0.433  0.5501  0.1486 -0.6617
  123MOL   C11746721   5.336   7.064   0.381  0.2870 -0.1793 -0.3714
  123MOL   O11846722   5.424   7.175   0.414 -0.1691 -0.5367 -0.2186
  123MOL   C11946723   5.357   7.284   0.478 -0.2434 -0.3706 -0.6710
  123MOL   C12046724   5.449   7.400   0.480 -0.2183 -0.7005  0.3779
  123MOL   C12146725   5.473   7.464   0.340  0.0067  0.2257 -0.0569
  123MOL   C12246726   5.381   7.500   0.567  0.1166  0.5578  0.1408
  123MOL   H12346727   5.471   6.886   0.373  1.3816 -1.0385  1.2014
  123MOL   H12446728   5.304   6.859   0.429  1.2189 -0.6256 -2.8520
  123MOL   H12546729   5.246   7.077   0.441  0.3529  0.7006 -0.4568
  123MOL   H12646730   5.329   7.262   0.581  1.1202  1.7713  0.1925
  123MOL   H12746731   5.266   7.315   0.427 -1.2327 -2.6369 -0.3521
  123MOL   H12846732   5.544   7.370   0.525  0.2830  0.1527 -0.1081
  123MOL   H12946733   5.552   7.539   0.344 -0.5396  0.7873  0.3596
  123MOL   H13046734   5.390   7.520   0.296 -0.8547 -2.2609 -1.6505
  123MOL   H13146735   5.500   7.382   0.274 -2.6489 -1.8688  1.3718
  123MOL   H13246736   5.387   7.481   0.674  1.1239  1.0469  0.1842
  123MOL   H13346737   5.428   7.596   0.545  1.0990  0.4178  1.5654
  123MOL   H13446738   5.277   7.510   0.535  0.2467 -0.2219 -0.5260
  123MOL   C13546739   5.319   7.077   0.228 -0.0712 -0.2601 -0.5412
  123MOL   C13646740   5.234   6.980   0.146 -0.0857 -0.0629 -0.6784
  123MOL   O13746741   5.098   6.977   0.193  0.2032 -0.1449  0.0670
  123MOL   C13846742   5.021   6.865   0.165  1.0363 -0.2316  0.3972
  123MOL   C13946743   4.876   6.878   0.221 -0.9093 -0.1050  0.5106
  123MOL   C14046744   4.777   6.777   0.145 -0.1639  0.6283  0.0770
  123MOL   C14146745   4.877   6.878   0.378 -0.5025 -0.3913 -0.0220
  123MOL   H14246746   5.271   7.173   0.210 -1.6179 -0.8953  0.1175
  123MOL   H14346747   5.424   7.082   0.200  0.2535 -0.9900  0.5035
  123MOL   H14446748   5.274   6.879   0.151  0.2267  0.1331  0.9044
  123MOL   H14546749   5.069   6.776   0.205  0.6811 -1.1097 -1.0844
  123MOL   H14646750   5.018   6.842   0.058 -3.9753 -1.5353  0.7090
  123MOL   H14746751   4.845   6.979   0.194  1.8413  1.0292  1.3549
  123MOL   H14846752   4.672   6.786   0.171  0.2586  1.4325  1.5693
  123MOL   H14946753   4.810   6.675   0.164  0.8758  1.1087  0.9034
  123MOL   H15046754   4.780   6.780   0.036 -0.7404 -1.8454 -0.0361
  123MOL   H15146755   4.912   6.779   0.408 -0.6786  0.1950  2.2364
  123MOL   H15246756   4.956   6.948   0.403 -0.2803 -0.4729 -0.4882
  123MOL   H15346757   4.784   6.897   0.432  0.9760  1.3606  1.9963
  123MOL   C15446758   5.228   7.023   7.818 -0.4568  0.1055  0.2284
  123MOL   C15546759   5.366   7.030   7.744 -0.2057  0.1264 -0.4182
  123MOL   O15646760   5.417   6.903   7.749 -0.0921  0.0915 -0.8696
  123MOL   C15746761   5.545   6.895   7.809 -0.1436  0.3078 -0.5717
  123MOL   C15846762   5.598   6.761   7.771  0.1045  0.1560 -0.4931
  123MOL   C15946763   5.664   6.775   7.636 -0.3103  0.3745 -0.3419
  123MOL   C16046764   5.686   6.692   0.050  0.2101 -0.3052  0.7152
  123MOL   H16146765   5.175   7.117   7.802 -0.4684 -0.2383 -1.9495
  123MOL   H16246766   5.162   6.954   7.765 -0.8782  1.0099 -0.4544
  123MOL   H16346767   5.439   7.097   7.789 -0.2699 -0.9353  1.3165
  123MOL   H16446768   5.522   6.910   0.090 -0.5425  0.6492 -0.7056
  123MOL   H16546769   5.621   6.971   7.791 -0.3702  0.5556 -0.4867
  123MOL   H16646770   5.519   6.689   7.750 -0.5724  0.3949  1.1485
  123MOL   H16746771   5.699   6.681   7.596  0.1296  1.6696 -3.0804
  123MOL   H16846772   5.754   6.836   7.646  0.1128 -0.5311  1.8883
  123MOL   H16946773   5.588   6.818   7.572 -1.3467 -1.3902 -0.3337
  123MOL   H17046774   5.655   6.695   0.154  0.0357  1.4214  0.6434
  123MOL   H17146775   5.724   6.592   0.030  0.1768  0.1815 -2.0081
  123MOL   H17246776   5.775   6.755   0.056  1.5584 -2.1335  0.1802
  123MOL   C17346777   5.362   7.068   7.599 -0.5330  0.1999 -0.7750
  123MOL   C17446778   5.313   7.212   7.572  0.4717 -0.4067  0.0786
  123MOL   O17546779   5.403   7.305   7.628 -0.4700 -0.0249  0.0219
  123MOL   C17646780   5.357   7.378   7.741 -0.5190 -0.7230  0.3140
  123MOL   C17746781   5.446   7.492   7.773  0.1586 -0.9437  0.0834
  123MOL   C17846782   5.596   7.452   7.799  0.6965 -0.1277 -0.3703
  123MOL   C17946783   5.440   7.604   7.670  0.3614  0.3479  0.3113
  123MOL   H18046784   5.461   7.049   7.557 -0.3342 -0.5479  0.0209
  123MOL   H18146785   5.299   6.991   7.555  0.3293 -0.7999 -0.2869
  123MOL   H18246786   5.209   7.227   7.602  0.4023  0.6983 -0.6773
  123MOL   H18346787   5.360   7.309   0.001  3.6080 -0.1525  0.7069
  123MOL   H18446788   5.258   7.417   7.716  0.6310  2.1428  0.0524
  123MOL   H18546789   5.412   7.534   0.043 -0.1591 -0.8565 -0.0709
  123MOL   H18646790   5.645   7.436   7.703  1.5493 -1.6680  0.3071
  123MOL   H18746791   5.649   7.517   0.044  1.9609 -1.8221  0.2725
  123MOL   H18846792   5.593   7.351   0.015 -0.6683  1.0155  2.5272
  123MOL   H18946793   5.509   7.683   7.698  1.4585 -0.5962  0.3216
  123MOL   H19046794   5.341   7.649   7.657 -0.3084 -1.2805 -0.3606
  123MOL   H19146795   5.477   7.576   7.571 -0.5578  2.0888 -0.5432
  123MOL   C19246796   5.334   7.233   7.422 -0.0591  0.2680 -0.1188
  123MOL   C19346797   5.301   7.365   7.350  0.8960 -0.1056 -0.3978
  123MOL   O19446798   5.169   7.364   7.287 -0.1843 -0.3401 -0.2363
  123MOL   C19546799   5.062   7.336   7.370  0.2871 -0.0823 -0.4612
  123MOL   C19646800   4.927   7.375   7.305 -0.1477  0.3697 -0.0377
  123MOL   C19746801   4.887   7.276   7.193  0.1431 -0.2218 -0.2504
  123MOL   C19846802   4.926   7.518   7.254 -0.0329 -0.0332  0.4516
  123MOL   H19946803   5.273   7.152   7.382 -1.8573  1.1490  0.7661
  123MOL   H20046804   5.438   7.210   7.400 -0.1571 -0.5338  0.2056
  123MOL   H20146805   5.298   7.442   7.428 -1.5582 -1.6561  1.1196
  123MOL   H20246806   5.074   7.401   7.457 -1.6695 -3.6794  2.6853
  123MOL   H20346807   5.065   7.231   7.401 -0.6500  0.3317  1.0752
  123MOL   H20446808   4.855   7.369   7.387  0.7705 -2.1519  0.6411
  123MOL   H20546809   4.948   7.295   7.105  1.1488 -2.0495  0.0217
  123MOL   H20646810   4.891   7.170   7.221 -0.7930 -0.0672  0.5108
  123MOL   H20746811   4.780   7.282   7.173  0.0627 -1.2503 -0.1663
  123MOL   H20846812   5.001   7.545   7.180 -2.0815 -0.2332 -1.7578
  123MOL   H20946813   4.826   7.545   7.218  0.3176  2.6128  1.3948
  123MOL   H21046814   4.950   7.587   7.334 -1.2155  0.8085  0.0993
  123MOL   C21146815   5.407   7.398   7.250 -0.5731  0.9448 -0.2967
  123MOL   C21246816   5.377   7.521   7.167 -0.7253  0.6241  0.0148
  123MOL   O21346817   5.381   7.629   7.256  0.4876  0.2904  0.7979
  123MOL   C21446818   5.251   7.687   7.294  0.2385  0.2298 -0.3487
  123MOL   C21546819   5.258   7.813   7.377  0.2308 -0.4044  0.0362
  123MOL   C21646820   5.340   0.098   7.309  0.5995 -0.7948  0.1907
  123MOL   C21746821   5.121   0.038   7.414  0.1450 -0.8916 -0.1080
  123MOL   H21846822   5.415   7.323   7.172  3.9204  0.3195  0.6485
  123MOL   H21946823   5.504   7.423   7.292 -0.3067  0.6255 -0.7200
  123MOL   H22046824   5.285   7.510   7.110 -1.7329 -1.4697  1.9416
  123MOL   H22146825   5.188   7.615   7.347 -0.2869 -0.1970 -1.5473
  123MOL   H22246826   5.195   7.703   7.202 -0.7266 -1.0061  0.0051
  123MOL   H22346827   5.312   7.788   7.469 -2.6584 -3.8003  0.8824
  123MOL   H22446828   5.285   0.154   7.234  2.3326 -1.2923 -1.4894
  123MOL   H22546829   5.381   0.174   7.376  0.7334 -2.1806  1.7305
  123MOL   H22646830   5.427   0.069   7.252 -0.2696 -2.2963 -0.3999
  123MOL   H22746831   5.126   0.138   7.458 -1.3817 -1.1264  0.6145
  123MOL   H22846832   5.082   7.811   7.502 -0.7169  0.7684  0.5050
  123MOL   H22946833   5.046   0.038   7.336 -0.5059  0.1422  0.4968
  123MOL   C23046834   5.490   7.556   7.070 -0.0060 -0.3294  0.1447
  123MOL   C23146835   5.473   7.686   6.987  0.4296  0.4442 -1.0065
  123MOL   O23246836   5.611   7.704   6.940  0.3710 -0.3850 -0.3667
  123MOL   C23346837   5.671   0.003   6.970  0.3393 -0.5178  0.4563
  123MOL   C23446838   5.817   0.002   6.924 -0.7601 -0.3465  0.4316
  123MOL   C23546839   5.841   7.779   6.775 -0.1590 -0.0946  0.0904
  123MOL   C23646840   5.872   0.144   6.942 -0.5621  0.2431 -0.3113
  123MOL   H23746841   5.517   7.479   6.997 -0.0146 -0.1021 -0.1018
  123MOL   H23846842   5.575   7.561   7.137  0.8625 -0.3321 -0.9391
  123MOL   H23946843   5.445   7.769   7.052 -0.7692 -0.2888 -0.5594
  123MOL   H24046844   5.614   0.077   6.915  1.1750  0.0043  0.2697
  123MOL   H24146845   5.673   0.031   7.076  2.6402  1.5717 -0.0943
  123MOL   H24246846   5.869   7.756   6.989 -0.7241 -1.1390 -0.4428
  123MOL   H24346847   5.788   0.011   6.699  1.4573 -0.2568 -1.1707
  123MOL   H24446848   5.813   7.674   6.779 -2.5455  0.5268  0.5357
  123MOL   H24546849   5.947   7.781   6.753 -0.5406 -0.0765 -1.8323
  123MOL   H24646850   5.857   0.180   7.043  1.6303  3.0768 -0.9257
  123MOL   H24746851   5.975   0.134   6.909 -0.6090 -2.0149  0.1478
  123MOL   H24846852   5.825   0.216   6.875 -2.7588 -0.6166  0.2668
  123MOL   C24946853   5.372   7.672   6.870 -0.0476 -0.5603 -0.3854
  123MOL   C25046854   5.367   7.793   6.783 -0.4183 -0.6949 -0.3359
  123MOL   O25146855   5.310   7.752   6.661 -0.2004 -0.3469 -0.0944
  123MOL   C25246856   5.402   7.756   6.556  0.4413  0.0037  0.2494
  123MOL   C25346857   5.332   7.724   6.423 -0.2908 -0.3747  0.3734
  123MOL   C25446858   5.432   7.736   6.304 -0.0458  0.0697  0.5834
  123MOL   C25546859   5.203   7.810   6.407 -0.4860  0.4437 -0.1869
  123MOL   H25646860   5.274   7.640   6.907  0.1126  0.1711  0.7015
  123MOL   H25746861   5.390   7.586   6.806  2.4886 -1.0885  0.9887
  123MOL   H25846862   5.460   0.023   6.763 -0.9851  0.1337 -0.7052
  123MOL   H25946863   5.457   0.025   6.552 -1.2504  1.0148  0.3658
  123MOL   H26046864   5.478   7.679   6.574  1.0428 -0.0610 -2.3746
  123MOL   H26146865   5.304   7.619   6.435  2.4262 -1.2698 -0.5771
  123MOL   H26246866   5.394   7.711   6.206 -0.6460 -1.2091  1.1297
  123MOL   H26346867   5.515   7.667   6.321  0.2363  0.1987 -0.2623
  123MOL   H26446868   5.466   0.014   6.286 -0.6789  0.3088  0.7346
  123MOL   H26546869   5.167   7.781   6.308 -0.7228 -0.8198  0.2644
  123MOL   H26646870   5.124   7.778   6.475 -1.1034  0.4269 -0.9024
  123MOL   H26746871   5.216   0.093   6.417  2.2742  0.1771 -0.4421
  123MOL   C26846872   5.263   0.074   6.837  0.1202  0.4768  0.0203
  123MOL   C26946873   5.264   0.209   6.767 -0.7622  0.7094 -0.1773
  123MOL   O27046874   5.387   0.279   6.791  0.3558 -0.4935 -0.4234
  123MOL   C27146875   5.425   0.376   6.685  0.1517 -0.3953  0.4606
  123MOL   C27246876   5.574   0.396   6.689 -0.3450 -0.4236  0.5963
  123MOL   C27346877   5.628   0.467   6.814 -0.2498  1.0370  0.1917
  123MOL   C27446878   5.645   0.268   6.630 -0.4031 -0.1200 -0.5797
  123MOL   H27546879   5.268   0.087   6.945 -1.4159 -0.5495  0.2250
  123MOL   H27646880   5.170   0.021   6.819  0.7412 -0.0001 -1.8944
  123MOL   H27746881   5.260   0.186   6.661  0.2580  0.5294 -0.1823
  123MOL   H27846882   5.383   0.342   6.590  1.1701 -0.9934  0.2261
  123MOL   H27946883   5.383   0.472   6.714  0.1204  1.0515 -4.0805
  123MOL   H28046884   5.598   0.470   6.612  0.3076 -1.8762 -0.6224
  123MOL   H28146885   5.583   0.566   6.821 -3.1163 -0.3977  4.9687
  123MOL   H28246886   5.735   0.482   6.802 -0.0931 -1.1106 -1.2900
  123MOL   H28346887   5.616   0.418   6.911  1.4273 -1.9479 -1.0326
  123MOL   H28446888   5.752   0.267   6.650 -0.6398 -0.2771  0.6972
  123MOL   H28546889   5.642   0.251   6.522  2.3074  1.0599 -0.8818
  123MOL   H28646890   5.602   0.176   6.670  0.1250  0.8313  2.2321
  123MOL   C28746891   5.155   0.305   6.809 -0.1404 -0.1632  0.6455
  123MOL   C28846892   5.005   0.269   6.801 -0.0165 -0.2949  0.4836
  123MOL   O28946893   4.965   0.294   6.670  0.6636 -0.2790 -0.1727
  123MOL   C29046894   4.913   0.189   6.597  0.0535  0.2310  0.8406
  123MOL   C29146895   4.836   0.238   6.472 -0.1963  0.1856 -0.5578
  123MOL   C29246896   4.738   0.130   6.408 -0.0830  0.4231  0.5311
  123MOL   C29346897   4.928   0.305   6.361  0.5202 -0.4873 -0.1236
  123MOL   H29446898   5.153   0.405   6.766  1.7174 -0.3013  0.2164
  123MOL   H29546899   5.167   0.321   6.917 -0.7972 -1.3900  0.9074
  123MOL   H29646900   4.995   0.164   6.830  0.6841 -0.3300  0.6064
  123MOL   H29746901   4.994   0.123   6.567 -1.2298 -0.8635 -0.3184
  123MOL   H29846902   4.840   0.128   6.650 -1.9204 -0.5281 -2.5626
  123MOL   H29946903   4.775   0.319   6.513 -0.0386 -1.6134  3.5278
  123MOL   H30046904   4.661   0.090   6.474 -0.4762 -1.0419 -0.7693
  123MOL   H30146905   4.791   0.042   6.371 -3.5338 -2.3427  1.8374
  123MOL   H30246906   4.696   0.186   6.324 -2.0099  0.6335  1.6110
  123MOL   H30346907   4.979   0.392   6.400 -0.5768 -0.4372  1.2400
  123MOL   H30446908   4.999   0.227   6.332  3.2657  1.9372 -0.0779
  123MOL   H30546909   4.860   0.327   6.279 -1.4961 -0.6551  1.4611
  123MOL   C30646910   4.918   0.357   6.890  0.8419  0.4403 -0.3265
  123MOL   C30746911   4.780   0.310   6.932 -0.0304 -0.0065  0.1933
  123MOL   O30846912   4.796   0.223   7.044 -0.6232 -0.1650 -0.0302
  123MOL   C30946913   4.703   0.119   7.062  0.1144  0.4083 -0.2472
  123MOL   C31046914   4.719   0.063   7.206 -0.2030 -0.2965  0.1540
  123MOL   C31146915   4.629   7.760   7.229  0.7773 -0.5298 -0.4282
  123MOL   C31246916   4.683   0.178   7.305  0.3421 -0.5018 -0.1489
  123MOL   H31346917   4.915   0.453   6.839 -2.1298  0.7903  0.3913
  123MOL   H31446918   4.969   0.384   6.983 -2.1386  1.0182  1.2300
  123MOL   H31546919   4.741   0.254   6.848  0.9359 -1.1610  0.5047
  123MOL   H31646920   4.723   0.042   6.988  0.7111 -0.5496  0.8783
  123MOL   H31746921   4.600   0.145   7.041  0.0371 -0.7229 -1.3078
  123MOL   H31846922   4.825   0.045   7.224  0.4441  3.3848  0.2549
  123MOL   H31946923   4.522   7.785   7.231  0.9561  0.0732  2.2283
  123MOL   H32046924   4.652   7.718   7.326 -1.6108 -1.3711 -0.1809
  123MOL   H32146925   4.640   7.683   7.152  1.7246 -0.5854 -0.2403
  123MOL   H32246926   4.709   0.147   7.407 -1.7077  1.1249  0.9156
  123MOL   H32346927   4.578   0.206   7.310  0.3384 -0.3602 -0.9898
  123MOL   H32446928   4.747   0.262   7.280  0.9336 -1.1096 -0.6690
  123MOL   C32546929   4.684   0.421   6.972  0.8707 -0.7085  0.2351
  123MOL   C32646930   4.639   0.521   6.861 -0.2265 -0.7247  0.8636
  123MOL   O32746931   4.530   0.441   6.813 -0.3685  0.3414  0.4452
  123MOL   C32846932   4.544   0.419   6.673  0.6028  0.1484 -0.1507
  123MOL   C32946933   4.417   0.339   6.632 -0.5215 -0.0761  0.3151
  123MOL   C33046934   4.296   0.423   6.646  0.4623  0.7674 -0.0872
  123MOL   C33146935   4.422   0.307   6.485  0.1334  0.4269 -0.4165
  123MOL   H33246936   4.727   0.477   7.055 -1.9153 -0.1405  1.3435
  123MOL   H33346937   4.595   0.371   7.011 -0.5082  0.8919 -0.7722
  123MOL   H33446938   4.722   0.540   6.793 -0.9410 -0.1697  0.1347
  123MOL   H33546939   4.542   0.513   6.618  0.8533 -0.0316 -0.4689
  123MOL   H33646940   4.639   0.372   6.648  1.0686  0.8236  0.3293
  123MOL   H33746941   4.420   0.251   6.698  1.3829 -0.7029 -0.5668
  123MOL   H33846942   4.204   0.363   6.645  0.7771  0.2804  0.1874
  123MOL   H33946943   4.300   0.467   6.746  1.2685  3.5678 -1.2951
  123MOL   H34046944   4.280   0.500   6.571  0.7725  1.4212  0.5117
  123MOL   H34146945   4.357   0.230   6.444  0.4129  0.1074 -0.2667
  123MOL   H34246946   4.402   0.391   6.418 -0.2347 -0.2763 -1.1928
  123MOL   H34346947   4.514   0.262   6.448 -0.8264 -2.3186  0.4629
  123MOL   C34446948   4.563   0.646   6.916  0.1785 -0.5054 -0.1071
  123MOL   C34546949   4.544   0.747   6.796 -0.1699 -0.3311 -0.1576
  123MOL   O34646950   4.448   0.842   6.847  0.5146  0.0195 -0.2606
  123MOL   C34746951   4.314   0.819   6.810 -0.3584  0.0625  0.1371
  123MOL   C34846952   4.216   0.882   6.915 -0.2141  0.3877 -0.7696
  123MOL   C34946953   4.263   1.015   6.952 -0.4152 -0.3611 -0.2968
  123MOL   C35046954   4.206   0.800   7.046 -0.5467  0.5527 -0.4124
  123MOL   H35146955   4.617   0.693   6.998 -1.2903 -1.7493  1.5943
  123MOL   H35246956   4.470   0.612   6.960  0.3117 -0.5629  0.1315
  123MOL   H35346957   4.507   0.693   6.709 -0.6166 -0.5006  0.1347
  123MOL   H35446958   4.299   0.711   6.805  1.9636 -0.2851 -0.1510
  123MOL   H35546959   4.298   0.860   6.710  0.4851 -0.7148 -0.3309
  123MOL   H35646960   4.118   0.888   6.869 -0.1594 -1.0393 -1.0683
  123MOL   H35746961   4.225   1.088   6.880 -2.1786  0.0598  1.0152
  123MOL   H35846962   4.371   1.019   6.968 -0.2888 -1.8202 -0.7582
  123MOL   H35946963   4.213   1.041   7.045 -0.0912 -3.1982  0.7142
  123MOL   H36046964   4.148   0.847   7.125  1.9445  1.0253  1.1818
  123MOL   H36146965   4.162   0.701   7.032 -0.8996  0.5225  0.8172
  123MOL   H36246966   4.302   0.775   7.090 -1.2340 -1.7955 -0.1598
  123MOL   C36346967   4.668   0.837   6.771 -0.7593 -0.3333  0.2515
  123MOL   C36446968   4.666   0.929   6.647  0.4445  0.6893  0.1407
  123MOL   O36546969   4.769   1.018   6.667  0.0005  0.0239  0.3218
  123MOL   C36646970   4.752   1.143   6.720 -0.0364 -0.3251 -0.4460
  123MOL   C36746971   4.884   1.234   6.745  0.3875  0.3356 -0.0264
  123MOL   C36846972   4.868   1.372   6.811 -0.3837 -0.2301 -0.7335
  123MOL   C36946973   4.965   1.244   6.619  0.3400  0.3021 -0.7786
  123MOL   H37046974   4.675   0.888   6.867  3.4738 -0.7892  0.2570
  123MOL   H37146975   4.757   0.775   6.765  1.0367  2.2516 -0.6930
  123MOL   H37246976   4.571   0.983   6.651  0.6709  1.1339 -0.3938
  123MOL   H37346977   4.679   1.197   6.658 -0.6119  1.1037  1.4371
  123MOL   H37446978   4.716   1.133   6.822  0.3247 -1.4164 -0.4149
  123MOL   H37546979   4.943   1.176   6.816  0.9184  1.7822  0.7276
  123MOL   H37646980   4.961   1.417   6.846 -0.0583 -2.2346  1.0184
  123MOL   H37746981   4.799   1.359   6.894 -1.0021 -1.0007 -1.3689
  123MOL   H37846982   4.831   1.445   6.739  0.7624 -0.4346 -1.5525
  123MOL   H37946983   4.923   1.322   6.556 -0.5933  0.9630  0.6366
  123MOL   H38046984   4.961   1.151   6.561  0.3115  0.6102 -1.2740
  123MOL   H38146985   5.069   1.273   6.632  0.6921  0.2347 -3.1944
  123MOL   H38246986   4.682   0.879   6.552 -0.9682  1.4482 -0.4957
  124MOL     C146987   2.405   2.347   1.131  0.7455  0.0664  0.0195
  124MOL     C246988   2.303   2.305   1.236 -0.8381 -0.3027  0.2828
  124MOL     O346989   2.244   2.184   1.180 -0.1103  0.3457 -0.1156
  124MOL     C446990   2.124   2.191   1.101  0.1673  0.0573  0.1082
  124MOL     C546991   2.074   2.048   1.103 -0.2609  0.3568  0.4437
  124MOL     C646992   2.173   1.955   1.031  0.4232  1.0822 -0.0937
  124MOL     C746993   1.933   2.047   1.022  0.7125  0.4119  0.0562
  124MOL     H846994   2.472   2.266   1.104  2.2265  0.8807  1.2008
  124MOL     H946995   2.356   2.388   1.043 -0.4146 -3.9700 -1.3334
  124MOL    H1046996   2.231   2.386   1.246  0.7965  1.5490 -2.0284
  124MOL    H1146997   2.140   2.236   1.002  0.5411 -0.9415 -0.2917
  124MOL    H1246998   2.051   2.257   1.148  0.5666 -1.1464  2.4733
  124MOL    H1346999   2.066   2.023   1.209 -0.7456 -0.4023  0.2303
  124MOL    H1447000   2.148   1.850   1.044  1.8667  0.9753  2.2613
  124MOL    H1547001   2.175   1.987   0.927 -2.8699  2.1065  0.1158
  124MOL    H1647002   2.272   1.963   1.078  1.1982 -0.4120 -1.4058
  124MOL    H1747003   1.949   2.052   0.914  0.7987 -1.4422 -0.0477
  124MOL    H1847004   1.883   1.950   1.034  2.8111 -0.6495  0.3837
  124MOL    H1947005   1.866   2.126   1.055 -0.3607 -0.5409  0.1943
  124MOL    H2047006   2.464   2.425   1.178 -0.2361  0.3964  0.7323
  124MOL    C2147007   2.365   2.259   1.368 -0.1806  0.7804  0.2046
  124MOL    C2247008   2.261   2.217   1.475 -0.1901 -0.9244  0.1856
  124MOL    O2347009   2.301   2.122   1.569 -0.2481  0.2285 -0.2561
  124MOL    C2447010   2.254   1.990   1.530 -0.4090 -0.0354 -0.1228
  124MOL    C2547011   2.267   1.896   1.644  0.7677 -0.0054 -0.4201
  124MOL    C2647012   2.180   1.942   1.755 -0.2743  0.4472 -0.1613
  124MOL    C2747013   2.238   1.747   1.596 -0.0090  0.5095 -0.2046
  124MOL    H2847014   2.434   2.175   1.358  0.8436  1.5951  0.3209
  124MOL    H2947015   2.437   2.329   1.411  1.3196 -0.7964  0.3028
  124MOL    H3047016   2.171   2.192   1.417 -0.2722  2.4457 -1.2635
  124MOL    H3147017   2.317   1.950   1.450  2.1031  1.5368  1.0145
  124MOL    H3247018   2.151   1.992   1.495 -0.0813  1.6003 -1.0713
  124MOL    H3347019   2.371   1.896   1.676 -0.1643  0.4835  2.8270
  124MOL    H3447020   2.073   1.949   1.735 -0.4507 -1.3255  0.1086
  124MOL    H3547021   2.221   2.040   1.781 -1.6641  0.6516  1.3704
  124MOL    H3647022   2.193   1.889   1.849  1.4673 -0.9989 -1.1815
  124MOL    H3747023   2.133   1.726   1.577 -0.7073  1.5367  2.2136
  124MOL    H3847024   2.304   1.724   1.513 -0.4481 -1.1240 -0.1238
  124MOL    H3947025   2.278   1.682   1.674  1.1204  0.6436 -0.6676
  124MOL    C4047026   2.212   2.336   1.555 -0.4029  0.2333 -0.3319
  124MOL    C4147027   2.070   2.322   1.628 -0.0993 -0.2708  0.3814
  124MOL    O4247028   1.974   2.291   1.530 -0.8957  0.6370 -0.3505
  124MOL    C4347029   1.863   2.202   1.565 -0.6631  0.7140  0.2425
  124MOL    C4447030   1.756   2.217   1.454  1.3813  0.1192 -0.1419
  124MOL    C4547031   1.813   2.170   1.319  0.0286 -0.0213  0.6455
  124MOL    C4647032   1.622   2.143   1.490 -0.3382 -0.4966  0.3793
  124MOL    H4747033   2.202   2.422   1.490  1.6657  0.4117 -0.4515
  124MOL    H4847034   2.287   2.351   1.633 -1.5361 -1.3302  1.1118
  124MOL    H4947035   2.077   2.232   1.689  0.7462 -0.7991 -0.4850
  124MOL    H5047036   1.830   2.226   1.666 -0.2253  1.7751  0.1347
  124MOL    H5147037   1.884   2.095   1.572 -0.1033  0.7633 -0.5740
  124MOL    H5247038   1.738   2.324   1.448 -0.1630 -0.0621  0.9390
  124MOL    H5347039   1.750   2.190   1.233 -1.2818 -0.3236  1.5183
  124MOL    H5447040   1.902   2.232   1.310 -1.0094  1.3568 -0.3182
  124MOL    H5547041   1.851   2.068   1.311 -1.4105 -0.4832 -0.6031
  124MOL    H5647042   1.588   2.197   1.578  0.8959 -2.4236  2.0876
  124MOL    H5747043   1.642   2.039   1.517  0.5384 -0.0816  1.3638
  124MOL    H5847044   1.550   2.157   1.409 -1.0872 -1.4294  0.8617
  124MOL    C5947045   2.040   2.455   1.712 -0.0965 -0.4006  0.2383
  124MOL    C6047046   1.991   2.583   1.634 -0.2615 -0.0791 -0.0541
  124MOL    O6147047   2.110   2.654   1.606 -0.7935  0.1103 -0.5471
  124MOL    C6247048   2.120   2.692   1.474  0.3703 -0.3508  0.1181
  124MOL    C6347049   2.269   2.707   1.440  0.0945 -0.0421 -0.2384
  124MOL    C6447050   2.297   2.734   1.292  0.0856  0.7959 -0.7302
  124MOL    C6547051   2.335   2.816   1.533 -0.6132  0.1824  1.0339
  124MOL    H6647052   2.120   2.494   1.775  1.0806  0.6694 -1.8263
  124MOL    H6747053   1.952   2.428   1.770 -1.3552  0.9310 -0.9714
  124MOL    H6847054   1.941   2.565   1.538 -0.6089 -0.3048  0.1675
  124MOL    H6947055   2.075   2.616   1.411 -1.8811 -1.8263  3.3736
  124MOL    H7047056   2.067   2.784   1.448  0.1957 -1.2524 -2.7983
  124MOL    H7147057   2.335   2.622   1.449  2.1688  1.5879  0.3255
  124MOL    H7247058   2.236   2.816   1.252  0.0475  0.7634 -0.7383
  124MOL    H7347059   2.264   2.644   1.239 -0.5015  1.5685 -1.7040
  124MOL    H7447060   2.402   2.753   1.272  0.1097 -1.1684 -2.6919
  124MOL    H7547061   2.416   2.852   1.469 -1.2245 -1.1185 -0.4875
  124MOL    H7647062   2.274   2.901   1.564 -1.4154  0.3437 -0.9290
  124MOL    H7747063   2.369   2.759   1.620 -0.3824 -0.9358  0.2211
  124MOL    C7847064   1.897   2.671   1.713  0.5117  0.5967  0.1585
  124MOL    C7947065   1.819   2.779   1.629 -0.3012 -0.0559 -1.1080
  124MOL    O8047066   1.675   2.761   1.632  0.1362  0.2470  0.3751
  124MOL    C8147067   1.624   2.674   1.536  0.0915  0.3008  0.1714
  124MOL    C8247068   1.475   2.677   1.548 -0.0112  0.9638  0.5458
  124MOL    C8347069   1.434   2.619   1.689  0.7331 -0.1953 -0.0311
  124MOL    C8447070   1.389   2.606   1.442  0.3438  0.3822  0.6634
  124MOL    H8547071   1.955   2.716   1.794  0.7103  1.8336 -0.6546
  124MOL    H8647072   1.819   2.614   1.764 -0.1036  2.8329  1.7981
  124MOL    H8747073   1.837   2.775   1.522  1.0179  2.5639 -1.0374
  124MOL    H8847074   1.659   2.711   1.439 -0.9667 -1.8202 -1.0487
  124MOL    H8947075   1.652   2.570   1.552  0.3861  0.3242 -0.1817
  124MOL    H9047076   1.439   2.779   1.539 -2.7927  0.1344  1.7180
  124MOL    H9147077   1.327   2.632   1.709  1.1399  1.5081  1.1516
  124MOL    H9247078   1.483   2.671   1.771  1.5072 -2.4640  0.9878
  124MOL    H9347079   1.460   2.514   1.705 -0.0924 -0.8288 -2.4637
  124MOL    H9447080   1.420   2.502   1.437 -1.6859 -0.3587  2.7489
  124MOL    H9547081   1.402   2.650   1.343  0.0081  0.8137  0.8058
  124MOL    H9647082   1.287   2.607   1.481  0.5082 -0.8027  1.1399
  124MOL    C9747083   1.877   2.920   1.665 -0.0275  0.1928 -0.5329
  124MOL    C9847084   1.813   3.026   1.580  0.2686  0.2152 -0.6110
  124MOL    O9947085   1.829   3.004   1.437 -0.3853 -0.1593 -0.0249
  124MOL   C10047086   1.714   3.045   1.352  0.2653 -0.0857  0.2696
  124MOL   C10147087   1.752   2.984   1.215 -0.0106  0.4713 -0.0932
  124MOL   C10247088   1.633   3.003   1.122  0.0864 -0.2980 -0.1576
  124MOL   C10347089   1.874   3.051   1.164 -0.1498  0.3146 -0.2365
  124MOL   H10447090   1.986   2.926   1.669  0.0017 -0.2692 -0.5845
  124MOL   H10547091   1.855   2.939   1.770  1.2721  0.2584 -0.2631
  124MOL   H10647092   1.705   3.022   1.593  0.2000  0.7874 -0.9726
  124MOL   H10747093   1.690   3.151   1.343  0.0280 -0.1879 -0.3427
  124MOL   H10847094   1.623   3.001   1.394  0.9574 -1.9284 -0.1292
  124MOL   H10947095   1.769   2.878   1.231 -0.8434  0.5433  1.3859
  124MOL   H11047096   1.657   2.976   1.019 -0.1632 -0.0640 -0.2769
  124MOL   H11147097   1.549   2.946   1.162 -0.2707  1.0179  0.9807
  124MOL   H11247098   1.603   3.107   1.117 -0.3669 -0.5079 -3.1724
  124MOL   H11347099   1.892   3.013   1.064 -1.8329  0.2589 -0.5222
  124MOL   H11447100   1.881   3.160   1.168 -0.9826  0.3430  0.7561
  124MOL   H11547101   1.961   3.019   1.222  1.2809  2.4873 -1.1192
  124MOL   C11647102   1.876   3.169   1.610  0.2371  0.4603  0.6853
  124MOL   C11747103   1.786   3.293   1.575 -0.0902  0.0588  0.3161
  124MOL   O11847104   1.670   3.268   1.652  0.4012 -0.0456 -0.1680
  124MOL   C11947105   1.551   3.316   1.586 -1.1699  0.3892 -0.5015
  124MOL   C12047106   1.433   3.310   1.688 -0.7000 -0.0796  0.2079
  124MOL   C12147107   1.420   3.166   1.745 -0.6307  0.5149 -0.3213
  124MOL   C12247108   1.430   3.427   1.788 -0.7812 -0.6212  0.7403
  124MOL   H12347109   1.911   3.170   1.714 -0.0965 -4.6007  0.9829
  124MOL   H12447110   1.965   3.174   1.549 -1.6123  2.2015 -1.9523
  124MOL   H12547111   1.764   3.283   1.469  0.8153  1.0301  0.0305
  124MOL   H12647112   1.526   3.250   1.503  2.1371 -0.9654 -0.5021
  124MOL   H12747113   1.564   3.412   1.536 -0.8476  1.1689  1.0429
  124MOL   H12847114   1.339   3.326   1.635 -0.1757  0.7911 -0.4845
  124MOL   H12947115   1.425   3.084   1.673 -1.4183  0.1502  0.0253
  124MOL   H13047116   1.340   3.154   1.818  0.4655 -2.9870  0.4158
  124MOL   H13147117   1.496   3.138   1.818 -0.9314 -0.8114 -0.5049
  124MOL   H13247118   1.323   3.442   1.793 -0.8637 -0.4782 -1.2088
  124MOL   H13347119   1.463   3.398   1.888  1.6999 -0.9515 -0.1282
  124MOL   H13447120   1.491   3.512   1.757  0.6768 -1.5557  0.9858
  124MOL   C13547121   1.854   3.427   1.608 -0.1024 -0.0497 -0.3065
  124MOL   C13647122   1.939   3.480   1.492 -0.1020 -0.1055  0.6300
  124MOL   O13747123   1.836   3.500   1.390 -0.0461 -0.1086 -0.4298
  124MOL   C13847124   1.882   3.497   1.253 -0.0187 -0.2596 -0.1653
  124MOL   C13947125   1.774   3.513   1.149  0.4526  0.2197  0.5009
  124MOL   C14047126   1.837   3.507   1.005 -0.4180 -1.2688 -0.1825
  124MOL   C14147127   1.674   3.393   1.160  0.0748 -0.2150 -0.2066
  124MOL   H14247128   1.779   3.504   1.628 -0.9189 -1.1448  0.9854
  124MOL   H14347129   1.907   3.403   1.701 -1.6588  0.3364  0.7070
  124MOL   H14447130   2.006   3.405   1.449  0.8651  0.8869  0.3593
  124MOL   H14547131   1.936   3.403   1.236 -0.9214 -1.4680  3.2968
  124MOL   H14647132   1.964   3.567   1.236  0.9995 -1.2159  0.7595
  124MOL   H14747133   1.717   3.604   1.172  1.5982  0.5369  2.1455
  124MOL   H14847134   1.933   3.559   1.003 -0.0382 -1.8203  2.0401
  124MOL   H14947135   1.781   3.541   0.918 -0.0049  1.6497  0.6295
  124MOL   H15047136   1.866   3.405   0.979  0.8716 -0.3807 -2.4099
  124MOL   H15147137   1.589   3.398   1.092  0.0823  1.4363 -0.1193
  124MOL   H15247138   1.719   3.294   1.150  0.5170  0.0930 -1.3876
  124MOL   H15347139   1.637   3.384   1.262  2.6515  1.0690  0.8922
  124MOL   C15447140   2.008   3.612   1.534 -0.1897 -0.2957  0.2348
  124MOL   C15547141   2.127   3.586   1.631 -0.0426  0.9091  0.0823
  124MOL   O15647142   2.219   3.506   1.561 -0.4813  0.4932 -0.2052
  124MOL   C15747143   2.309   3.434   1.651  0.4226 -0.0260  0.1814
  124MOL   C15847144   2.375   3.323   1.567 -0.3557 -0.3501 -0.9039
  124MOL   C15947145   2.268   3.220   1.520 -0.3480 -0.5464 -0.5123
  124MOL   C16047146   2.456   3.379   1.446  0.1432  0.5367 -0.9706
  124MOL   H16147147   1.940   3.681   1.583  0.2024 -0.3258  0.8296
  124MOL   H16247148   2.045   3.666   1.447  0.2571 -0.4809  0.3108
  124MOL   H16347149   2.081   3.534   1.716 -1.5169  0.1646 -1.1494
  124MOL   H16447150   2.267   3.382   1.737  1.2011 -0.8471  0.0713
  124MOL   H16547151   2.392   3.499   1.681  0.5715 -0.3696  0.5244
  124MOL   H16647152   2.436   3.276   1.644  0.2440 -1.5551 -2.1047
  124MOL   H16747153   2.208   3.197   1.608 -0.7390 -0.9788 -0.8912
  124MOL   H16847154   2.307   3.128   1.477  2.5133  0.4513 -0.1754
  124MOL   H16947155   2.197   3.274   1.458 -1.6970  0.6408  1.9953
  124MOL   H17047156   2.508   3.305   1.385  1.0823  1.4955 -1.3365
  124MOL   H17147157   2.382   3.429   1.383  0.6143  1.1716 -1.0144
  124MOL   H17247158   2.529   3.452   1.479  1.0921 -0.6125 -0.4809
  124MOL   C17347159   2.196   3.712   1.693  0.2319 -0.4282 -0.5541
  124MOL   C17447160   2.304   3.784   1.601 -0.0346 -0.0881 -0.0634
  124MOL   O17547161   2.224   3.859   1.507  0.0110 -0.1559  0.3421
  124MOL   C17647162   2.252   3.831   1.376 -0.3105 -0.2218  0.8316
  124MOL   C17747163   2.162   3.911   1.270  0.6232  0.1609  0.1065
  124MOL   C17847164   2.168   4.065   1.301 -0.1953  0.5155 -0.2796
  124MOL   C17947165   2.199   3.891   1.127  0.5062  0.0741 -0.1068
  124MOL   H18047166   2.124   3.788   1.724  0.1642  0.2519 -2.3210
  124MOL   H18147167   2.244   3.675   1.784  0.1770  2.8774  0.9019
  124MOL   H18247168   2.369   3.712   1.550 -0.5504 -0.7088  0.1534
  124MOL   H18347169   2.242   3.723   1.364 -0.1477 -0.1470  0.0022
  124MOL   H18447170   2.360   3.840   1.359 -0.4682 -0.1189 -0.1268
  124MOL   H18547171   2.058   3.889   1.292  1.4590 -2.6551  1.5148
  124MOL   H18647172   2.269   4.106   1.298 -0.8662  2.1443 -1.0699
  124MOL   H18747173   2.113   4.134   1.238 -0.2369  0.1919 -0.6001
  124MOL   H18847174   2.135   4.079   1.404  0.1162  1.3416 -0.2912
  124MOL   H18947175   2.180   3.968   1.053  1.3020  0.2448 -0.1310
  124MOL   H19047176   2.158   3.794   1.096 -0.0329  0.4341 -0.5179
  124MOL   H19147177   2.308   3.887   1.122  0.6616  2.1605  1.2482
  124MOL   C19247178   2.379   3.886   1.682 -0.7250  0.3228  0.0898
  124MOL   C19347179   2.483   3.829   1.781 -0.3109 -0.3487  0.6083
  124MOL   O19447180   2.529   3.936   1.872  0.4115 -0.3360  0.4109
  124MOL   C19547181   2.451   3.960   1.989 -0.2749 -0.7362  0.3786
  124MOL   C19647182   2.527   4.071   2.060  0.0828  0.3469  0.5652
  124MOL   C19747183   2.654   4.022   2.126 -0.4213 -0.4090 -0.5905
  124MOL   C19847184   2.438   4.134   2.166 -0.0680 -0.2187 -0.0309
  124MOL   H19947185   2.325   3.965   1.734  0.4837  0.0102  1.8456
  124MOL   H20047186   2.439   3.947   1.614  0.8106  0.0955  1.2175
  124MOL   H20147187   2.434   3.751   1.840 -2.8426 -0.5449 -1.6583
  124MOL   H20247188   2.446   3.869   2.048 -2.5195 -0.9281 -0.0497
  124MOL   H20347189   2.349   3.985   1.958 -0.0054 -1.4162 -1.1144
  124MOL   H20447190   2.560   4.153   1.995  1.8798 -0.3582  0.5702
  124MOL   H20547191   2.725   3.973   2.059  1.6780  0.5656  0.8865
  124MOL   H20647192   2.702   4.103   2.180 -1.1072  0.4197 -1.2172
  124MOL   H20747193   2.629   3.939   2.192 -0.8671 -1.1052 -1.6102
  124MOL   H20847194   2.490   4.207   2.227  2.8718 -1.7745 -0.5890
  124MOL   H20947195   2.359   4.180   2.107  1.7998  1.8770 -0.9642
  124MOL   H21047196   2.399   4.051   2.225 -1.4618  0.4235 -0.0268
  124MOL   C21147197   2.599   3.770   1.705 -0.6676  0.5801  0.0882
  124MOL   C21247198   2.700   3.692   1.794 -0.4466 -0.1769  0.0297
  124MOL   O21347199   2.615   3.583   1.849  0.2733 -0.3522  0.6861
  124MOL   C21447200   2.639   3.561   1.985  0.2106  0.3547 -0.1862
  124MOL   C21547201   2.552   3.446   2.038  0.8051 -0.1687  0.5995
  124MOL   C21647202   2.402   3.499   2.050 -0.6652 -0.2921 -0.3878
  124MOL   C21747203   2.566   3.311   1.973  0.4048  0.2992 -0.5183
  124MOL   H21847204   2.646   3.857   1.660  2.0255 -0.3391  1.0575
  124MOL   H21947205   2.559   3.710   1.623 -0.9693 -0.3134  0.8817
  124MOL   H22047206   2.754   3.754   1.866  2.2192 -2.2237 -0.1181
  124MOL   H22147207   2.628   3.652   2.043 -0.1826 -0.4807  1.0781
  124MOL   H22247208   2.741   3.525   1.994 -0.5464 -1.6525  0.6672
  124MOL   H22347209   2.586   3.419   2.138 -0.7956  1.6776  1.6762
  124MOL   H22447210   2.398   3.599   2.093 -1.3577 -0.3259 -0.3713
  124MOL   H22547211   2.356   3.507   1.951 -1.4892 -0.9541 -0.0603
  124MOL   H22647212   2.350   3.424   2.108 -0.3123 -1.1922 -1.2259
  124MOL   H22747213   2.668   3.276   1.959 -0.0655 -1.3091 -0.0300
  124MOL   H22847214   2.525   3.306   1.872 -0.3152  0.5306 -0.2449
  124MOL   H22947215   2.525   3.242   2.047 -0.5024  0.5217 -0.8013
  124MOL   C23047216   2.812   3.627   1.709  0.1884 -0.6812  1.1055
  124MOL   C23147217   2.879   3.712   1.593 -0.6433  0.1401 -0.1215
  124MOL   O23247218   2.963   3.802   1.662 -0.4021 -0.2063 -0.4758
  124MOL   C23347219   2.991   3.926   1.597 -0.1628 -0.1265  0.4173
  124MOL   C23447220   3.109   4.002   1.669 -0.5622 -0.1590  0.2316
  124MOL   C23547221   3.237   3.923   1.655 -0.3501 -0.2545 -0.0689
  124MOL   C23647222   3.125   4.131   1.601  0.2198 -0.2235 -0.0474
  124MOL   H23747223   2.769   3.540   1.659  0.1784  0.5377 -1.0543
  124MOL   H23847224   2.877   3.572   1.777 -0.9220 -2.3054  0.8909
  124MOL   H23947225   2.804   3.768   1.538 -1.0989 -2.3742 -2.1998
  124MOL   H24047226   3.030   3.922   1.495  0.1062  3.2201  0.3293
  124MOL   H24147227   2.901   3.987   1.613  0.4293  1.1260 -0.8423
  124MOL   H24247228   3.095   4.019   1.776  1.3562 -0.3342  0.5323
  124MOL   H24347229   3.310   3.970   1.720 -2.3064  1.1128  1.1907
  124MOL   H24447230   3.276   3.919   1.553 -0.9323  2.6277 -0.4415
  124MOL   H24547231   3.226   3.828   1.707  1.5197 -0.0290  0.7574
  124MOL   H24647232   3.140   4.111   1.495  1.1765  1.9247 -0.3554
  124MOL   H24747233   3.041   4.200   1.611  1.8893  1.4699  3.1748
  124MOL   H24847234   3.204   4.197   1.637  0.0258  2.0146 -3.4487
  124MOL   C24947235   2.963   3.624   1.506  0.3640 -0.1175  0.0849
  124MOL   C25047236   2.895   3.528   1.401  0.1679  0.4850 -0.5033
  124MOL   O25147237   2.852   3.611   1.298  0.3499 -0.5261 -0.2434
  124MOL   C25247238   2.711   3.604   1.271 -0.0374 -0.1382 -0.5875
  124MOL   C25347239   2.674   3.715   1.171  0.1325  0.3960  0.5401
  124MOL   C25447240   2.691   3.857   1.236 -0.2335 -0.6143 -0.1360
  124MOL   C25547241   2.535   3.688   1.111  0.1582 -0.0221  0.4153
  124MOL   H25647242   3.035   3.575   1.571 -0.2531  0.2217  1.0197
  124MOL   H25747243   3.030   3.683   1.442  1.3374 -1.2039  0.1002
  124MOL   H25847244   2.820   3.459   1.439 -1.4561  2.0498 -0.7892
  124MOL   H25947245   2.678   3.504   1.242 -0.8108  0.5849 -2.2661
  124MOL   H26047246   2.651   3.625   1.359  0.1585 -0.4460 -0.3790
  124MOL   H26147247   2.750   3.710   1.092 -3.1506  0.0262 -2.7200
  124MOL   H26247248   2.686   3.935   1.160  0.8556  0.2749  0.6855
  124MOL   H26347249   2.784   3.877   1.290 -1.0425  1.4639  0.5496
  124MOL   H26447250   2.612   3.864   1.311  1.0136  0.2752  1.1174
  124MOL   H26547251   2.530   3.592   1.061  1.0930 -1.2873  2.6868
  124MOL   H26647252   2.459   3.680   1.188 -1.9237  0.6980 -1.5205
  124MOL   H26747253   2.521   3.768   1.038 -1.2935  0.8932  1.6700
  124MOL   C26847254   2.999   3.438   1.328 -0.0596 -0.3460 -0.1051
  124MOL   C26947255   2.957   3.328   1.231  0.5368 -1.3428 -0.2069
  124MOL   O27047256   2.921   3.209   1.289  0.2192  0.1911  0.3337
  124MOL   C27147257   2.783   3.188   1.331  0.1556 -0.0114  0.4856
  124MOL   C27247258   2.768   3.050   1.394  0.6456  0.3229  0.2280
  124MOL   C27347259   2.633   3.041   1.460  0.0365  0.0936  0.1834
  124MOL   C27447260   2.782   2.947   1.285  0.2518 -0.5863  0.2465
  124MOL   H27547261   3.067   3.386   1.394 -1.1464 -0.6071  0.8191
  124MOL   H27647262   3.055   3.507   1.264 -1.0316  1.0907  0.5568
  124MOL   H27747263   2.866   3.363   1.181  1.9347  0.1010 -1.7767
  124MOL   H27847264   2.750   3.269   1.395  1.5597  0.2925  0.8408
  124MOL   H27947265   2.716   3.196   1.245 -0.6368 -1.3572  0.9619
  124MOL   H28047266   2.845   3.038   1.470  0.9939  0.7452 -0.0509
  124MOL   H28147267   2.621   3.121   1.532 -2.0430  0.2376 -0.2850
  124MOL   H28247268   2.624   2.944   1.509  0.8955  0.3384  0.8264
  124MOL   H28347269   2.555   3.054   1.384  1.0485  0.2328 -0.8567
  124MOL   H28447270   2.876   2.947   1.229 -0.8868 -1.0078 -1.7122
  124MOL   H28547271   2.706   2.935   1.209 -0.6597  2.0992  0.6885
  124MOL   H28647272   2.792   2.854   1.341 -0.6979  0.2182  1.7777
  124MOL   C28747273   3.056   3.296   1.113 -0.5153  0.5382  0.6012
  124MOL   C28847274   2.995   3.254   0.978 -0.3022 -0.6263  0.4605
  124MOL   O28947275   2.910   3.355   0.934  0.0401 -0.8510  0.0446
  124MOL   C29047276   2.965   3.476   0.875  0.5746 -0.2480  0.1694
  124MOL   C29147277   2.846   3.564   0.832  0.5564  0.4583  0.3368
  124MOL   C29247278   2.774   3.503   0.705  0.3553  0.0888 -0.6779
  124MOL   C29347279   2.895   3.703   0.796  0.5328 -0.1766 -1.7603
  124MOL   H29447280   3.125   3.215   1.137 -1.2434  0.3320  2.0953
  124MOL   H29547281   3.124   3.380   1.107  0.8759 -0.5784  0.5013
  124MOL   H29647282   3.074   3.241   0.904  1.5008 -0.6506  2.3438
  124MOL   H29747283   3.030   3.512   0.954  1.7742 -2.2409  0.1161
  124MOL   H29847284   3.019   3.441   0.787  1.7117  1.3008  0.2491
  124MOL   H29947285   2.773   3.582   0.911 -0.0605 -0.6171  0.0159
  124MOL   H30047286   2.731   3.407   0.733 -0.7235  0.6475 -0.3968
  124MOL   H30147287   2.843   3.499   0.620  0.3541 -2.0045 -0.6170
  124MOL   H30247288   2.684   3.556   0.673 -0.9105 -1.3813  0.3695
  124MOL   H30347289   2.943   3.752   0.880 -1.6491  0.9805 -1.1434
  124MOL   H30447290   2.973   3.701   0.720  0.8246  2.4244 -1.5797
  124MOL   H30547291   2.812   3.757   0.749  1.1269  0.5042 -2.0279
  124MOL   C30647292   2.931   3.111   0.985 -0.8502  0.5779  0.4550
  124MOL   C30747293   2.922   3.044   0.848 -0.2358 -0.0008 -0.2549
  124MOL   O30847294   3.047   2.987   0.840  0.0840  0.3140 -0.8083
  124MOL   C30947295   3.091   2.956   0.710  0.1829 -0.2227  0.1109
  124MOL   C31047296   3.246   2.916   0.707 -0.5047  0.8469 -0.6572
  124MOL   C31147297   3.279   2.813   0.817  0.9436 -1.0156  0.3640
  124MOL   C31247298   3.337   3.029   0.733 -0.1516  0.3258  0.2061
  124MOL   H31347299   2.832   3.111   1.031  0.2773 -1.1938  3.0086
  124MOL   H31447300   2.995   3.063   1.059  0.8590  0.5807 -1.0011
  124MOL   H31547301   2.924   3.120   0.770  0.1774  1.1173  0.8281
  124MOL   H31647302   3.080   3.051   0.658  0.3324 -1.1330 -1.6158
  124MOL   H31747303   3.029   2.880   0.662  1.5252 -0.3420 -1.4923
  124MOL   H31847304   3.279   2.874   0.612  0.5365 -3.2614  1.3934
  124MOL   H31947305   3.379   2.770   0.808  1.0271 -0.7168 -0.1188
  124MOL   H32047306   3.206   2.731   0.813 -0.8712  0.5641 -0.0208
  124MOL   H32147307   3.260   2.850   0.918  1.5057 -1.1446  0.5162
  124MOL   H32247308   3.300   3.067   0.828 -2.2952  0.2778 -0.5702
  124MOL   H32347309   3.324   3.105   0.656 -0.9185 -0.8589 -0.8529
  124MOL   H32447310   3.444   3.011   0.732  0.0378  1.4458  0.2211
  124MOL   C32547311   2.812   2.938   0.836 -0.1689  0.6272 -0.2301
  124MOL   C32647312   2.666   2.994   0.825  0.2580  0.0849 -0.0354
  124MOL   O32747313   2.642   2.981   0.683  0.3096  0.2451 -0.1027
  124MOL   C32847314   2.637   3.112   0.628  0.0671  0.0204 -0.1630
  124MOL   C32947315   2.615   3.088   0.481  0.1962 -0.2882  0.0842
  124MOL   C33047316   2.735   3.044   0.400 -0.2461 -0.0936 -0.4015
  124MOL   C33147317   2.489   3.002   0.457  0.6737  0.4481 -0.5291
  124MOL   H33247318   2.824   2.886   0.931 -0.0494 -1.4114 -1.3307
  124MOL   H33347319   2.827   2.865   0.756  1.5661 -0.1822  0.8106
  124MOL   H33447320   2.671   3.096   0.865  4.7114  0.6104 -1.5627
  124MOL   H33547321   2.567   3.177   0.679  0.0362  1.5245 -2.0800
  124MOL   H33647322   2.737   3.156   0.639  0.4277 -0.9536  0.5464
  124MOL   H33747323   2.591   3.182   0.431 -1.3083  0.1768  1.6196
  124MOL   H33847324   2.748   2.936   0.388  0.8637 -0.2442  1.9928
  124MOL   H33947325   2.723   3.078   0.297  0.3092  3.6782  0.7357
  124MOL   H34047326   2.825   3.089   0.440  0.9626 -0.6680 -2.3901
  124MOL   H34147327   2.451   3.012   0.356  0.7336 -0.6632 -0.6692
  124MOL   H34247328   2.509   2.895   0.452 -0.0704  0.1636  1.8808
  124MOL   H34347329   2.411   3.010   0.532  2.0264  2.0169  0.7470
  124MOL   C34447330   2.562   2.907   0.900 -0.3720 -0.7422  0.3390
  124MOL   C34547331   2.423   2.963   0.927  0.9087  0.1277 -0.7440
  124MOL   O34647332   2.325   2.861   0.913  0.1550  0.4172  0.1503
  124MOL   C34747333   2.279   2.831   0.777  0.3257 -0.2104 -0.4800
  124MOL   C34847334   2.163   2.739   0.776 -0.7758 -0.7439 -0.1978
  124MOL   C34947335   2.064   2.783   0.886 -0.6223 -0.4244 -0.2759
  124MOL   C35047336   2.210   2.589   0.789  1.3490  0.2610  0.3041
  124MOL   H35147337   2.596   2.872   0.997 -0.2653  2.6103  1.5654
  124MOL   H35247338   2.559   2.811   0.847 -1.3794 -1.1702  1.1717
  124MOL   H35347339   2.388   3.040   0.858 -2.1127 -1.6621 -1.2998
  124MOL   H35447340   2.367   2.784   0.734  0.3378 -1.9687  1.3833
  124MOL   H35547341   2.253   2.919   0.718  2.1211  0.1706 -0.7131
  124MOL   H35647342   2.112   2.748   0.680 -2.8654 -1.0080  0.8598
  124MOL   H35747343   2.112   2.770   0.983 -0.0824  0.3021 -0.4419
  124MOL   H35847344   1.972   2.725   0.881  1.0827 -3.2364 -0.2185
  124MOL   H35947345   2.035   2.888   0.891 -1.1062 -0.5879  0.3267
  124MOL   H36047346   2.274   2.560   0.705 -0.4641 -1.1246 -0.6439
  124MOL   H36147347   2.270   2.585   0.880 -0.4251 -1.2373  1.4584
  124MOL   H36247348   2.124   2.523   0.803  1.7877 -0.4445 -0.2654
  124MOL   C36347349   2.412   3.027   1.069  0.0175 -0.0090 -0.1018
  124MOL   C36447350   2.295   3.123   1.090  0.6842  0.0122 -0.1381
  124MOL   O36547351   2.301   3.225   0.999 -0.0794  0.0216  0.5418
  124MOL   C36647352   2.192   3.313   0.984 -0.3113 -1.0961  0.8294
  124MOL   C36747353   2.164   3.339   0.827  0.6272  0.5555  0.9286
  124MOL   C36847354   2.125   3.201   0.767 -0.9025  0.1923  0.8438
  124MOL   C36947355   2.277   3.404   0.749 -0.6679 -0.4303 -0.0648
  124MOL   H37047356   2.406   2.944   1.139 -3.4750  0.5240  0.3284
  124MOL   H37147357   2.499   3.092   1.078  2.7369 -3.1012 -2.7037
  124MOL   H37247358   2.308   3.178   1.184 -0.5764  2.7167 -1.4821
  124MOL   H37347359   2.107   3.283   1.046 -0.5210 -2.0216  0.1001
  124MOL   H37447360   2.201   3.414   1.026 -0.2871 -1.1668  0.9967
  124MOL   H37547361   2.076   3.404   0.826 -0.2859 -0.6645  0.7001
  124MOL   H37647362   2.220   3.149   0.753 -1.3406 -0.0978 -1.1695
  124MOL   H37747363   2.084   3.199   0.666 -2.2230 -2.0054  1.4157
  124MOL   H37847364   2.074   3.133   0.834  1.0871 -2.3216 -0.1150
  124MOL   H37947365   2.254   3.418   0.644  1.2472 -2.6270 -0.8205
  124MOL   H38047366   2.368   3.344   0.740  0.3765  1.1789 -0.3870
  124MOL   H38147367   2.316   3.501   0.780  1.4313 -1.0995 -0.5077
  124MOL   H38247368   2.199   3.072   1.095  0.9816 -0.3934  1.7672
  125MOL     C147369   6.071   6.004   2.981 -0.4380  0.2906 -0.2133
  125MOL     C247370   5.961   6.085   3.061  0.3014 -0.5165  0.0761
  125MOL     O347371   6.043   6.204   3.071 -0.3662  0.1527 -0.0227
  125MOL     C447372   6.012   6.270   3.193 -0.8944 -0.1050  0.6491
  125MOL     C547373   6.095   6.398   3.158  0.1879 -1.0603 -0.4893
  125MOL     C647374   6.243   6.369   3.156  0.0377  0.3052 -0.2671
  125MOL     C747375   6.045   6.525   3.244 -0.1582 -0.4242  0.2608
  125MOL     H847376   6.175   6.018   3.009 -0.6718  0.8189  0.3832
  125MOL     H947377   6.042   5.899   2.981  0.6815 -0.0322  1.8848
  125MOL    H1047378   5.938   6.032   3.153 -0.1160 -2.1005 -0.9058
  125MOL    H1147379   6.063   6.226   3.278 -0.7832  1.5058  1.4349
  125MOL    H1247380   5.911   6.305   3.215 -0.9844  2.7819 -3.6519
  125MOL    H1347381   6.061   6.428   3.058  1.4159 -2.3780 -1.3281
  125MOL    H1447382   6.271   6.269   3.123 -0.3268 -0.3226  1.3030
  125MOL    H1547383   6.285   6.449   3.095  0.2696 -0.4874 -1.1482
  125MOL    H1647384   6.276   6.384   3.259  0.9004  0.1930 -0.5217
  125MOL    H1747385   6.100   6.616   3.220  0.5027 -1.0599 -0.6837
  125MOL    H1847386   5.936   6.530   3.246 -0.1789  0.5703 -1.9428
  125MOL    H1947387   6.079   6.504   3.345 -1.2204 -1.0847  0.4895
  125MOL    H2047388   6.060   6.033   2.876 -1.1691 -0.0387 -0.2295
  125MOL    C2147389   5.820   6.106   2.990  0.5196 -0.2810  0.7991
  125MOL    C2247390   5.745   5.982   2.925 -0.2252  0.6593 -0.7811
  125MOL    O2347391   5.821   5.934   2.812  0.1084  0.3179 -0.3873
  125MOL    C2447392   5.740   5.888   2.701 -0.5787 -0.3087  0.4607
  125MOL    C2547393   5.830   5.825   2.595  0.5608  0.1299  0.1754
  125MOL    C2647394   5.752   5.774   2.467  0.2121  0.2962  0.8739
  125MOL    C2747395   5.951   5.909   2.560 -0.2070  0.0427  0.2453
  125MOL    H2847396   5.756   6.147   3.068  0.3024  1.1362 -0.0848
  125MOL    H2947397   5.840   6.188   2.920  1.6169 -0.0842  1.3277
  125MOL    H3047398   5.645   6.012   2.894 -0.7504 -1.1292 -0.8711
  125MOL    H3147399   5.687   5.974   2.661 -0.5089 -0.7988 -0.6935
  125MOL    H3247400   5.655   5.832   2.742 -1.7415  1.9977  1.3049
  125MOL    H3347401   5.871   5.735   2.642 -1.6540  1.0179  3.9735
  125MOL    H3447402   5.699   5.851   2.412  4.8620  2.5270 -0.7979
  125MOL    H3547403   5.677   5.700   2.494 -1.5802  1.2462 -1.3414
  125MOL    H3647404   5.816   5.720   2.396 -0.4458 -0.7143  1.0409
  125MOL    H3747405   5.914   5.974   2.480 -1.1484 -0.8507 -0.0440
  125MOL    H3847406   5.994   5.958   2.647 -1.4432 -0.4789  1.1532
  125MOL    H3947407   6.035   5.862   2.508 -0.1520  1.6932 -1.2520
  125MOL    C4047408   5.735   5.856   3.020  0.0254  0.5297 -0.0325
  125MOL    C4147409   5.643   5.875   3.145 -0.7451 -0.2143  0.0364
  125MOL    O4247410   5.730   5.931   3.243 -0.4975 -0.6477  0.2406
  125MOL    C4347411   5.662   6.000   3.347 -0.5591  0.0083 -0.5468
  125MOL    C4447412   5.757   6.087   3.426 -0.0860 -1.0529 -0.7083
  125MOL    C4547413   5.688   6.212   3.487  1.2220  0.5490 -0.6587
  125MOL    C4647414   5.836   5.993   3.522  0.2646  0.3773  0.0691
  125MOL    H4747415   5.835   5.823   3.047 -1.3625 -1.0647  3.3249
  125MOL    H4847416   5.696   5.773   2.960 -1.1085  1.4098 -0.5301
  125MOL    H4947417   5.564   5.945   3.117  0.2794  1.1120  0.4092
  125MOL    H5047418   5.612   5.929   3.413  0.0087  1.6206  1.6786
  125MOL    H5147419   5.574   6.057   3.316 -2.7913 -3.5182 -0.9784
  125MOL    H5247420   5.833   6.116   3.354  1.6184 -2.7704  0.3633
  125MOL    H5347421   5.663   6.294   3.420 -1.5786 -0.3302 -0.7571
  125MOL    H5447422   5.595   6.180   3.534  1.2636 -0.1819 -1.0577
  125MOL    H5547423   5.750   6.266   3.559  0.5258  0.6737 -0.1495
  125MOL    H5647424   5.928   6.038   3.561  0.0358 -0.0856  1.1737
  125MOL    H5747425   5.848   5.900   3.467  0.0275 -0.8780  2.1082
  125MOL    H5847426   5.777   5.982   3.613  0.7599  1.4517  0.5338
  125MOL    C5947427   5.586   5.743   3.197 -0.6292 -0.5644 -0.2414
  125MOL    C6047428   5.460   5.701   3.128 -0.5307 -0.0492  0.1808
  125MOL    O6147429   5.347   5.760   3.188  0.1229 -0.3349 -0.4708
  125MOL    C6247430   5.234   5.799   3.122  0.0347  0.8713  0.1000
  125MOL    C6347431   5.155   5.904   3.209 -0.1876 -0.0972  0.1157
  125MOL    C6447432   5.241   6.034   3.235  0.1111 -0.2135  0.4032
  125MOL    C6547433   5.017   5.941   3.154 -0.5968  0.2588 -0.0772
  125MOL    H6647434   5.554   5.746   3.302 -1.7146 -1.6115 -0.5215
  125MOL    H6747435   5.665   5.668   3.203 -0.4177 -0.6027 -2.9951
  125MOL    H6847436   5.455   5.725   3.022 -1.2281  1.1569  0.4773
  125MOL    H6947437   5.267   5.843   3.028 -0.3588  0.8694 -0.0364
  125MOL    H7047438   5.175   5.708   3.109 -0.9792  1.6254 -0.6330
  125MOL    H7147439   5.143   5.851   3.303  0.9997  0.1574  0.4143
  125MOL    H7247440   5.205   6.090   3.321  1.1543 -1.8940  1.9699
  125MOL    H7347441   5.252   6.105   3.153 -0.1939 -0.3006  0.2881
  125MOL    H7447442   5.348   6.020   3.252 -0.3100 -1.8031  1.9161
  125MOL    H7547443   4.948   5.857   3.158 -0.1705 -0.1412 -0.9966
  125MOL    H7647444   4.959   6.020   3.201 -1.1534 -0.2147  0.0421
  125MOL    H7747445   5.019   5.982   3.053  0.6273  0.9217  0.2065
  125MOL    C7847446   5.428   5.549   3.137 -0.7284  0.8449  0.2445
  125MOL    C7947447   5.530   5.452   3.071 -0.0372  0.1353 -0.2077
  125MOL    O8047448   5.492   5.316   3.075  0.4780  0.3307 -0.1586
  125MOL    C8147449   5.534   5.254   3.193 -0.1058 -0.3282  0.5883
  125MOL    C8247450   5.537   5.107   3.174  0.5675  0.1208  0.5332
  125MOL    C8347451   5.647   5.050   3.080 -0.6492  0.2413  0.0494
  125MOL    C8447452   5.398   5.050   3.139 -0.3114 -0.1250  0.0710
  125MOL    H8547453   5.323   5.533   3.111 -0.5919  1.3608 -0.6397
  125MOL    H8647454   5.420   5.519   3.241 -2.9217  1.6224  0.3293
  125MOL    H8747455   5.625   5.472   3.120  1.0651 -1.4839 -1.6371
  125MOL    H8847456   5.639   5.272   3.217  0.4265 -1.2378 -0.9066
  125MOL    H8947457   5.470   5.275   3.277 -2.5130 -0.7920 -1.0785
  125MOL    H9047458   5.562   5.070   3.273  0.1185  1.5115  1.1778
  125MOL    H9147459   5.747   5.080   3.114 -1.0021  2.1137 -0.5153
  125MOL    H9247460   5.634   5.083   2.977 -2.1476 -2.1062 -0.5554
  125MOL    H9347461   5.641   4.941   3.083  1.2071  0.0627 -1.4723
  125MOL    H9447462   5.392   4.943   3.159 -1.5033  0.1684  1.3502
  125MOL    H9547463   5.386   5.069   3.032 -0.7574 -3.3599 -0.5086
  125MOL    H9647464   5.319   5.082   3.207  0.6961  1.0212  0.7184
  125MOL    C9747465   5.551   5.495   2.918  0.4150 -0.4660 -0.3820
  125MOL    C9847466   5.664   5.416   2.862  0.2771  0.2776 -0.2217
  125MOL    O9947467   5.783   5.473   2.916  0.5224  0.4995  0.1008
  125MOL   C10047468   5.885   5.393   2.945 -0.2243  0.1472  0.1535
  125MOL   C10147469   5.996   5.478   3.013  0.2495 -0.5893  0.5428
  125MOL   C10247470   6.025   5.604   2.933  0.2878  0.0083 -0.1203
  125MOL   C10347471   5.958   5.503   3.161  0.1594 -0.3305  0.6410
  125MOL   H10447472   5.559   5.601   2.895  0.3519 -0.0424  1.4773
  125MOL   H10547473   5.461   5.471   2.861  0.2507 -2.3004  0.6046
  125MOL   H10647474   5.648   5.310   2.881  0.8713  0.1994 -0.1335
  125MOL   H10747475   5.913   5.337   2.855 -1.6241 -0.3565  0.0198
  125MOL   H10847476   5.847   5.321   3.018  2.8571 -0.5383  1.1658
  125MOL   H10947477   6.084   5.415   3.009  1.3703  1.0362 -3.6602
  125MOL   H11047478   6.043   5.578   2.828 -0.9699 -0.4894 -0.2245
  125MOL   H11147479   5.944   5.676   2.950  0.6853  0.4974 -0.2762
  125MOL   H11247480   6.101   5.668   2.977 -1.3438  0.3860  2.2451
  125MOL   H11347481   6.046   5.531   3.219  1.0932  1.6924 -1.6386
  125MOL   H11447482   5.876   5.575   3.169 -0.7435 -1.1683 -0.8316
  125MOL   H11547483   5.925   5.412   3.211 -0.2277 -0.8476 -0.5234
  125MOL   C11647484   5.691   5.427   2.710  0.1822  0.2355 -0.2335
  125MOL   C11747485   5.587   5.384   2.608  0.3644 -0.0807 -0.1097
  125MOL   O11847486   5.474   5.474   2.611  0.0668  0.1793  0.0007
  125MOL   C11947487   5.347   5.418   2.574  0.6146 -0.7335  0.4886
  125MOL   C12047488   5.235   5.519   2.605  0.7387  0.0652  0.5332
  125MOL   C12147489   5.276   5.659   2.576 -0.1063  0.2302 -0.4798
  125MOL   C12247490   5.098   5.472   2.548  0.2578  0.8294  0.2942
  125MOL   H12347491   5.722   5.531   2.695  1.8757  0.0508  1.6816
  125MOL   H12447492   5.777   5.366   2.685 -0.8799 -0.7699 -1.5062
  125MOL   H12547493   5.550   5.284   2.630 -0.8369  0.2114 -0.7043
  125MOL   H12647494   5.318   5.335   2.638 -1.1098 -1.3704 -1.0911
  125MOL   H12747495   5.334   5.406   2.466  1.9052 -0.3544  0.2839
  125MOL   H12847496   5.229   5.523   2.714 -1.7133  1.4734  0.3691
  125MOL   H12947497   5.323   5.670   2.478  2.9888 -1.4799  0.7535
  125MOL   H13047498   5.351   5.690   2.649 -0.1724 -1.6959  0.4365
  125MOL   H13147499   5.184   5.717   2.583 -1.2083 -1.2390 -2.5506
  125MOL   H13247500   5.106   5.480   2.440 -0.3069  1.4074  0.2896
  125MOL   H13347501   5.073   5.368   2.566  0.9287  0.8258  1.2570
  125MOL   H13447502   5.012   5.523   2.591 -0.9748 -0.3107 -0.7569
  125MOL   C13547503   5.640   5.383   2.463  0.0529  0.3739  0.1536
  125MOL   C13647504   5.741   5.264   2.438  0.0552 -0.2676  0.3781
  125MOL   O13747505   5.680   5.136   2.450  0.2058  0.2972 -0.0199
  125MOL   C13847506   5.739   5.047   2.550  0.9991  0.4512  0.2967
  125MOL   C13947507   5.683   4.905   2.541  0.4022 -0.1034  0.6132
  125MOL   C14047508   5.732   4.815   2.654  0.2126 -0.6385 -0.0496
  125MOL   C14147509   5.529   4.914   2.551 -0.2259  0.1570  0.0266
  125MOL   H14247510   5.555   5.378   2.396 -0.8502  1.9782  1.1456
  125MOL   H14347511   5.680   5.484   2.454  0.2837  0.2359 -0.3536
  125MOL   H14447512   5.826   5.266   2.507  0.1932 -1.4535  0.2404
  125MOL   H14547513   5.725   5.092   2.648  0.5068  1.5812 -0.2876
  125MOL   H14647514   5.845   5.025   2.535  1.1137  1.4275 -0.3311
  125MOL   H14747515   5.708   4.858   2.446 -0.0627  0.9177 -0.0195
  125MOL   H14847516   5.712   4.854   2.754 -2.2568 -1.4476 -0.1784
  125MOL   H14947517   5.840   4.811   2.641  0.3697 -0.5177  1.1694
  125MOL   H15047518   5.704   4.709   2.650  0.1870 -0.7243  1.7545
  125MOL   H15147519   5.504   4.981   2.633  2.9927 -0.9415  2.0025
  125MOL   H15247520   5.477   4.971   2.474  1.6139  1.1522 -0.4923
  125MOL   H15347521   5.477   4.818   2.555 -0.0010 -0.0128 -1.0145
  125MOL   C15447522   5.810   5.265   2.303  0.1584 -0.3819 -0.1079
  125MOL   C15547523   5.878   5.401   2.272  0.1369  0.8381  0.0310
  125MOL   O15647524   5.990   5.397   2.362 -0.0978  0.5552  0.4678
  125MOL   C15747525   6.005   5.509   2.444  0.1794  0.4800  0.1292
  125MOL   C15847526   6.150   5.519   2.500 -0.6082 -0.6713  0.3679
  125MOL   C15947527   6.173   5.395   2.586  0.2847  0.0735 -0.2371
  125MOL   C16047528   6.253   5.554   2.387 -0.7017 -0.1266  0.5696
  125MOL   H16147529   5.727   5.245   2.235 -0.9912 -1.1598  1.4769
  125MOL   H16247530   5.877   5.179   2.296 -1.1176 -1.6746  2.7920
  125MOL   H16347531   5.813   5.487   2.290  0.2288  0.4452  2.3967
  125MOL   H16447532   5.923   5.514   2.516 -1.6963 -2.3365 -1.7549
  125MOL   H16547533   5.981   5.606   2.399 -0.8614  0.1741  0.0277
  125MOL   H16647534   6.153   5.606   2.565  0.2097 -0.2478 -0.2282
  125MOL   H16747535   6.102   5.383   2.668  0.5718 -0.9250 -0.1325
  125MOL   H16847536   6.275   5.401   2.622  0.1263  2.5036 -0.0994
  125MOL   H16947537   6.153   5.299   2.539 -1.2241 -0.4712  1.4571
  125MOL   H17047538   6.252   5.490   2.299  0.8160 -1.0883  1.2377
  125MOL   H17147539   6.256   5.654   2.343  1.9972 -0.1157  0.7425
  125MOL   H17247540   6.349   5.537   2.434 -0.2537  0.1473 -0.2365
  125MOL   C17347541   5.933   5.410   2.130  0.5254 -0.5566 -0.0942
  125MOL   C17447542   5.822   5.408   2.024 -0.0756  0.8531  0.5536
  125MOL   O17547543   5.723   5.508   2.064  0.8125  0.0031  0.2616
  125MOL   C17647544   5.588   5.476   2.029 -0.0328  0.2210 -0.6426
  125MOL   C17747545   5.488   5.590   2.054  0.0527  0.4544 -0.1055
  125MOL   C17847546   5.355   5.561   1.966 -0.3458 -0.4024 -0.2900
  125MOL   C17947547   5.462   5.616   2.202  0.4769  0.0598 -0.6099
  125MOL   H18047548   5.991   5.503   2.123 -2.4479  1.2797 -1.0445
  125MOL   H18147549   6.008   5.332   2.114  0.7255 -0.1792 -1.0320
  125MOL   H18247550   5.767   5.314   2.027 -3.0961  2.5500  1.3655
  125MOL   H18347551   5.566   5.384   2.084  1.8175 -0.6781 -1.3604
  125MOL   H18447552   5.583   5.436   1.928  0.7093  1.1215 -1.0407
  125MOL   H18547553   5.531   5.681   2.012  0.1978  0.1351 -0.6464
  125MOL   H18647554   5.300   5.473   2.001 -1.9622  0.0836 -1.5508
  125MOL   H18747555   5.285   5.644   1.963  0.5301  0.3827  0.4811
  125MOL   H18847556   5.371   5.545   1.859 -2.4314 -0.2151 -0.6502
  125MOL   H18947557   5.550   5.644   2.259  1.5708 -1.1850 -1.6544
  125MOL   H19047558   5.441   5.516   2.238 -1.0143  1.1245  1.5782
  125MOL   H19147559   5.390   5.694   2.228 -1.8979 -2.8455  1.8462
  125MOL   C19247560   5.878   5.441   1.887  0.5546  0.1667 -0.0096
  125MOL   C19347561   6.005   5.371   1.839 -1.3712  0.0704  0.0066
  125MOL   O19447562   6.025   5.424   1.704 -0.1213  0.0009 -0.0442
  125MOL   C19547563   6.117   5.534   1.705 -0.1050  0.4480  0.4519
  125MOL   C19647564   6.083   5.613   1.576  0.2411 -0.7995 -0.2191
  125MOL   C19747565   5.940   5.667   1.581 -0.0284  1.0451 -0.2310
  125MOL   C19847566   6.102   5.525   1.450 -0.7022 -0.6854  0.0608
  125MOL   H19947567   5.902   5.547   1.894  1.2530  0.1137 -1.5424
  125MOL   H20047568   5.803   5.434   1.808  0.6442  4.7437 -0.6796
  125MOL   H20147569   6.089   5.397   1.902 -0.6416 -0.5528 -0.6991
  125MOL   H20247570   6.222   5.507   1.690 -0.0931  0.3405  0.7318
  125MOL   H20347571   6.115   5.607   1.786 -0.2312  0.6824  0.2392
  125MOL   H20447572   6.150   5.699   1.580 -1.2214  0.3254  0.7330
  125MOL   H20547573   5.858   5.601   1.612 -1.1627  2.2857 -0.5487
  125MOL   H20647574   5.940   5.745   1.657 -2.6510 -0.3300  1.2765
  125MOL   H20747575   5.912   5.720   1.490 -0.8231  1.7756  0.4335
  125MOL   H20847576   6.048   5.431   1.448 -0.6432 -0.7721  2.0574
  125MOL   H20947577   6.074   5.598   1.373  1.4097  1.4075  1.1837
  125MOL   H21047578   6.203   5.501   1.415 -0.9070  0.0060 -1.0537
  125MOL   C21147579   5.994   5.216   1.825  0.4148 -1.5781  0.1264
  125MOL   C21247580   6.131   5.142   1.791 -0.1022  0.2715  0.0019
  125MOL   O21347581   6.217   5.140   1.905 -0.3212 -0.4372 -0.0123
  125MOL   C21447582   6.353   5.184   1.883  0.2082 -0.0779 -0.1089
  125MOL   C21547583   6.420   5.213   2.019 -0.2964  1.2185 -0.3690
  125MOL   C21647584   6.347   5.323   2.097 -0.3316 -0.4031 -0.5024
  125MOL   C21747585   6.451   5.090   2.105 -0.2364 -0.5115  0.2345
  125MOL   H21847586   5.919   5.187   1.752 -0.9496 -0.0749  0.9045
  125MOL   H21947587   5.957   5.180   1.921 -0.8680 -0.1036  0.1883
  125MOL   H22047588   6.179   5.188   1.705 -0.3763  0.2881 -0.1428
  125MOL   H22147589   6.365   5.269   1.817  1.0831 -0.2287 -0.1556
  125MOL   H22247590   6.416   5.114   1.828 -0.8865 -1.1643 -0.0226
  125MOL   H22347591   6.515   5.255   1.987  0.9424 -1.1792  0.1048
  125MOL   H22447592   6.407   5.374   2.172 -0.0941  0.7069 -1.4292
  125MOL   H22547593   6.310   5.402   2.031 -2.3189  1.2164  2.4873
  125MOL   H22647594   6.251   5.286   2.133 -1.5326 -0.8860 -3.9683
  125MOL   H22747595   6.508   5.015   2.051  1.9340  0.2359  1.4127
  125MOL   H22847596   6.362   5.042   2.146  0.0059  0.0525  1.4637
  125MOL   H22947597   6.504   5.122   2.195  0.6205  1.7074 -1.0237
  125MOL   C23047598   6.104   4.997   1.759  0.0331  0.4833 -0.3918
  125MOL   C23147599   6.068   4.973   1.612 -0.0331 -0.0027 -0.0737
  125MOL   O23247600   6.177   5.002   1.524  0.4999 -0.1079  0.7272
  125MOL   C23347601   6.160   5.124   1.452  0.1962 -0.1845  0.0736
  125MOL   C23447602   6.275   5.124   1.348 -0.0557  0.2039 -0.2644
  125MOL   C23547603   6.410   5.126   1.428  0.1330 -0.7557  0.5670
  125MOL   C23647604   6.267   5.003   1.257  0.0005  0.3089  0.1287
  125MOL   H23747605   6.032   4.965   1.835  0.3372  0.4417 -0.1179
  125MOL   H23847606   6.195   4.942   1.785  0.7777  1.7140 -0.3863
  125MOL   H23947607   5.975   5.025   1.587 -0.5330 -0.8071  0.0914
  125MOL   H24047608   6.065   5.133   1.399 -0.7131  0.6914  1.8173
  125MOL   H24147609   6.166   5.220   1.502 -0.2700  1.2964 -2.6144
  125MOL   H24247610   6.265   5.219   1.296  0.5550 -0.1787 -1.1024
  125MOL   H24347611   6.502   5.133   1.369  1.7984  0.0140  3.1858
  125MOL   H24447612   6.430   5.040   1.492  1.9150  0.5799  1.8590
  125MOL   H24547613   6.408   5.201   1.507  1.7617 -0.4185  0.3180
  125MOL   H24647614   6.356   4.979   1.199 -0.7714 -2.2830 -0.0583
  125MOL   H24747615   6.252   4.913   1.316  0.0107  0.0167 -0.3083
  125MOL   H24847616   6.187   5.016   1.184  0.1496 -1.3766 -0.3551
  125MOL   C24947617   6.025   4.827   1.587 -0.7494 -0.0159  0.1329
  125MOL   C25047618   5.890   4.784   1.645  0.6481 -0.1284  0.2239
  125MOL   O25147619   5.820   4.743   1.529 -0.0457  0.3786  0.5083
  125MOL   C25247620   5.737   4.847   1.466  0.5142  0.6345  0.2117
  125MOL   C25347621   5.654   4.777   1.358  0.3810  0.0468  0.1361
  125MOL   C25447622   5.550   4.678   1.412 -0.6733  0.1763 -0.6403
  125MOL   C25547623   5.747   4.707   1.256 -0.2847  0.2611 -0.5053
  125MOL   H25647624   6.107   4.768   1.628 -1.0500 -0.5448 -0.0357
  125MOL   H25747625   6.019   4.809   1.480  0.2561 -1.1520  0.2509
  125MOL   H25847626   5.857   4.873   1.699  0.4885 -0.0973  0.0736
  125MOL   H25947627   5.686   4.896   1.549  1.2625 -1.2242  1.8087
  125MOL   H26047628   5.802   4.926   1.429  1.9073 -0.2582  0.7173
  125MOL   H26147629   5.595   4.855   1.309 -1.6941 -1.4704  0.1369
  125MOL   H26247630   5.572   4.572   1.395 -2.5181 -0.2295 -0.5847
  125MOL   H26347631   5.460   4.682   1.352 -1.3730  0.2854  0.4039
  125MOL   H26447632   5.535   4.698   1.518  3.0485  0.5146 -0.1061
  125MOL   H26547633   5.821   4.642   1.304 -0.3353  1.4445  1.2417
  125MOL   H26647634   5.687   4.648   1.187 -0.6882  1.8543 -1.5213
  125MOL   H26747635   5.803   4.780   1.199  0.9599 -0.6350 -0.4679
  125MOL   C26847636   5.904   4.663   1.737  0.4256 -0.2143 -0.0952
  125MOL   C26947637   5.775   4.636   1.819 -0.2959  0.2854  0.0040
  125MOL   O27047638   5.761   4.743   1.906  0.6864  0.0078  0.1875
  125MOL   C27147639   5.648   4.754   1.989  0.0399 -0.8991 -0.1428
  125MOL   C27247640   5.621   4.898   2.023 -0.1485 -0.4084  0.1380
  125MOL   C27347641   5.571   4.977   1.910  0.2058 -0.1514  0.0244
  125MOL   C27447642   5.524   4.918   2.143 -0.2883 -0.3551  0.2613
  125MOL   H27547643   5.981   4.673   1.814  0.4068 -0.3322 -0.0609
  125MOL   H27647644   5.928   4.575   1.677 -1.2705 -0.2680 -0.7288
  125MOL   H27747645   5.685   4.628   1.757 -0.3331 -0.9025  0.1901
  125MOL   H27847646   5.561   4.719   1.934 -0.2327  1.2219 -1.0998
  125MOL   H27947647   5.659   4.692   2.079  1.5219  1.0193  1.0374
  125MOL   H28047648   5.720   4.936   2.044 -0.9771  1.7949  0.2353
  125MOL   H28147649   5.475   4.934   1.882 -0.5774  1.0934  0.7690
  125MOL   H28247650   5.638   4.966   1.825 -0.0147  0.8324 -0.2734
  125MOL   H28347651   5.554   5.081   1.936  1.3994 -0.9737  4.6772
  125MOL   H28447652   5.433   4.861   2.124  0.9570 -1.3976 -3.0047
  125MOL   H28547653   5.508   5.024   2.166  2.9537  0.1854  0.2978
  125MOL   H28647654   5.571   4.864   2.225  1.1370  0.4580  0.0056
  125MOL   C28747655   5.780   4.509   1.903 -0.2307  0.2554  0.5639
  125MOL   C28847656   5.832   4.379   1.835 -0.3312 -0.1129 -0.1578
  125MOL   O28947657   5.773   4.270   1.903 -0.0212  0.3741  0.2585
  125MOL   C29047658   5.645   4.236   1.846 -0.7237 -0.2313  0.0804
  125MOL   C29147659   5.552   4.162   1.950 -0.5237 -1.3299 -0.3026
  125MOL   C29247660   5.558   4.225   2.087  0.2401  0.1261  0.2794
  125MOL   C29347661   5.582   4.012   1.965  0.2287  0.3330 -0.5569
  125MOL   H29447662   5.681   4.488   1.944 -0.9526  0.7445 -0.8572
  125MOL   H29547663   5.825   4.536   1.998  1.4657 -2.2181  0.4979
  125MOL   H29647664   5.823   4.370   1.727  1.1357  0.8537 -0.3812
  125MOL   H29747665   5.594   4.326   1.813  1.6360  0.0785 -2.9109
  125MOL   H29847666   5.664   4.162   1.768  2.1338  0.7647 -0.2455
  125MOL   H29947667   5.452   4.178   1.909  0.0411  0.3340 -1.0826
  125MOL   H30047668   5.474   4.188   2.146 -0.4859  2.4832  0.7863
  125MOL   H30147669   5.550   4.334   2.084  1.8031  0.3181  1.9990
  125MOL   H30247670   5.650   4.202   2.142  0.6273 -1.9487 -1.1832
  125MOL   H30347671   5.555   3.954   1.877  0.0867  2.4718 -1.9675
  125MOL   H30447672   5.690   4.004   1.976  0.2764  0.8200 -0.6335
  125MOL   H30547673   5.543   3.957   2.051 -1.6093 -0.3533 -1.8062
  125MOL   C30647674   5.982   4.358   1.864 -0.3707 -0.0140 -0.2647
  125MOL   C30747675   6.041   4.242   1.780  0.5783  0.0176 -0.6115
  125MOL   O30847676   6.038   4.289   1.642  0.1778 -0.3440 -0.3773
  125MOL   C30947677   5.964   4.202   1.565 -0.3835 -0.0836 -0.3271
  125MOL   C31047678   5.974   4.259   1.426  0.3287 -1.2106  0.3392
  125MOL   C31147679   6.109   4.226   1.360 -0.0671 -0.0902  0.0955
  125MOL   C31247680   5.930   4.408   1.420  0.3468 -0.4212  0.2537
  125MOL   H31347681   5.989   4.335   1.971 -1.9853 -1.7403 -0.4946
  125MOL   H31447682   6.034   4.451   1.843  1.9842 -1.2266  0.0593
  125MOL   H31547683   5.973   4.161   1.808 -0.2725  0.6331 -0.8898
  125MOL   H31647684   5.863   4.199   1.606  0.1576 -0.5890  1.0013
  125MOL   H31747685   6.007   4.102   1.564 -0.2570 -0.0225 -1.3285
  125MOL   H31847686   5.905   4.214   1.354 -0.2531  0.6007 -0.2667
  125MOL   H31947687   6.111   4.271   1.260 -2.7536  0.9532  0.4755
  125MOL   H32047688   6.139   4.121   1.359  1.8372  0.4361  0.2375
  125MOL   H32147689   6.185   4.283   1.413  0.9497 -0.7218 -0.6652
  125MOL   H32247690   6.010   4.473   1.457 -0.3284 -0.2213  1.3824
  125MOL   H32347691   5.840   4.432   1.476  1.1001  0.2697  1.1694
  125MOL   H32447692   5.923   4.429   1.313  0.2804 -0.1417  0.3134
  125MOL   C32547693   6.190   4.215   1.819 -0.2248  0.2962  0.2217
  125MOL   C32647694   6.222   4.132   1.948 -0.0865 -0.0785  0.0137
  125MOL   O32747695   6.168   4.000   1.934 -0.4643 -0.2832  0.1117
  125MOL   C32847696   6.049   3.972   2.005  0.3317 -1.0589 -0.3169
  125MOL   C32947697   5.993   3.827   1.982  0.9816 -0.0721 -0.4006
  125MOL   C33047698   5.972   3.796   1.835  0.0166 -0.2042 -0.3617
  125MOL   C33147699   6.072   3.716   2.058 -0.1397 -0.3121 -0.2853
  125MOL   H33247700   6.234   4.315   1.825 -0.1484  0.5991 -3.7617
  125MOL   H33347701   6.239   4.169   1.733 -1.3683  2.3040 -1.5355
  125MOL   H33447702   6.166   4.194   2.018  1.6078 -0.0775  1.4024
  125MOL   H33547703   6.087   3.978   2.107  1.5411 -0.8490 -0.7688
  125MOL   H33647704   5.970   4.047   2.000  0.4830 -0.5513  3.3785
  125MOL   H33747705   5.894   3.835   2.027  1.1205 -0.3879 -0.0441
  125MOL   H33847706   5.959   3.690   1.814 -2.2053  0.7459 -4.3207
  125MOL   H33947707   5.878   3.840   1.803 -1.0654 -1.0164  1.6443
  125MOL   H34047708   6.051   3.833   1.769 -0.3672 -1.0967 -1.3326
  125MOL   H34147709   6.079   3.739   2.164  1.8598 -2.5910  0.1140
  125MOL   H34247710   6.028   3.618   2.039  1.3669 -0.8033 -1.2858
  125MOL   H34347711   6.172   3.700   2.020  0.1995  2.4174 -0.6689
  125MOL   C34447712   6.359   4.127   1.986 -0.7126 -0.0825  0.2198
  125MOL   C34547713   6.390   4.075   2.131  0.4349  0.5375 -0.6608
  125MOL   O34647714   6.303   4.132   2.224  0.0875  0.6665 -0.2750
  125MOL   C34747715   6.360   4.167   2.350 -0.1047  0.7158 -0.5412
  125MOL   C34847716   6.247   4.204   2.453 -0.7858 -0.0872  0.3511
  125MOL   C34947717   6.303   4.235   2.587 -0.7475  0.1457 -0.2363
  125MOL   C35047718   6.150   4.083   2.451 -0.4108 -0.4976  0.0796
  125MOL   H35147719   6.389   4.231   1.977  0.8944 -0.6932 -1.6968
  125MOL   H35247720   6.428   4.077   1.919  1.2698  2.2896  0.4222
  125MOL   H35347721   6.496   4.096   2.145 -0.0165  2.4084  0.1350
  125MOL   H35447722   6.423   4.250   2.318 -1.2832  1.0056 -2.2030
  125MOL   H35547723   6.428   4.093   2.393 -0.3454 -0.0468 -1.4584
  125MOL   H35647724   6.198   4.293   2.414 -1.3898 -1.1851 -1.4721
  125MOL   H35747725   6.223   4.273   2.650  0.1407  1.0149  0.3756
  125MOL   H35847726   6.381   4.311   2.583 -2.0146  1.4220 -1.2145
  125MOL   H35947727   6.338   4.146   2.639 -0.7154  0.5382  0.4110
  125MOL   H36047728   6.102   4.065   2.355 -0.9397  0.5219  0.1392
  125MOL   H36147729   6.213   3.998   2.474 -2.7883 -1.7079  2.3623
  125MOL   H36247730   6.064   4.089   2.518 -0.1236  0.5846  0.3713
  125MOL   C36347731   6.373   3.928   2.154 -0.3139 -0.2669 -0.2715
  125MOL   C36447732   6.433   3.831   2.045 -0.8636 -0.0168 -0.8059
  125MOL   O36547733   6.569   3.856   2.036  0.3847  0.1149 -0.7599
  125MOL   C36647734   6.643   3.749   1.989  0.0531 -0.0084  0.3879
  125MOL   C36747735   6.792   3.774   1.972  0.0879 -0.2166  0.2485
  125MOL   C36847736   6.865   3.772   2.102 -0.3589 -0.1163 -1.2134
  125MOL   C36947737   6.818   3.899   1.884 -0.4432  0.6495  0.2654
  125MOL   H37047738   6.410   3.896   2.251 -0.5972 -1.1643 -0.4514
  125MOL   H37147739   6.266   3.907   2.155 -0.6562  1.4322  0.1850
  125MOL   H37247740   6.395   3.853   1.945  0.5585  0.4973 -1.2411
  125MOL   H37347741   6.626   3.660   2.051 -1.1166 -1.1390 -1.4936
  125MOL   H37447742   6.598   3.742   1.890  1.2821 -0.0968 -0.1844
  125MOL   H37547743   6.835   3.689   1.919  1.9585  1.1464 -0.5010
  125MOL   H37647744   6.831   3.855   2.163  1.9378  0.4810 -0.7018
  125MOL   H37747745   6.971   3.792   2.095 -0.8043  3.0137  0.2945
  125MOL   H37847746   6.849   3.678   2.154 -1.9120  1.6762  1.6779
  125MOL   H37947747   6.921   3.932   1.879  0.0454 -0.8459  0.1390
  125MOL   H38047748   6.756   3.976   1.930 -0.5650  0.2735  0.7436
  125MOL   H38147749   6.776   3.878   1.785 -0.1888 -1.1639  0.5145
  125MOL   H38247750   6.402   3.731   2.075 -1.7835 -0.0809 -1.9297
  126MOL     C147751   7.165   7.571   6.482  0.1545 -0.4411  0.5873
  126MOL     C247752   7.042   7.542   6.394  0.0974  0.3348  0.0704
  126MOL     O347753   6.933   7.528   6.486 -0.4352 -0.1205 -0.4713
  126MOL     C447754   6.893   7.395   6.506  0.4013 -0.4909  0.3915
  126MOL     C547755   6.776   7.401   6.606  0.1271 -0.5052  0.2212
  126MOL     C647756   6.727   7.258   6.626  0.0143  0.5424  0.2050
  126MOL     C747757   6.667   7.489   6.549  0.0733 -0.0690 -0.0870
  126MOL     H847758   7.178   7.492   6.555  1.0640  2.2094  3.3950
  126MOL     H947759   7.260   7.568   6.429  0.4670  0.2540  1.0988
  126MOL    H1047760   7.044   7.458   6.324 -0.1319  0.1213  0.3183
  126MOL    H1147761   6.980   7.339   6.540 -0.5571 -1.6202  1.0219
  126MOL    H1247762   6.856   7.348   6.415 -0.1006 -0.2220  0.4558
  126MOL    H1347763   6.816   7.434   6.702 -1.7433  0.3114  0.7356
  126MOL    H1447764   6.812   7.193   6.647 -0.1934 -0.0529 -0.7621
  126MOL    H1547765   6.650   7.262   6.703 -1.3105 -3.2650 -0.8120
  126MOL    H1647766   6.673   7.233   6.534  0.5321 -0.5683  0.2020
  126MOL    H1747767   6.573   7.480   6.604  0.7389 -1.3612  0.8827
  126MOL    H1847768   6.701   7.591   6.558  1.5715 -0.7969  3.1778
  126MOL    H1947769   6.653   7.490   6.441  1.2424  0.0480 -0.2402
  126MOL    H2047770   7.146   7.665   6.534  2.4974  1.1981 -1.4059
  126MOL    C2147771   7.013   7.663   6.297 -0.6122  0.0943 -0.1619
  126MOL    C2247772   7.128   7.691   6.197  0.1274 -0.1958  0.1550
  126MOL    O2347773   7.113   7.597   6.092  0.2362 -0.0567  0.2619
  126MOL    C2447774   7.234   7.525   6.055 -0.4692  0.5124 -0.3105
  126MOL    C2547775   7.190   7.454   5.929 -0.2553  0.4482 -0.0208
  126MOL    C2647776   7.293   7.344   5.888  0.3259  0.3759 -0.1860
  126MOL    C2747777   7.040   7.401   5.944  0.1193  0.4823  0.2671
  126MOL    H2847778   6.921   7.639   6.243 -0.6042 -0.5903  0.1182
  126MOL    H2947779   6.995   7.751   6.359 -0.7844  0.5150 -0.7990
  126MOL    H3047780   7.223   7.681   6.248  0.3710 -0.5436 -0.3688
  126MOL    H3147781   7.270   7.458   6.134 -3.2735  2.2315  2.5221
  126MOL    H3247782   7.319   7.581   6.017 -0.2079 -0.2565 -0.8706
  126MOL    H3347783   7.179   7.533   5.853 -0.4867 -1.2739 -1.8148
  126MOL    H3447784   7.399   7.371   5.884  0.6423 -0.8198 -0.2084
  126MOL    H3547785   7.277   7.316   5.784 -0.2933 -1.0833  0.2856
  126MOL    H3647786   7.289   7.254   5.949  3.1692 -1.2012 -2.2146
  126MOL    H3747787   7.026   7.327   6.023 -0.6570  1.1123  0.7365
  126MOL    H3847788   6.967   7.482   5.934 -0.3613 -0.1828 -1.7171
  126MOL    H3947789   7.040   7.347   5.850  4.8389  0.3657  0.2462
  126MOL    C4047790   7.124   0.011   6.132  0.2686 -0.3730 -0.4780
  126MOL    C4147791   7.249   0.044   6.038  0.0723  0.7914 -0.6326
  126MOL    O4247792   7.364   0.035   6.128 -0.1419  0.4049  0.4470
  126MOL    C4347793   7.495   0.035   6.072  0.1406 -0.1511 -0.3879
  126MOL    C4447794   7.586   7.824   6.189 -0.2773  0.3265 -0.0248
  126MOL    C4547795   7.594   0.114   6.289 -0.3799  1.0427 -0.3760
  126MOL    C4647796   7.530   7.693   6.240 -0.2875 -0.5146  0.8523
  126MOL    H4747797   7.111   0.078   6.217  1.3250  0.5336 -1.0125
  126MOL    H4847798   7.029   0.019   6.079  0.1378 -2.5908 -0.6059
  126MOL    H4947799   7.246   7.792   5.960 -0.5124 -0.6477  0.7744
  126MOL    H5047800   7.523   0.131   6.030  0.8581 -1.4519 -3.0264
  126MOL    H5147801   7.501   7.784   5.994  0.4867  0.1775 -0.6759
  126MOL    H5247802   7.686   7.803   6.151  0.0074  1.8902 -0.1659
  126MOL    H5347803   7.650   0.080   6.376  0.8317  0.6986 -1.2767
  126MOL    H5447804   7.654   0.195   6.247  0.2506  0.3282 -0.8626
  126MOL    H5547805   7.498   0.151   6.324  0.0935  0.9491  1.0425
  126MOL    H5647806   7.519   7.625   6.156 -1.9280 -0.6146  1.1256
  126MOL    H5747807   7.435   7.712   6.291  0.5749  1.1516  1.8903
  126MOL    H5847808   7.589   7.632   6.308  0.3650 -2.0537 -1.0483
  126MOL    C5947809   7.242   0.188   5.977 -0.1877  0.1674  0.8051
  126MOL    C6047810   7.137   0.192   5.861  0.0748  0.2160 -0.0264
  126MOL    O6147811   7.177   0.103   5.757 -0.3015  0.1327  0.1107
  126MOL    C6247812   7.073   0.067   5.663 -0.8412  0.2773 -0.1966
  126MOL    C6347813   7.115   7.786   5.560  0.9213 -0.1963 -0.3168
  126MOL    C6447814   7.230   0.027   5.479 -0.4629  0.3926 -0.3108
  126MOL    C6547815   7.154   7.654   5.625 -0.3287  0.0734  0.4255
  126MOL    H6647816   7.334   0.221   5.931 -1.4654  1.5371 -0.8118
  126MOL    H6747817   7.212   0.256   6.058 -1.6301 -0.9749  1.2554
  126MOL    H6847818   7.042   0.159   5.903  0.7062 -0.6176  0.7759
  126MOL    H6947819   6.991   0.024   5.721 -0.7292 -1.2158 -1.1335
  126MOL    H7047820   7.044   0.155   5.606  1.9376  0.0352 -2.0884
  126MOL    H7147821   7.026   7.776   5.498  0.2333 -0.1651  0.6496
  126MOL    H7247822   7.286   7.784   5.415  0.0143 -0.2380  0.7618
  126MOL    H7347823   7.297   0.081   5.546 -0.6614  1.3781 -0.8908
  126MOL    H7447824   7.181   0.101   5.415  0.0806  1.5456  0.5860
  126MOL    H7547825   7.171   7.569   5.557 -0.5394  1.1450 -0.9941
  126MOL    H7647826   7.238   7.656   5.694  0.2020 -0.0304 -0.2128
  126MOL    H7747827   7.068   7.624   5.685  0.1936  1.0926  1.6792
  126MOL    C7847828   7.125   0.339   5.807 -0.0455  0.0385 -0.1925
  126MOL    C7947829   7.013   0.424   5.868 -0.1020 -0.1795 -1.1530
  126MOL    O8047830   7.048   0.452   6.003 -0.2314  0.1394  0.3164
  126MOL    C8147831   6.955   0.411   6.103 -0.2349 -0.3796  0.4934
  126MOL    C8247832   7.011   0.459   6.242  0.0825  0.8836 -0.9450
  126MOL    C8347833   6.910   0.433   6.355 -0.2819 -0.0282 -0.2624
  126MOL    C8447834   7.030   0.611   6.238 -0.6367  0.5740 -0.1479
  126MOL    H8547835   7.105   0.332   5.700  1.0521 -0.6988 -0.3521
  126MOL    H8647836   7.219   0.392   5.816 -0.7957  1.3761 -0.1172
  126MOL    H8747837   6.915   0.376   5.869 -0.0610 -0.2564 -0.7082
  126MOL    H8847838   6.848   0.432   6.098 -0.3819 -1.3441 -0.6762
  126MOL    H8947839   6.962   0.303   6.094 -0.7126 -0.2209 -2.1801
  126MOL    H9047840   7.110   0.416   6.256 -0.9312 -1.3220 -0.4233
  126MOL    H9147841   6.950   0.473   6.448 -2.1809 -3.2006  1.9999
  126MOL    H9247842   6.901   0.325   6.359  0.8924 -0.0894  1.2773
  126MOL    H9347843   6.811   0.470   6.329  0.0052  0.5376 -0.5628
  126MOL    H9447844   7.084   0.633   6.330  0.6294  2.0638 -1.2321
  126MOL    H9547845   6.931   0.658   6.235 -0.8289  0.2481  0.8636
  126MOL    H9647846   7.100   0.637   6.159 -0.2120  3.4993  1.1186
  126MOL    C9747847   7.018   0.559   5.796 -0.3454 -0.0259 -0.1516
  126MOL    C9847848   6.899   0.650   5.830 -0.2142  0.4779 -0.2619
  126MOL    O9947849   6.781   0.580   5.784  0.3864  0.3496 -0.5067
  126MOL   C10047850   6.667   0.602   5.868  0.7637 -0.7100  0.2118
  126MOL   C10147851   6.539   0.549   5.804 -0.1179  0.9960  0.4249
  126MOL   C10247852   6.500   0.626   5.677  0.4521  0.2586  0.3654
  126MOL   C10347853   6.552   0.396   5.769 -0.3758 -0.2698  0.3851
  126MOL   H10447854   7.019   0.545   5.688 -0.0853  2.3458 -0.4937
  126MOL   H10547855   7.106   0.614   5.829 -1.2289 -0.4864  3.1656
  126MOL   H10647856   6.902   0.662   5.939  0.2110  1.2828 -0.3536
  126MOL   H10747857   6.644   0.707   5.887 -0.5864 -0.5981 -1.8978
  126MOL   H10847858   6.694   0.552   5.961  0.0570  1.1808  1.4602
  126MOL   H10947859   6.467   0.562   5.884 -0.2845 -0.9827  0.6266
  126MOL   H11047860   6.418   0.574   5.628 -0.4048  2.4062 -0.5323
  126MOL   H11147861   6.457   0.722   5.704  3.4281  0.8596  3.4017
  126MOL   H11247862   6.594   0.632   5.622 -0.1405 -0.4485 -0.7308
  126MOL   H11347863   6.614   0.353   5.848  0.2055  0.8165  0.5322
  126MOL   H11447864   6.457   0.343   5.770 -0.4780 -0.0885  0.2375
  126MOL   H11547865   6.594   0.371   5.672 -0.2831  0.6045  0.1944
  126MOL   C11647866   6.915   0.784   5.748  0.1102  1.0142  0.2519
  126MOL   C11747867   6.818   0.898   5.770  0.0528  1.4657  0.0818
  126MOL   O11847868   6.842   0.940   5.903 -0.0986 -0.4020  0.5717
  126MOL   C11947869   6.753   1.038   5.959 -0.2578  0.6080 -0.0353
  126MOL   C12047870   6.720   1.010   6.108 -0.0035  0.1883  0.2503
  126MOL   C12147871   6.653   1.130   6.175 -0.1852 -0.4316  0.0213
  126MOL   C12247872   6.631   0.885   6.120  0.2960 -0.0924  0.6478
  126MOL   H12347873   7.014   0.825   5.770  0.6001 -0.7831  1.4728
  126MOL   H12447874   6.913   0.760   5.642  0.4343 -0.8762  0.6608
  126MOL   H12547875   6.721   0.849   5.761  1.1359 -0.9453  0.9488
  126MOL   H12647876   6.664   1.043   5.897 -0.2735  1.1367  0.0298
  126MOL   H12747877   6.803   1.135   5.963 -0.9414  0.9232  4.6637
  126MOL   H12847878   6.814   0.985   6.157 -0.3856 -2.1848 -0.1813
  126MOL   H12947879   6.666   1.125   6.283 -2.2030 -0.1334  0.3045
  126MOL   H13047880   6.545   1.129   6.157 -0.2908 -1.6478  0.6544
  126MOL   H13147881   6.697   1.225   6.148 -1.3578  0.2877  0.6173
  126MOL   H13247882   6.533   0.906   6.078 -0.2570 -2.8723  0.4392
  126MOL   H13347883   6.694   0.804   6.082 -0.2123 -1.0288  1.7832
  126MOL   H13447884   6.610   0.873   6.227 -1.2236 -3.0041  0.0666
  126MOL   C13547885   6.838   1.019   5.680  0.5913 -0.1677  0.1943
  126MOL   C13647886   6.720   1.037   5.584  0.0953  0.4805 -0.1427
  126MOL   O13747887   6.609   1.071   5.665 -0.2010 -0.3148  0.1134
  126MOL   C13847888   6.487   1.035   5.605 -0.0709 -0.2440 -0.6003
  126MOL   C13947889   6.373   1.088   5.694 -0.1253 -0.6453  0.7895
  126MOL   C14047890   6.379   1.031   5.839  0.0997 -0.6214  0.4418
  126MOL   C14147891   6.348   1.244   5.685  0.0214 -0.5111  0.5862
  126MOL   H14247892   6.852   1.111   5.736  0.8312  1.0416 -1.7950
  126MOL   H14347893   6.929   1.004   5.622 -1.6840 -0.2948 -3.4706
  126MOL   H14447894   6.703   0.954   5.515  1.6775 -1.1061  1.3332
  126MOL   H14547895   6.476   0.928   5.586  1.3552 -0.6252  0.6596
  126MOL   H14647896   6.479   1.089   5.510  0.1571  2.1216  0.6781
  126MOL   H14747897   6.282   1.048   5.649 -0.1012 -0.6658  0.7594
  126MOL   H14847898   6.388   0.924   5.823 -0.1860 -0.3367 -1.7320
  126MOL   H14947899   6.280   1.055   5.878  0.5362 -0.1482  1.2710
  126MOL   H15047900   6.460   1.072   5.901  0.8441 -2.5761  0.8051
  126MOL   H15147901   6.334   1.281   5.584  1.9268 -0.5317  0.2971
  126MOL   H15247902   6.269   1.294   5.742 -0.5526 -1.8594  1.0015
  126MOL   H15347903   6.442   1.291   5.712  0.8526 -1.8357  0.0246
  126MOL   C15447904   6.742   1.163   5.502  0.9197  0.3216  1.1793
  126MOL   C15547905   6.854   1.149   5.395  0.8495  0.2701 -0.2664
  126MOL   O15647906   6.834   1.022   5.334  0.2198  0.3885 -0.2946
  126MOL   C15747907   6.948   0.963   5.271  0.0236 -0.2150  0.1054
  126MOL   C15847908   6.916   0.818   5.225 -0.0367  0.1245 -0.5915
  126MOL   C15947909   7.034   0.762   5.133  0.2589  0.1853 -0.1966
  126MOL   C16047910   6.891   0.726   5.341  0.4092  0.0349 -0.2297
  126MOL   H16147911   6.751   1.246   5.572 -1.3843  2.3879 -0.8434
  126MOL   H16247912   6.651   1.184   5.445 -0.2751 -3.5150  1.5192
  126MOL   H16347913   6.942   1.158   5.459  0.1710  0.1472  0.6882
  126MOL   H16447914   7.028   0.966   5.345 -0.7832 -3.1610  1.2003
  126MOL   H16547915   6.976   1.021   5.182 -0.6598  2.0358  1.3332
  126MOL   H16647916   6.835   0.830   5.153 -1.6702 -1.9009  0.8432
  126MOL   H16747917   6.992   0.665   5.106  0.0220  0.5182 -1.0361
  126MOL   H16847918   7.132   0.753   5.180  0.4935 -0.8874 -0.8532
  126MOL   H16947919   7.050   0.819   5.042  0.4923 -0.8923 -0.8470
  126MOL   H17047920   6.964   0.736   5.421  0.0089  0.7788  0.0539
  126MOL   H17147921   6.792   0.736   5.386  0.3252  1.8610 -0.7794
  126MOL   H17247922   6.896   0.623   5.307 -4.0455 -0.5861  0.7450
  126MOL   C17347923   6.852   1.273   5.286 -0.9791 -0.3262 -0.2739
  126MOL   C17447924   6.875   1.415   5.335  0.5854 -0.3357 -0.3089
  126MOL   O17547925   6.770   1.458   5.426 -1.0746 -0.1582  0.1249
  126MOL   C17647926   6.761   1.595   5.454  0.2669  0.1678  0.6307
  126MOL   C17747927   6.630   1.626   5.521  0.7120 -0.4072  0.3526
  126MOL   C17847928   6.501   1.613   5.436  0.1426 -0.0505  0.5673
  126MOL   C17947929   6.615   1.536   5.643 -0.3225 -0.8554 -0.8766
  126MOL   H18047930   6.934   1.243   5.220  0.4364  2.5968  0.0827
  126MOL   H18147931   6.772   1.266   5.213 -1.3669  0.0906  0.1189
  126MOL   H18247932   6.888   1.489   5.255 -0.1408 -1.7534 -1.7704
  126MOL   H18347933   6.754   1.658   5.365  0.7569 -2.5600 -1.4399
  126MOL   H18447934   6.840   1.617   5.526  0.4603  2.1418 -0.1381
  126MOL   H18547935   6.634   1.725   5.567  1.6058  0.2116 -1.0486
  126MOL   H18647936   6.411   1.629   5.496  0.9345 -1.4953  2.1611
  126MOL   H18747937   6.511   1.675   5.347 -2.5403 -3.0859 -1.9675
  126MOL   H18847938   6.502   1.512   5.396  2.1025 -0.0748  0.6353
  126MOL   H18947939   6.703   1.551   5.706  0.5770 -1.6576 -1.9245
  126MOL   H19047940   6.603   1.432   5.612 -0.7080 -2.0481  2.9879
  126MOL   H19147941   6.525   1.561   5.699  0.4134 -0.0887 -0.0182
  126MOL   C19247942   7.009   1.427   5.415  0.0056 -0.5016 -0.3162
  126MOL   C19347943   7.142   1.387   5.340  0.3783 -0.5121  0.0995
  126MOL   O19447944   7.263   1.430   5.410 -0.4609  0.0558  0.1110
  126MOL   C19547945   7.298   1.351   5.526 -0.1823  0.2882  0.6492
  126MOL   C19647946   7.418   1.420   5.590  0.4609 -0.5060  0.3041
  126MOL   C19747947   7.521   1.470   5.492 -0.1545  0.2423  0.0627
  126MOL   C19847948   7.486   1.335   5.697 -0.3776 -0.6547 -0.3905
  126MOL   H19947949   7.007   1.366   5.506 -2.3948  0.1880  0.1213
  126MOL   H20047950   7.026   1.529   5.450  0.2657 -0.1348 -1.4936
  126MOL   H20147951   7.163   1.281   5.329  2.3463 -0.1327  0.0433
  126MOL   H20247952   7.343   1.255   5.500 -0.4764  0.5727 -0.9242
  126MOL   H20347953   7.209   1.329   5.585 -1.0490 -1.6028 -1.2660
  126MOL   H20447954   7.375   1.502   5.647  0.5966 -1.6213  2.0210
  126MOL   H20547955   7.615   1.498   5.539  0.7346 -1.4319 -0.6851
  126MOL   H20647956   7.537   1.387   5.424  0.4048  1.1297 -0.9145
  126MOL   H20747957   7.487   1.563   5.445 -0.0005  1.1645  1.7281
  126MOL   H20847958   7.518   1.239   5.656  1.8445 -0.6578  1.2294
  126MOL   H20947959   7.571   1.389   5.740  0.0693 -0.0768 -1.9640
  126MOL   H21047960   7.413   1.311   5.774  0.4333  2.1505  1.3040
  126MOL   C21147961   7.150   1.445   5.199 -0.3571  1.0757 -0.0630
  126MOL   C21247962   7.278   1.404   5.120 -0.0414 -0.1158 -0.4967
  126MOL   O21347963   7.291   1.260   5.123 -0.0440  0.0672 -0.2885
  126MOL   C21447964   7.427   1.218   5.160  0.6564 -0.0327  0.8330
  126MOL   C21547965   7.433   1.066   5.178  0.2120 -0.4883 -0.3286
  126MOL   C21647966   7.333   0.993   5.267 -0.4030  0.1409 -0.1461
  126MOL   C21747967   7.418   1.007   5.035  0.2249 -0.4165 -0.5394
  126MOL   H21847968   7.148   1.554   5.202 -0.1633  1.0559  1.2922
  126MOL   H21947969   7.073   1.398   5.138 -0.6286  1.6668 -0.1783
  126MOL   H22047970   7.364   1.454   5.165  1.5505 -1.4776 -1.9791
  126MOL   H22147971   7.450   1.257   5.259 -4.1358  2.2624  1.1892
  126MOL   H22247972   7.497   1.254   5.085 -1.0926 -2.2625 -2.0332
  126MOL   H22347973   7.532   1.044   5.217 -0.2493 -1.5410  0.2622
  126MOL   H22447974   7.348   0.887   5.251 -0.4998 -0.0200  0.8253
  126MOL   H22547975   7.332   1.019   5.373 -2.1506 -2.1055  0.4212
  126MOL   H22647976   7.229   1.012   5.240 -0.7911 -1.2474  0.3769
  126MOL   H22747977   7.492   1.034   4.960  0.4718 -0.5687 -0.3535
  126MOL   H22847978   7.319   1.030   4.995 -0.8779 -0.8686  1.8097
  126MOL   H22947979   7.432   0.900   5.022  1.9890 -0.2172 -0.4176
  126MOL   C23047980   7.276   1.438   4.968 -0.4036  0.7572  0.5937
  126MOL   C23147981   7.278   1.591   4.926  0.1641 -0.3002  0.6660
  126MOL   O23247982   7.408   1.642   4.942  0.3194 -0.4486 -0.1106
  126MOL   C23347983   7.416   1.738   5.050  0.3612  0.0560 -0.5434
  126MOL   C23447984   7.565   1.780   5.060 -0.5005  1.0069 -0.8605
  126MOL   C23547985   7.569   1.880   5.180 -0.4452  0.3976  0.2099
  126MOL   C23647986   7.649   1.651   5.087  0.1094 -0.0927  0.3109
  126MOL   H23747987   7.195   1.389   4.913 -0.4303 -0.0757  1.3740
  126MOL   H23847988   7.362   1.387   4.925 -1.7613 -1.4061  0.3663
  126MOL   H23947989   7.206   1.647   4.985  1.1609 -0.3516  1.9710
  126MOL   H24047990   7.345   1.820   5.038 -0.0284 -0.4381 -1.7590
  126MOL   H24147991   7.385   1.689   5.142  1.0916 -1.3428 -1.0222
  126MOL   H24247992   7.595   1.829   4.967  1.8705 -0.4840 -0.9186
  126MOL   H24347993   7.670   1.886   5.223 -2.0607  2.0650  4.0748
  126MOL   H24447994   7.499   1.853   5.259  0.5966 -0.0155  1.0186
  126MOL   H24547995   7.550   1.981   5.144 -0.6863  0.1551 -0.3410
  126MOL   H24647996   7.610   1.611   5.180 -2.1953  1.0080 -0.1548
  126MOL   H24747997   7.645   1.574   5.010 -0.1635 -0.8854  1.1101
  126MOL   H24847998   7.755   1.677   5.094 -0.3900  2.1272  0.0105
  126MOL   C24947999   7.241   1.620   4.784 -0.6212  0.0061  0.2571
  126MOL   C25048000   7.092   1.583   4.737 -0.1891 -0.4103  0.4775
  126MOL   O25148001   7.008   1.656   4.833 -0.0588  0.2582  0.3044
  126MOL   C25248002   6.901   1.587   4.894 -1.0932  0.4324  0.2450
  126MOL   C25348003   6.814   1.680   4.970  0.2027 -0.6141  0.0089
  126MOL   C25448004   6.901   1.757   5.072  0.3864 -0.0404  0.4489
  126MOL   C25548005   6.700   1.603   5.035  0.3622  0.7110 -0.0590
  126MOL   H25648006   7.311   1.573   4.716 -0.7900 -1.1688  0.8776
  126MOL   H25748007   7.254   1.728   4.775  2.8388 -0.5691 -2.4072
  126MOL   H25848008   7.080   1.475   4.734  0.0428 -0.4213  0.0777
  126MOL   H25948009   6.845   1.532   4.818 -1.3482 -1.2809  1.6382
  126MOL   H26048010   6.942   1.519   4.969 -1.3571  0.4209  0.3800
  126MOL   H26148011   6.782   1.750   4.893 -1.2129 -0.3654  0.8250
  126MOL   H26248012   6.855   1.811   5.156 -0.5009  0.7054 -0.4947
  126MOL   H26348013   6.963   1.834   5.027  0.4193  0.1692  0.8494
  126MOL   H26448014   6.953   1.680   5.129 -1.2733 -0.8025  0.9628
  126MOL   H26548015   6.639   1.668   5.097  0.8376  0.7007  0.4216
  126MOL   H26648016   6.629   1.558   4.965 -0.6077  0.2309  1.2212
  126MOL   H26748017   6.742   1.523   5.096 -1.5676 -0.2837 -0.0032
  126MOL   C26848018   7.048   1.629   4.592 -0.3652  0.2361 -0.0584
  126MOL   C26948019   7.108   1.556   4.470 -0.7382 -0.1023  0.4131
  126MOL   O27048020   7.143   1.662   4.381  0.1430 -0.0943  0.2648
  126MOL   C27148021   7.271   1.716   4.394  0.1619 -0.6304  0.4644
  126MOL   C27248022   7.264   1.862   4.349  0.2496 -0.1725 -0.6375
  126MOL   C27348023   7.179   1.950   4.446 -0.5518  0.1145  0.0063
  126MOL   C27448024   7.406   1.920   4.324 -0.7236  0.4704  0.1451
  126MOL   H27548025   7.084   1.732   4.597  1.0260 -0.2236 -0.2039
  126MOL   H27648026   6.940   1.625   4.586 -0.3380 -0.7498 -0.0287
  126MOL   H27748027   7.194   1.498   4.503 -1.0216 -2.8046 -3.2555
  126MOL   H27848028   7.290   1.709   4.501 -2.0980 -1.5293  0.8404
  126MOL   H27948029   7.351   1.663   4.343  1.3503  0.2757  1.3518
  126MOL   H28048030   7.211   1.871   4.254 -1.3106 -1.4024  0.0888
  126MOL   H28148031   7.085   1.902   4.471 -0.1095 -2.0257 -2.2076
  126MOL   H28248032   7.148   2.042   4.398  3.7856  2.8024  1.9990
  126MOL   H28348033   7.224   1.975   4.542 -1.2919 -2.1307  0.9617
  126MOL   H28448034   7.454   1.858   4.248  1.9656  0.1927  2.0097
  126MOL   H28548035   7.473   1.920   4.410 -1.2641 -0.6420  0.5590
  126MOL   H28648036   7.401   2.022   4.283  0.1415  0.0633 -1.0186
  126MOL   C28748037   7.024   1.460   4.384  0.0202  0.7062  0.4787
  126MOL   C28848038   7.011   1.331   4.457  0.5058 -0.0447 -0.6003
  126MOL   O28948039   7.129   1.252   4.446 -0.5704 -0.1967 -0.3539
  126MOL   C29048040   7.189   1.217   4.572  0.4576  0.6372 -0.0098
  126MOL   C29148041   7.330   1.175   4.552 -0.4250  0.5743  0.3391
  126MOL   C29248042   7.388   1.094   4.672  0.4603 -1.2729 -0.1193
  126MOL   C29348043   7.409   1.300   4.521 -0.2421 -0.1401  0.4139
  126MOL   H29448044   7.071   1.442   4.287 -1.5272  0.7158 -0.2996
  126MOL   H29548045   6.931   1.510   4.356  0.7334  1.3347 -0.7895
  126MOL   H29648046   6.975   1.360   4.555  2.3365 -1.9349  0.6842
  126MOL   H29748047   7.191   1.293   4.649  1.7358  0.7439 -0.1458
  126MOL   H29848048   7.128   1.144   4.624 -0.5294 -0.9252 -3.1998
  126MOL   H29948049   7.343   1.114   4.462  2.8964 -0.9012  1.7254
  126MOL   H30048050   7.400   1.157   4.761 -0.6614 -0.6601 -0.4034
  126MOL   H30148051   7.490   1.058   4.658  0.8887 -0.0718 -0.1298
  126MOL   H30248052   7.333   1.012   4.718 -0.4139  0.5059  2.0818
  126MOL   H30348053   7.509   1.272   4.489 -0.8104 -2.4264  0.5668
  126MOL   H30448054   7.364   1.363   4.443 -2.7236  0.3312  2.1585
  126MOL   H30548055   7.407   1.373   4.602  0.8568 -2.0703  2.1906
  126MOL   C30648056   6.892   1.248   4.398  0.1959 -0.1681 -0.4444
  126MOL   C30748057   6.847   1.127   4.493  0.3074 -0.3328  0.0257
  126MOL   O30848058   6.780   1.172   4.609 -0.6169 -0.6664  0.1495
  126MOL   C30948059   6.769   1.072   4.709  0.2672 -0.1125  0.2355
  126MOL   C31048060   6.795   1.126   4.852  0.2882 -0.0599  0.2920
  126MOL   C31148061   6.683   1.232   4.893 -1.1437 -0.1370  0.8194
  126MOL   C31248062   6.940   1.173   4.870 -0.9376  0.1531 -0.4978
  126MOL   H31348063   6.934   1.205   4.307 -1.7311 -0.4944 -1.1992
  126MOL   H31448064   6.805   1.310   4.375 -0.1872 -0.6845 -0.3954
  126MOL   H31548065   6.937   1.076   4.526  0.3217  1.5603  3.0659
  126MOL   H31648066   6.837   0.987   4.697  0.4440  0.4298 -3.0711
  126MOL   H31748067   6.667   1.035   4.704  0.2956 -0.1133 -0.2877
  126MOL   H31848068   6.783   1.048   4.926 -1.7258  0.2259  0.3027
  126MOL   H31948069   6.669   1.253   4.999 -0.5187 -0.2137  0.9168
  126MOL   H32048070   6.590   1.203   4.845  0.5354 -2.3258 -1.2276
  126MOL   H32148071   6.699   1.329   4.845 -1.1274 -0.7560 -0.4365
  126MOL   H32248072   6.958   1.198   4.975 -1.2001 -0.0563 -0.4008
  126MOL   H32348073   6.975   1.251   4.803  1.9914  1.2030  2.0936
  126MOL   H32448074   7.000   1.085   4.846 -0.3395  0.3336  0.2925
  126MOL   C32548075   6.759   1.030   4.420 -0.2015 -0.0044  0.3810
  126MOL   C32648076   6.815   0.945   4.302 -0.1009 -0.3768 -0.3648
  126MOL   O32748077   6.894   0.852   4.359  0.1724  0.1525 -1.1371
  126MOL   C32848078   7.021   0.831   4.305 -0.0091  0.3455  0.0992
  126MOL   C32948079   7.096   0.725   4.390 -0.1907  0.4295  0.1234
  126MOL   C33048080   7.145   0.778   4.528 -0.3676 -0.0582  1.0303
  126MOL   C33148081   7.014   0.595   4.419 -0.2974 -0.2129 -0.4504
  126MOL   H33248082   6.672   1.082   4.380  1.3868  0.0020 -3.3039
  126MOL   H33348083   6.712   0.965   4.493 -0.6935  0.1434  0.1948
  126MOL   H33448084   6.863   0.993   4.217  0.6023 -2.2690 -1.0674
  126MOL   H33548085   7.008   0.801   4.202 -1.1351  1.5951 -0.1367
  126MOL   H33648086   7.077   0.924   4.302  1.8573 -0.7979 -1.3104
  126MOL   H33748087   7.192   0.698   4.343 -0.0429  1.2130 -0.0297
  126MOL   H33848088   7.211   0.865   4.531  0.5216 -0.7490  2.0894
  126MOL   H33948089   7.057   0.817   4.580 -0.9301 -1.0077  0.7995
  126MOL   H34048090   7.189   0.695   4.582  0.6308  0.7576  1.4929
  126MOL   H34148091   7.061   0.522   4.485 -1.8607  0.5773  1.5651
  126MOL   H34248092   6.921   0.624   4.467 -0.8823 -1.7766 -0.6213
  126MOL   H34348093   6.987   0.539   4.330  1.8021  1.8038 -2.4498
  126MOL   C34448094   6.696   0.859   4.244  0.6231  0.4068  0.5267
  126MOL   C34548095   6.616   0.933   4.141 -0.4916 -0.1551  1.0278
  126MOL   O34648096   6.692   0.975   4.035  0.3527  0.3675  0.0718
  126MOL   C34748097   6.771   0.879   3.967 -0.2290  0.8202 -0.1870
  126MOL   C34848098   6.852   0.953   3.862 -0.1940  0.3551 -0.6518
  126MOL   C34948099   6.760   1.016   3.753  0.2089  0.1412  0.0248
  126MOL   C35048100   6.964   0.874   3.794  0.5129 -0.0865 -0.4993
  126MOL   H35148101   6.645   0.823   4.334  0.5256 -3.1258 -0.8463
  126MOL   H35248102   6.733   0.767   4.200 -1.2787 -1.7070  3.1578
  126MOL   H35348103   6.581   1.018   4.201  0.1406  1.1302 -0.3967
  126MOL   H35448104   6.700   0.809   3.922  1.1076  0.2794 -1.4667
  126MOL   H35548105   6.835   0.826   4.038 -0.8842 -0.3493 -0.4622
  126MOL   H35648106   6.897   1.031   3.924 -0.3169 -1.9111  2.4098
  126MOL   H35748107   6.818   1.068   3.677 -0.6782 -1.9046 -2.1053
  126MOL   H35848108   6.681   1.080   3.794  0.3965 -0.8380  1.9781
  126MOL   H35948109   6.717   0.928   3.705  2.1223 -0.3900 -0.7439
  126MOL   H36048110   7.006   0.929   3.710  2.6172 -0.3052  0.3623
  126MOL   H36148111   7.053   0.853   3.854  0.2954  2.1461  0.6874
  126MOL   H36248112   6.918   0.781   3.764 -2.8334  0.8905  1.3693
  126MOL   C36348113   6.489   0.858   4.094 -0.3879  0.3037  0.3493
  126MOL   C36448114   6.400   0.941   3.998  0.4079 -0.2339 -0.6489
  126MOL   O36548115   6.299   0.852   3.932 -0.7235 -0.1079  0.5031
  126MOL   C36648116   6.224   0.924   3.835 -0.4094  0.0572 -0.0994
  126MOL   C36748117   6.158   0.822   3.744 -0.3342  0.7244 -0.8776
  126MOL   C36848118   6.105   0.874   3.605 -0.2527 -0.6733  0.1197
  126MOL   C36948119   6.042   0.749   3.813 -0.6610  0.1996 -0.0453
  126MOL   H37048120   6.509   0.760   4.050  0.2277  0.5353  0.1069
  126MOL   H37148121   6.434   0.838   4.186  0.6080  1.1201  1.1154
  126MOL   H37248122   6.460   0.975   3.914  2.0028  0.6510  0.8242
  126MOL   H37348123   6.147   0.990   3.876 -0.1222  0.4724 -0.2267
  126MOL   H37448124   6.288   0.982   3.768 -2.3066  0.7722 -1.3338
  126MOL   H37548125   6.233   0.745   3.727 -3.0198 -1.9551 -1.1176
  126MOL   H37648126   6.031   0.806   3.562 -0.0621 -0.6630 -0.2202
  126MOL   H37748127   6.188   0.885   3.535 -1.6628 -1.3672 -1.6997
  126MOL   H37848128   6.059   0.973   3.615 -1.3862 -1.1555 -0.1896
  126MOL   H37948129   5.976   0.818   3.866 -1.1235 -0.2268 -0.0654
  126MOL   H38048130   6.063   0.676   3.891 -1.0742 -1.1849 -1.2094
  126MOL   H38148131   5.981   0.700   3.737  0.5934 -1.3908 -0.0613
  126MOL   H38248132   6.357   1.032   4.042  2.2340  0.5077 -0.3175
  127MOL     C148133   6.046   4.938   0.875  0.5813  0.5759 -0.6443
  127MOL     C248134   6.025   5.043   0.761 -0.7492  0.1539 -0.0277
  127MOL     O348135   6.075   5.163   0.815 -0.2826 -0.0047  0.2869
  127MOL     C448136   5.980   5.244   0.874 -0.0603 -0.2348 -0.3714
  127MOL     C548137   6.065   5.360   0.937 -0.4063 -0.5051  0.4918
  127MOL     C648138   6.152   5.308   1.051  0.0672  0.0427 -0.7467
  127MOL     C748139   5.980   5.485   0.970  0.0939  0.4368 -0.1381
  127MOL     H848140   6.041   4.838   0.832 -0.3361 -0.3045  1.3796
  127MOL     H948141   6.142   4.948   0.925 -0.1389  1.9175  0.5353
  127MOL    H1048142   5.918   5.044   0.740 -0.6100  0.1250 -0.7349
  127MOL    H1148143   5.920   5.186   0.944 -0.6009  0.4847 -0.2450
  127MOL    H1248144   5.912   5.280   0.797 -0.5213 -0.4893 -0.0808
  127MOL    H1348145   6.132   5.388   0.854 -1.9442  0.4473 -0.4509
  127MOL    H1448146   6.207   5.392   1.093  2.1305 -1.9939  0.6964
  127MOL    H1548147   6.085   5.266   1.126 -0.1251  0.9184 -0.4234
  127MOL    H1648148   6.217   5.231   1.010  0.8133  1.1905 -1.7326
  127MOL    H1748149   5.923   5.468   1.062 -1.4257  0.7641 -1.0114
  127MOL    H1848150   6.034   5.580   0.975 -1.7376  1.4859  0.0241
  127MOL    H1948151   5.905   5.501   0.893  1.2049 -1.0363 -1.5508
  127MOL    H2048152   5.964   4.952   0.947  1.8463 -0.1353  0.9558
  127MOL    C2148153   6.111   5.024   0.632 -0.4360 -0.0380 -0.4734
  127MOL    C2248154   6.048   5.070   0.502 -0.3919 -0.1830 -0.1003
  127MOL    O2348155   5.917   5.019   0.483  0.0935 -0.2560 -0.4635
  127MOL    C2448156   5.905   4.884   0.442  0.1160  0.2845  0.5263
  127MOL    C2548157   5.760   4.852   0.411 -0.3647  0.2742  0.1904
  127MOL    C2648158   5.748   4.708   0.368  0.3749 -0.2567  0.5241
  127MOL    C2748159   5.675   4.878   0.536  0.1194 -0.0663  0.0502
  127MOL    H2848160   6.213   5.056   0.649 -1.5805  1.7915  3.5355
  127MOL    H2948161   6.124   4.917   0.612  0.8671  0.3559 -1.8340
  127MOL    H3048162   6.117   5.032   0.427 -0.8453  1.7666 -1.5546
  127MOL    H3148163   5.934   4.824   0.529 -2.3283  0.5692  1.5954
  127MOL    H3248164   5.975   4.872   0.359 -1.1826 -0.4275 -0.4731
  127MOL    H3348165   5.729   4.918   0.329  2.4133 -0.0959 -1.2315
  127MOL    H3448166   5.833   4.682   0.305  0.1993 -1.0472  0.6023
  127MOL    H3548167   5.665   4.697   0.298 -0.2745  1.1365  1.0703
  127MOL    H3648168   5.728   4.651   0.459  0.3407  0.0194  0.6888
  127MOL    H3748169   5.672   4.985   0.558  0.2651 -0.0428 -0.0423
  127MOL    H3848170   5.574   4.840   0.520 -0.2181 -0.0586  2.1142
  127MOL    H3948171   5.711   4.823   0.623 -1.8015 -0.2558  0.7506
  127MOL    C4048172   6.039   5.214   0.492  0.0802 -0.6157 -0.0033
  127MOL    C4148173   6.171   5.296   0.494 -0.5752 -0.2621 -0.1590
  127MOL    O4248174   6.126   5.428   0.467 -0.1216  0.2125 -0.6978
  127MOL    C4348175   6.082   5.488   0.585  1.2944 -0.5423 -0.7279
  127MOL    C4448176   6.033   5.630   0.533 -0.2109  0.1625  0.0066
  127MOL    C4548177   5.916   5.635   0.442 -0.2191 -0.1789  0.6566
  127MOL    C4648178   6.004   5.724   0.651 -0.5711 -0.5204 -0.1003
  127MOL    H4748179   5.964   5.250   0.563  0.3409  1.8955 -0.9295
  127MOL    H4848180   5.991   5.230   0.396 -0.9622 -1.9315  0.2895
  127MOL    H4948181   6.220   5.284   0.591 -0.3698 -1.1959 -0.3748
  127MOL    H5048182   6.161   5.514   0.655  0.5597  0.0739 -0.1146
  127MOL    H5148183   6.014   5.426   0.643  0.1716  1.3291  0.0258
  127MOL    H5248184   6.114   5.671   0.473  0.6855 -3.0204 -1.0099
  127MOL    H5348185   5.877   5.732   0.412 -0.4672 -0.0357  1.4477
  127MOL    H5448186   5.932   5.587   0.345 -1.3860 -1.0665  0.8777
  127MOL    H5548187   5.835   5.584   0.495 -0.4081 -0.0192  0.5244
  127MOL    H5648188   5.972   5.821   0.614  1.7114 -0.3091 -1.6563
  127MOL    H5748189   6.088   5.744   0.717 -0.8312  0.9331 -0.1945
  127MOL    H5848190   5.927   5.683   0.716 -1.0976 -0.0710 -0.4377
  127MOL    C5948191   6.266   5.254   0.380 -1.0994 -0.0194 -0.3609
  127MOL    C6048192   6.378   5.359   0.354  0.2578 -0.3031 -0.3063
  127MOL    O6148193   6.450   5.318   0.241 -0.1481  0.1513  0.1361
  127MOL    C6248194   6.441   5.393   0.121  0.6224 -0.2637  0.2582
  127MOL    C6348195   6.492   5.309   7.824 -0.0727 -0.1177  0.3698
  127MOL    C6448196   6.480   5.390   7.698  0.2985  0.1450  0.0308
  127MOL    C6548197   6.641   5.264   0.014 -0.0529  0.5681  0.1499
  127MOL    H6648198   6.218   5.216   0.290 -0.5307 -0.4800 -0.4724
  127MOL    H6748199   6.320   5.170   0.425 -0.2673  0.8181  0.2178
  127MOL    H6848200   6.330   5.451   0.321  0.5487 -0.6062 -1.5922
  127MOL    H6948201   6.335   5.416   0.108  0.9720  0.1368 -1.9927
  127MOL    H7048202   6.492   5.488   0.129  1.1572 -0.5000 -0.3156
  127MOL    H7148203   6.436   5.217   7.806  0.2509 -0.0929 -0.7865
  127MOL    H7248204   6.534   5.485   7.710  2.1170 -0.6814 -1.3229
  127MOL    H7348205   6.375   5.402   7.673  0.1473 -1.4333 -0.1226
  127MOL    H7448206   6.530   5.340   7.615  0.1638 -1.0850  0.6913
  127MOL    H7548207   6.684   5.211   7.753  1.2882  0.9053  0.6140
  127MOL    H7648208   6.699   5.353   0.036  1.0863  0.3482 -1.8050
  127MOL    H7748209   6.652   5.191   0.095  1.8391  2.3296  1.5341
  127MOL    C7848210   6.468   5.388   0.475  0.5063 -0.5008  0.4325
  127MOL    C7948211   6.549   5.520   0.465  0.6171  0.1590  0.8273
  127MOL    O8048212   6.562   5.558   0.602  0.3337  0.0358  0.4798
  127MOL    C8148213   6.454   5.653   0.641  0.0380  0.1638 -0.8487
  127MOL    C8248214   6.482   5.686   0.789  0.7656 -0.1512  0.3909
  127MOL    C8348215   6.373   5.776   0.860  0.5069  0.1284 -0.4500
  127MOL    C8448216   6.614   5.747   0.802  0.3066  0.2282 -0.3094
  127MOL    H8548217   6.540   5.307   0.490  0.8477 -0.3555 -0.4208
  127MOL    H8648218   6.408   5.411   0.564  1.4107 -0.9203  1.1645
  127MOL    H8748219   6.516   5.599   0.398 -0.2401  0.0399  1.0980
  127MOL    H8848220   6.463   5.741   0.578  1.0993 -0.5968 -1.7784
  127MOL    H8948221   6.350   5.622   0.625 -0.6512  1.4207  1.0968
  127MOL    H9048222   6.489   5.587   0.834  0.2955 -1.1313 -1.6877
  127MOL    H9148223   6.339   5.859   0.797 -0.8978 -1.9852 -2.5594
  127MOL    H9248224   6.410   5.818   0.953 -1.0464  0.4183  0.0502
  127MOL    H9348225   6.291   5.720   0.906 -0.2542  0.0324 -1.8939
  127MOL    H9448226   6.627   5.837   0.742  2.1062  2.2515  2.9721
  127MOL    H9548227   6.697   5.688   0.765 -1.3244 -1.5238 -1.2426
  127MOL    H9648228   6.638   5.780   0.903  0.7962 -1.0518  0.0014
  127MOL    C9748229   6.693   5.493   0.419  0.3407  0.2548  0.3129
  127MOL    C9848230   6.778   5.620   0.416 -0.5425 -0.4991  0.4796
  127MOL    O9948231   6.737   5.704   0.307  0.3212 -0.0586 -0.0757
  127MOL   C10048232   6.686   5.824   0.347 -0.0924 -0.2913 -0.3650
  127MOL   C10148233   6.604   5.874   0.229 -0.3978 -0.6629 -0.0941
  127MOL   C10248234   6.481   5.779   0.204 -0.3679 -0.1755  0.7587
  127MOL   C10348235   6.557   6.022   0.256  0.2620  0.1961 -0.0809
  127MOL   H10448236   6.702   5.447   0.320 -0.4864 -0.9351  0.7878
  127MOL   H10548237   6.728   5.417   0.489  1.3376 -0.7292 -1.2002
  127MOL   H10648238   6.772   5.671   0.512 -1.5121  0.9357 -0.3267
  127MOL   H10748239   6.767   5.896   0.362  1.8308 -2.2997 -0.7858
  127MOL   H10848240   6.624   5.816   0.436 -1.5878  0.3399 -1.3387
  127MOL   H10948241   6.663   5.867   0.138 -0.7916 -0.0992 -0.3953
  127MOL   H11048242   6.512   5.678   0.179  0.9806  0.2205  0.7884
  127MOL   H11148243   6.415   5.777   0.291 -1.0916 -0.2672  0.2173
  127MOL   H11248244   6.423   5.811   0.117 -1.8383 -1.4694  1.2486
  127MOL   H11348245   6.479   6.026   0.332  0.8777  0.5331  0.5485
  127MOL   H11448246   6.641   6.087   0.284  1.8165 -1.6672 -0.2731
  127MOL   H11548247   6.514   6.058   0.163  0.7808  1.4796  0.1550
  127MOL   C11648248   6.928   5.589   0.388  0.1500  0.0623 -1.0383
  127MOL   C11748249   7.023   5.699   0.425  0.3676 -0.4140 -0.2405
  127MOL   O11848250   7.014   5.713   0.568 -0.3938 -0.5032  0.2649
  127MOL   C11948251   7.015   5.844   0.612  0.4380 -0.0713  0.0199
  127MOL   C12048252   6.993   5.851   0.769 -0.5329 -0.6201 -0.1007
  127MOL   C12148253   7.109   5.776   0.832 -0.1579  0.2923  0.0743
  127MOL   C12248254   6.998   5.996   0.820  0.5843  0.1935  0.0331
  127MOL   H12348255   6.963   5.498   0.435 -0.6398 -1.2101 -2.8359
  127MOL   H12448256   6.942   5.570   0.282 -1.1650 -1.5947 -0.9370
  127MOL   H12548257   6.985   5.789   0.377 -2.8248 -2.0864 -0.9657
  127MOL   H12648258   6.935   5.903   0.568 -0.3646 -1.1585  0.0014
  127MOL   H12748259   7.108   5.894   0.588  0.1511  0.3975 -0.1169
  127MOL   H12848260   6.903   5.799   0.800 -0.7403 -0.2697 -0.1143
  127MOL   H12948261   7.200   5.831   0.809 -0.2899  0.2667 -0.5168
  127MOL   H13048262   7.124   5.678   0.788 -0.2723  0.2346  0.1605
  127MOL   H13148263   7.090   5.773   0.940  1.3814  1.6479  0.4062
  127MOL   H13248264   7.084   6.058   0.791  2.2631 -1.4300  1.3999
  127MOL   H13348265   6.911   6.055   0.793  0.2969  0.0199  0.5734
  127MOL   H13448266   7.009   5.999   0.929 -1.2947  0.5869  0.2185
  127MOL   C13548267   7.177   5.664   0.399 -0.0697 -0.0462  0.6025
  127MOL   C13648268   7.205   5.655   0.247  0.0934  0.2719  0.0410
  127MOL   O13748269   7.151   5.524   0.205  0.1355 -0.0785 -0.1081
  127MOL   C13848270   7.140   5.495   0.060  0.1612 -0.1546 -0.3671
  127MOL   C13948271   7.100   5.344   0.045  0.3501  0.1121 -0.0712
  127MOL   C14048272   7.200   5.242   0.102 -0.3350  0.0969  0.0475
  127MOL   C14148273   6.956   5.318   0.100 -0.4592  0.3601  0.3860
  127MOL   H14248274   7.228   5.750   0.443 -1.0626  0.4328  0.8434
  127MOL   H14348275   7.208   5.572   0.448  2.3250  0.8706  0.8951
  127MOL   H14448276   7.313   5.646   0.232 -0.0435  0.0890 -0.8743
  127MOL   H14548277   7.239   5.519   0.021  1.6856  0.2223  3.4491
  127MOL   H14648278   7.066   5.558   0.010  0.0742 -1.4881 -1.9375
  127MOL   H14748279   7.098   5.327   7.762 -2.6496  0.7300 -0.1417
  127MOL   H14848280   7.298   5.255   0.058  0.0320 -3.3437 -0.2558
  127MOL   H14948281   7.173   5.141   0.073  0.7832 -0.3574  0.5911
  127MOL   H15048282   7.207   5.241   0.211 -0.1373 -0.4878  0.0258
  127MOL   H15148283   6.963   5.325   0.209 -0.9883 -0.4772  0.4791
  127MOL   H15248284   6.890   5.397   0.067 -0.9206 -0.7015 -1.2931
  127MOL   H15348285   6.923   5.216   0.078  2.6300 -0.8410  0.9463
  127MOL   C15448286   7.145   5.769   0.167 -0.4759  0.5277 -0.2924
  127MOL   C15548287   7.182   5.918   0.201 -0.0601  0.1345 -0.1400
  127MOL   O15648288   7.314   5.927   0.250  0.8798  0.0390 -0.4334
  127MOL   C15748289   7.352   6.043   0.310  0.2714  0.2035  0.8139
  127MOL   C15848290   7.421   6.016   0.439  0.2591 -0.1884 -0.5024
  127MOL   C15948291   7.514   5.900   0.427 -0.4083  0.3030 -0.3377
  127MOL   C16048292   7.503   6.139   0.486 -0.1673 -0.4652 -0.3968
  127MOL   H16148293   7.036   5.773   0.172 -0.6433 -2.1792 -1.0283
  127MOL   H16248294   7.172   5.748   0.064  1.6570  1.9022 -0.0500
  127MOL   H16348295   7.117   5.952   0.281 -0.4078  2.0631 -1.2158
  127MOL   H16448296   7.279   6.124   0.317 -0.2328 -0.3006  1.4519
  127MOL   H16548297   7.431   6.070   0.240 -0.0713 -1.2685 -0.1574
  127MOL   H16648298   7.338   5.993   0.506 -0.5922 -1.1208 -1.8569
  127MOL   H16748299   7.482   5.805   0.384 -0.0222 -0.0632  0.1711
  127MOL   H16848300   7.561   5.882   0.524  0.1240  2.9321 -0.0700
  127MOL   H16948301   7.581   5.930   0.346  0.6206  1.5055  0.9346
  127MOL   H17048302   7.589   6.121   0.550  1.2205  0.5713 -1.9430
  127MOL   H17148303   7.556   6.169   0.396 -1.5284  0.9498 -0.7527
  127MOL   H17248304   7.444   6.215   0.536  1.5184 -0.3693  1.4689
  127MOL   C17348305   7.158   6.014   0.083 -0.6360 -0.3206  0.4908
  127MOL   C17448306   7.006   6.034   0.055  0.3717  0.1006  0.3300
  127MOL   O17548307   6.940   5.918   0.015  0.0301 -0.0600 -0.1893
  127MOL   C17648308   6.923   5.901   7.695  0.0266  0.0531 -0.3149
  127MOL   C17748309   6.811   5.796   7.682 -0.1334 -0.1517 -0.2083
  127MOL   C17848310   6.776   5.783   7.529 -0.5792  0.1534  0.0874
  127MOL   C17948311   6.834   5.664   7.757  0.5077 -0.2567  0.2662
  127MOL   H18048312   7.197   6.114   0.098  1.4981 -1.0933  0.2523
  127MOL   H18148313   7.210   5.973   7.821 -0.8805 -0.3489  0.3579
  127MOL   H18248314   6.998   6.114   7.806  0.0269  1.7350  2.0838
  127MOL   H18348315   7.011   5.852   7.652  0.9510 -0.2836  1.8904
  127MOL   H18448316   6.886   5.988   7.640 -0.1941  1.0005  1.2944
  127MOL   H18548317   6.732   5.848   7.736  0.6236 -2.3375  3.1492
  127MOL   H18648318   6.746   5.880   7.489 -0.2888  0.1900 -0.0372
  127MOL   H18748319   6.860   5.742   7.474 -1.2238 -0.5025 -0.4199
  127MOL   H18848320   6.689   5.723   7.503 -0.5063 -0.7237  1.7787
  127MOL   H18948321   6.888   5.676   0.026  0.3974 -1.2154  0.4621
  127MOL   H19048322   6.900   5.600   7.698 -0.0723  0.0566 -0.7330
  127MOL   H19148323   6.749   5.606   7.793  1.6030 -1.5352  0.8368
  127MOL   C19248324   6.924   6.103   0.166 -0.1414 -0.0974  0.6532
  127MOL   C19348325   6.961   6.243   0.214  0.1877 -0.0402 -0.6502
  127MOL   O19448326   6.889   6.275   0.335  0.0412  0.0921 -0.1941
  127MOL   C19548327   6.949   6.231   0.454  0.2008 -0.2566 -0.4636
  127MOL   C19648328   6.876   6.263   0.586  0.2605  1.0398 -0.4030
  127MOL   C19748329   6.745   6.190   0.597 -0.3782  0.1683 -0.5663
  127MOL   C19848330   6.853   6.410   0.606  0.2242 -0.3132 -0.2105
  127MOL   H19948331   6.912   6.031   0.246  0.1390  1.1449  1.8209
  127MOL   H20048332   6.820   6.105   0.133 -0.0227  0.0318  0.2810
  127MOL   H20148333   7.065   6.247   0.246  0.0298  1.9234 -0.3004
  127MOL   H20248334   7.044   6.285   0.463  0.0317 -0.1137  0.5166
  127MOL   H20348335   6.973   6.125   0.450 -0.2928 -0.2941 -2.8363
  127MOL   H20448336   6.948   6.233   0.662 -0.7611  0.0593  0.1959
  127MOL   H20548337   6.768   6.084   0.589 -0.0086 -0.1212  3.3996
  127MOL   H20648338   6.702   6.207   0.696  0.5284  2.0441 -0.4582
  127MOL   H20748339   6.679   6.222   0.516 -0.9941 -1.3006 -0.6493
  127MOL   H20848340   6.825   6.429   0.709  0.2830  0.4801 -0.3366
  127MOL   H20948341   6.939   6.468   0.572  0.9444 -2.1807 -1.6178
  127MOL   H21048342   6.773   6.456   0.548  0.1105 -0.4221 -0.1407
  127MOL   C21148343   6.935   6.356   0.118  0.8986 -0.3384  0.3416
  127MOL   C21248344   6.967   6.495   0.157  0.4552  0.2030  0.4957
  127MOL   O21348345   7.108   6.502   0.179 -0.3419  0.5474  0.3640
  127MOL   C21448346   7.140   6.570   0.302  0.2627 -0.5656 -0.0656
  127MOL   C21548347   7.294   6.571   0.303  0.0102  0.2680 -0.5007
  127MOL   C21648348   7.354   6.430   0.284  0.2382 -0.0596 -0.0189
  127MOL   C21748349   7.344   6.662   0.185  0.7073 -0.1981  0.6228
  127MOL   H21848350   6.827   6.360   0.102  0.6629 -0.9061  1.7375
  127MOL   H21948351   6.981   6.334   0.022  0.3502 -0.3565  0.0807
  127MOL   H22048352   6.917   6.519   0.250  0.8032 -1.4342  1.1329
  127MOL   H22148353   7.089   6.519   0.384  0.2332 -1.0757 -0.4010
  127MOL   H22248354   7.113   6.676   0.297 -1.1939 -0.8067  1.9464
  127MOL   H22348355   7.328   6.614   0.398 -0.5428  2.1420 -1.1441
  127MOL   H22448356   7.463   6.435   0.287  0.1955  1.2825 -0.5087
  127MOL   H22548357   7.329   6.374   0.374  0.1663  0.4553  0.2836
  127MOL   H22648358   7.320   6.379   0.193  0.5325  1.5434 -1.0518
  127MOL   H22748359   7.307   6.630   0.087  1.4969  0.8048 -0.0038
  127MOL   H22848360   7.452   6.654   0.178  0.6149 -1.7670  0.8416
  127MOL   H22948361   7.308   6.764   0.198 -0.4146 -0.2654 -1.6378
  127MOL   C23048362   6.924   6.593   0.047  0.4822 -0.5025 -0.1107
  127MOL   C23148363   6.928   6.745   0.083 -0.9817  0.1087 -0.2446
  127MOL   O23248364   6.897   6.819   7.793  0.2997 -0.4569  0.1103
  127MOL   C23348365   6.985   6.928   7.755 -0.1384 -0.0034 -0.3464
  127MOL   C23448366   7.109   6.867   7.687 -0.1376  0.3592 -0.8655
  127MOL   C23548367   7.071   6.832   7.544  0.3870 -0.4030 -0.7767
  127MOL   C23648368   7.245   6.938   7.694 -1.2658  0.7694  0.0385
  127MOL   H23748369   6.817   6.581   0.030  0.0661 -0.4700  2.3043
  127MOL   H23848370   6.973   6.573   7.776  3.9746 -0.3743  1.6065
  127MOL   H23948371   7.031   6.778   0.091 -0.4320 -1.0814 -2.0275
  127MOL   H24048372   6.930   6.991   7.685 -0.1897  0.5382  0.1749
  127MOL   H24148373   7.009   6.990   0.018  3.3104  0.2694 -1.3850
  127MOL   H24248374   7.128   6.769   7.730  0.3647  0.6410 -0.4352
  127MOL   H24348375   6.983   6.768   7.539 -0.5730  0.9134 -1.1479
  127MOL   H24448376   7.159   6.782   7.504  2.0828  0.7808  1.3353
  127MOL   H24548377   7.039   6.922   7.492  1.1787  0.5957  0.4337
  127MOL   H24648378   7.220   7.040   7.665 -1.7296  0.8552  0.7031
  127MOL   H24748379   7.278   6.950   7.797 -0.2637  1.0329 -0.3136
  127MOL   H24848380   7.321   6.896   7.629 -0.6680  1.3990  0.3249
  127MOL   C24948381   6.844   6.788   0.204 -0.2633 -0.2988  0.4885
  127MOL   C25048382   6.858   6.935   0.246 -0.1306 -0.8578  0.5678
  127MOL   O25148383   6.752   6.955   0.337  0.2480  0.3399  0.2407
  127MOL   C25248384   6.640   7.022   0.290 -0.0672  1.0584  0.9145
  127MOL   C25348385   6.527   7.035   0.396 -0.1243 -0.3431 -0.2819
  127MOL   C25448386   6.484   6.900   0.462 -0.2184  0.7049  0.1470
  127MOL   C25548387   6.403   7.118   0.350 -1.1967  0.7710 -0.3840
  127MOL   H25648388   6.870   6.720   0.285  2.7614 -0.5023 -0.6026
  127MOL   H25748389   6.740   6.763   0.181 -0.3656  0.6650 -0.1218
  127MOL   H25848390   6.850   7.014   0.172  0.9333 -1.1110  0.1627
  127MOL   H25948391   6.660   7.116   0.239 -3.3564  0.2560 -2.0528
  127MOL   H26048392   6.600   6.965   0.206 -2.3678  1.1597  1.9069
  127MOL   H26148393   6.573   7.098   0.473 -1.4463  0.2330  0.0482
  127MOL   H26248394   6.406   6.851   0.402  0.8597  1.2467 -1.7308
  127MOL   H26348395   6.439   6.936   0.554 -1.6039  0.0079 -0.2281
  127MOL   H26448396   6.572   6.842   0.489  0.7942  1.2251 -1.9437
  127MOL   H26548397   6.349   7.053   0.281  0.2956 -0.5586 -0.3075
  127MOL   H26648398   6.350   7.145   0.441 -0.2381  0.5155  0.2506
  127MOL   H26748399   6.440   7.210   0.304 -1.2678  0.6987 -0.5883
  127MOL   C26848400   6.980   6.954   0.333  0.3834 -0.2209  0.7964
  127MOL   C26948401   6.992   7.106   0.389  0.4674  0.8854  0.2566
  127MOL   O27048402   7.034   7.191   0.288  0.0255 -0.7079  0.5348
  127MOL   C27148403   6.967   7.317   0.288 -0.0310 -0.1110  0.5230
  127MOL   C27248404   7.028   7.408   0.177  0.5084 -0.2114  0.3048
  127MOL   C27348405   7.009   7.347   0.036 -0.0166 -0.4741  0.7769
  127MOL   C27448406   6.970   7.546   0.186  0.1762  0.6539 -0.2090
  127MOL   H27548407   7.071   6.924   0.280 -0.2994  0.0205 -0.5207
  127MOL   H27648408   6.971   6.888   0.419 -0.2422 -0.8087  0.2786
  127MOL   H27748409   6.898   7.133   0.437  1.4776  0.0315  2.8320
  127MOL   H27848410   6.861   7.297   0.271  0.1607  1.1362 -2.4368
  127MOL   H27948411   6.967   7.373   0.381  0.6338 -0.2445  0.6099
  127MOL   H28048412   7.135   7.420   0.196  0.5294  0.4464 -0.1987
  127MOL   H28148413   7.055   7.249   0.024  2.8038  0.7696  1.0311
  127MOL   H28248414   7.052   7.418   7.791 -0.7954  0.2495  1.0271
  127MOL   H28348415   6.900   7.345   0.028 -0.0159 -1.7854  0.8813
  127MOL   H28448416   6.988   7.601   0.093  0.3551  0.9416 -0.0061
  127MOL   H28548417   7.010   7.602   0.271 -0.0873 -0.4367  0.6372
  127MOL   H28648418   6.861   7.546   0.195  0.2871  0.4300  1.2705
  127MOL   C28748419   7.087   7.133   0.499  0.2431  0.6946  0.1167
  127MOL   C28848420   7.064   7.050   0.625  1.3042  0.1203  0.1744
  127MOL   O28948421   6.934   7.073   0.677  0.3473  0.4925  0.2181
  127MOL   C29048422   6.855   6.960   0.703 -0.1096  0.2522 -0.2527
  127MOL   C29148423   6.729   6.986   0.788 -0.2248 -0.0864 -0.5169
  127MOL   C29248424   6.760   7.049   0.921  0.4465  0.2530  0.2901
  127MOL   C29348425   6.651   6.853   0.804 -0.3227  0.0033  0.3444
  127MOL   H29448426   7.076   7.236   0.533 -1.0870  0.2059  1.1694
  127MOL   H29548427   7.188   7.112   0.463 -0.3837  0.8800 -1.8352
  127MOL   H29648428   7.078   6.944   0.605  0.4272 -0.2318  1.3380
  127MOL   H29748429   6.819   6.906   0.615  1.2376  1.1016 -1.3491
  127MOL   H29848430   6.924   6.888   0.747  0.6124  1.4378  0.5678
  127MOL   H29948431   6.667   7.059   0.736 -1.2963 -0.5453  0.1085
  127MOL   H30048432   6.836   6.987   0.970  0.8053 -0.6313 -1.3469
  127MOL   H30148433   6.673   7.058   0.986  1.3501 -1.2046  1.7385
  127MOL   H30248434   6.808   7.145   0.899  1.6678 -0.1039  1.3118
  127MOL   H30348435   6.633   6.798   0.712  2.3988 -1.1331  0.4290
  127MOL   H30448436   6.706   6.787   0.872  1.6613  0.4079 -0.8308
  127MOL   H30548437   6.551   6.867   0.844 -0.5231  1.3463 -0.6381
  127MOL   C30648438   7.169   7.080   0.731 -0.5684  0.1392 -0.4509
  127MOL   C30748439   7.320   7.066   0.704 -0.4086  0.6983 -0.1559
  127MOL   O30848440   7.384   7.096   0.828  0.1119 -0.4177 -0.4299
  127MOL   C30948441   7.446   7.220   0.818  0.3827  0.1424 -0.0652
  127MOL   C31048442   7.546   7.222   0.939 -0.4360  0.5792  0.4892
  127MOL   C31148443   7.570   7.367   0.983  0.3296  1.3752  0.0477
  127MOL   C31248444   7.670   7.139   0.906 -0.0815  0.5986  0.4809
  127MOL   H31348445   7.141   7.012   0.811 -0.6579  1.1817  0.4266
  127MOL   H31448446   7.139   7.177   0.771 -1.2492 -0.5549  0.7286
  127MOL   H31548447   7.350   7.134   0.624 -0.2509 -0.4779 -1.1091
  127MOL   H31648448   7.358   7.284   0.825  0.8769  0.6908  1.4458
  127MOL   H31748449   7.507   7.240   0.731  1.6908 -0.4310  0.6976
  127MOL   H31848450   7.494   7.175   1.022 -0.3245 -1.3682 -0.5274
  127MOL   H31948451   7.660   7.378   1.043  0.8543 -0.7397 -0.3008
  127MOL   H32048452   7.497   7.413   1.050 -1.0785 -0.4218 -0.2054
  127MOL   H32148453   7.592   7.439   0.904 -0.4078  0.4453 -1.0262
  127MOL   H32248454   7.732   7.195   0.835  0.1475  0.1923  0.3609
  127MOL   H32348455   7.658   7.036   0.872  0.4297  0.3337  1.0870
  127MOL   H32448456   7.725   7.135   1.000  0.5758  0.0396  0.0780
  127MOL   C32548457   7.363   6.918   0.666 -0.6568  0.0386 -0.8033
  127MOL   C32648458   7.509   6.918   0.601 -0.4136 -0.0641 -0.3084
  127MOL   O32748459   7.545   6.779   0.599 -0.2399 -0.0836 -0.2865
  127MOL   C32848460   7.614   6.733   0.713  0.2665 -0.6818  0.6668
  127MOL   C32948461   7.649   6.582   0.692 -0.2235 -0.7730  0.2269
  127MOL   C33048462   7.760   6.570   0.588  0.1019 -0.1767  0.5070
  127MOL   C33148463   7.675   6.517   0.830 -0.5736 -0.4865  0.3973
  127MOL   H33248464   7.285   6.877   0.603 -1.0850 -1.9764  0.9886
  127MOL   H33348465   7.358   6.849   0.750  0.6132  1.0632  0.1429
  127MOL   H33448466   7.586   6.976   0.652  0.3094 -1.3172  0.0537
  127MOL   H33548467   7.708   6.789   0.716 -0.2581  0.3872 -1.6656
  127MOL   H33648468   7.551   6.741   0.801 -0.4783  0.3345  0.0456
  127MOL   H33748469   7.566   6.526   0.652 -0.8900 -1.0664  1.9575
  127MOL   H33848470   7.796   6.468   0.604 -1.0898 -0.7125 -0.1356
  127MOL   H33948471   7.721   6.573   0.486  1.5708 -1.8462 -0.1330
  127MOL   H34048472   0.008   6.650   0.598  0.8280 -1.1021  3.0618
  127MOL   H34148473   7.581   6.511   0.885  0.2128  0.5056  1.8957
  127MOL   H34248474   7.708   6.416   0.807 -0.3252 -0.3398  0.1026
  127MOL   H34348475   7.748   6.581   0.880 -1.9378  0.6055  1.0188
  127MOL   C34448476   7.503   6.962   0.452 -0.1303 -0.5391 -0.3905
  127MOL   C34548477   7.640   6.989   0.383 -0.1862  0.9497 -0.4911
  127MOL   O34648478   7.619   7.012   0.239  0.0347 -0.1032  0.2315
  127MOL   C34748479   7.668   6.907   0.160  0.6027  1.0085 -0.1494
  127MOL   C34848480   7.625   6.913   0.013  0.0107  0.5350  0.2892
  127MOL   C34948481   7.666   6.790   7.754  0.2709  0.1276 -0.1354
  127MOL   C35048482   7.658   7.043   7.773 -0.7468  0.1785  0.7329
  127MOL   H35148483   7.447   7.056   0.450  2.1240  0.8397 -1.1520
  127MOL   H35248484   7.446   6.894   0.389  1.3417 -0.4734 -1.8235
  127MOL   H35348485   7.712   6.907   0.394  2.0834  2.7150 -1.7385
  127MOL   H35448486   7.626   6.818   0.208  0.5556  0.9049 -0.3823
  127MOL   H35548487   7.775   6.886   0.161  1.0111  2.9722 -0.6756
  127MOL   H35648488   7.517   6.912   0.018 -0.0472  0.8845 -0.7323
  127MOL   H35748489   7.774   6.780   7.758  0.2050 -1.0401 -0.8036
  127MOL   H35848490   7.638   6.816   7.652  2.4403  0.3044 -0.7102
  127MOL   H35948491   7.631   6.690   7.781 -0.5531  0.4099 -0.1225
  127MOL   H36048492   7.633   7.122   0.019 -1.0824  1.1411 -0.4451
  127MOL   H36148493   7.761   7.062   7.743 -0.7210 -0.2346  0.5622
  127MOL   H36248494   7.603   7.056   7.679  0.3665 -1.7692 -0.2088
  127MOL   C36348495   7.698   7.125   0.434  0.1029  0.0086 -0.1536
  127MOL   C36448496   0.015   7.150   0.384  1.2651  0.1125  0.8770
  127MOL   O36548497   0.107   7.073   0.457 -0.0991 -0.0097  0.8876
  127MOL   C36648498   0.238   7.094   0.415 -0.5375  0.1895 -0.3205
  127MOL   C36748499   0.330   6.994   0.489  0.4950  0.7685 -0.1551
  127MOL   C36848500   0.291   6.985   0.641 -0.4716  0.2372  0.2786
  127MOL   C36948501   0.474   7.049   0.469 -0.5825  0.1917 -0.7839
  127MOL   H37048502   7.630   7.208   0.413  0.0971  0.2913  0.9634
  127MOL   H37148503   7.698   7.123   0.543  0.5381 -0.8921 -0.1640
  127MOL   H37248504   0.052   7.252   0.378  0.8160  0.1876 -1.3726
  127MOL   H37348505   0.249   7.092   0.307 -0.1908  2.0920 -0.3506
  127MOL   H37448506   0.266   7.199   0.430  2.0378 -0.3081 -1.4260
  127MOL   H37548507   0.323   6.894   0.447  0.3812  0.0295  1.5770
  127MOL   H37648508   0.209   6.918   0.665 -0.8110  0.8080  0.7301
  127MOL   H37748509   0.260   7.084   0.676 -2.2390 -1.2322  3.0856
  127MOL   H37848510   0.366   6.940   0.705 -0.3616  0.1511  0.0875
  127MOL   H37948511   0.537   6.962   0.483  0.9393  1.0510 -2.1037
  127MOL   H38048512   0.508   7.127   0.537  1.2309 -2.1141  1.0539
  127MOL   H38148513   0.504   7.078   0.368  0.2518 -1.4311 -1.0103
  127MOL   H38248514   0.011   7.116   0.280 -0.8006  0.6111  0.7579
  128MOL     C148515   7.441   0.570   6.259  0.1856 -0.6319  0.0978
  128MOL     C248516   7.509   0.603   6.122 -0.0014 -0.4611 -0.2300
  128MOL     O348517   7.640   0.553   6.126 -0.5498 -0.3812  0.4868
  128MOL     C448518   7.740   0.655   6.147  0.2619 -0.1420 -0.1185
  128MOL     C548519   0.057   0.598   6.125  0.1030 -0.0274  0.7704
  128MOL     C648520   0.088   0.509   6.245  0.7580 -0.7136  0.0574
  128MOL     C748521   0.176   0.699   6.116  0.3959 -0.2757 -0.3361
  128MOL     H848522   7.491   0.623   6.340 -0.2448  1.0858 -0.7287
  128MOL     H948523   7.338   0.606   6.247  0.6741  0.6051 -0.4112
  128MOL    H1048524   7.493   0.711   6.112 -0.6768 -0.3818  1.6256
  128MOL    H1148525   7.726   0.686   6.250  0.1578 -0.1808 -0.1219
  128MOL    H1248526   7.731   0.738   6.077  0.4002  1.1055  1.3128
  128MOL    H1348527   0.068   0.536   6.036  1.6911 -0.9903  1.6046
  128MOL    H1448528   0.001   0.453   6.279 -0.2363 -0.3869 -1.8684
  128MOL    H1548529   0.170   0.438   6.237  0.9340 -0.7503  1.9199
  128MOL    H1648530   0.115   0.578   6.325 -2.2202  2.2547 -1.3850
  128MOL    H1748531   0.268   0.647   6.089  1.1567  0.7829  0.1811
  128MOL    H1848532   0.162   0.781   6.046  2.2278  2.2869  2.1673
  128MOL    H1948533   0.184   0.739   6.218  0.3796  0.1716 -0.5088
  128MOL    H2048534   7.438   0.463   6.278 -3.0090 -0.3206  1.7100
  128MOL    C2148535   7.438   0.537   6.000 -0.3088  0.3784 -0.6407
  128MOL    C2248536   7.513   0.574   5.870  0.1907  0.7016  0.2434
  128MOL    O2348537   7.526   0.461   5.785 -0.0863  0.4108 -0.5903
  128MOL    C2448538   7.612   0.356   5.833  0.0437  0.3176 -0.1960
  128MOL    C2548539   7.630   0.246   5.731 -0.2444  0.5468 -0.0414
  128MOL    C2648540   7.740   0.154   5.777  0.4779 -0.5864  0.0264
  128MOL    C2748541   7.499   0.159   5.716 -0.5691 -0.1302  0.4995
  128MOL    H2848542   7.443   0.430   6.019  3.1485  0.6417  0.2612
  128MOL    H2948543   7.332   0.562   5.986 -0.5813 -0.2669  0.2222
  128MOL    H3048544   7.618   0.602   5.882  0.2654  0.5766 -0.0983
  128MOL    H3148545   7.563   0.308   5.917  0.7944  0.4556  0.3203
  128MOL    H3248546   7.705   0.400   5.869  0.0934  0.5362 -0.5820
  128MOL    H3348547   7.666   0.288   5.637 -0.5951 -0.0654 -0.4551
  128MOL    H3448548   0.008   0.211   5.786 -0.5239  0.7839  2.0080
  128MOL    H3548549   7.754   0.083   5.695  0.0741  0.9856 -1.4334
  128MOL    H3648550   7.721   0.106   5.873 -0.9534 -0.6067 -0.2666
  128MOL    H3748551   7.422   0.234   5.694 -0.3510 -0.0621 -0.0285
  128MOL    H3848552   7.503   0.086   5.635 -0.0062 -0.9852  1.2933
  128MOL    H3948553   7.474   0.108   5.809  2.0908 -1.2641  0.6375
  128MOL    C4048554   7.441   0.680   5.790 -0.7839 -0.0953 -0.2532
  128MOL    C4148555   7.438   0.831   5.828 -0.7965  0.2029 -0.2112
  128MOL    O4248556   7.322   0.874   5.898 -0.0692  0.8425  0.1428
  128MOL    C4348557   7.364   0.986   5.981 -0.1483 -0.2676 -0.9311
  128MOL    C4448558   7.232   1.048   6.033 -0.0145  0.8868  0.2552
  128MOL    C4548559   7.141   1.110   5.920 -0.1392 -0.1260  0.3727
  128MOL    C4648560   7.149   0.948   6.122 -0.4788  0.3328  1.2102
  128MOL    H4748561   7.334   0.662   5.786 -1.0550  1.5711 -1.2389
  128MOL    H4848562   7.475   0.669   5.687  1.4193 -0.9256  0.5427
  128MOL    H4948563   7.533   0.844   5.880 -1.3335  0.1144  0.8205
  128MOL    H5048564   7.407   1.065   5.919 -0.6387 -0.1375 -1.1126
  128MOL    H5148565   7.423   0.950   6.065 -0.4978 -0.0777 -0.6023
  128MOL    H5248566   7.258   1.133   6.096 -0.2328  0.9174  0.3016
  128MOL    H5348567   7.126   1.043   5.835  0.3811  0.9790 -0.6103
  128MOL    H5448568   7.043   1.142   5.955  0.2073  0.4912  0.7829
  128MOL    H5548569   7.198   1.192   5.876 -0.2895 -0.1717  0.0853
  128MOL    H5648570   7.128   0.863   6.057  0.8892  1.2184 -0.4285
  128MOL    H5748571   7.056   0.992   6.159 -2.0030 -1.5371 -0.2717
  128MOL    H5848572   7.205   0.920   6.211 -0.6119 -0.2622  1.1090
  128MOL    C5948573   7.449   0.910   5.695  0.4341  0.0332 -0.4846
  128MOL    C6048574   7.585   0.922   5.627  0.1556  0.3176 -0.0938
  128MOL    O6148575   7.659   1.022   5.695  0.7907  0.2649  0.0133
  128MOL    C6248576   7.782   0.981   5.739 -0.3280  0.5754  0.5765
  128MOL    C6348577   0.048   1.102   5.780 -0.6656 -0.0400 -0.2696
  128MOL    C6448578   0.001   1.169   5.916 -0.1100  0.2881 -1.1577
  128MOL    C6548579   0.201   1.067   5.782  0.0437 -0.6106 -0.4089
  128MOL    H6648580   7.401   1.007   5.688 -1.1684 -0.8789 -2.7638
  128MOL    H6748581   7.394   0.857   5.617  2.3352  1.0294 -2.5376
  128MOL    H6848582   7.630   0.824   5.646 -0.4407 -0.0005 -0.3395
  128MOL    H6948583   7.778   0.916   5.827  1.8920 -1.9795 -1.0889
  128MOL    H7048584   0.011   0.916   5.669 -2.2315  0.7417 -1.0765
  128MOL    H7148585   0.045   1.175   5.699 -1.4387 -0.3399 -0.5185
  128MOL    H7248586   0.005   1.104   6.004  0.6033 -0.2728 -1.5955
  128MOL    H7348587   7.723   1.203   5.901 -0.4782  0.2800  1.1691
  128MOL    H7448588   0.050   1.262   5.945 -0.2980  1.0222 -3.1326
  128MOL    H7548589   0.228   1.004   5.867 -1.4444 -0.9907 -0.2064
  128MOL    H7648590   0.227   1.000   5.700 -1.8220 -0.8927 -0.7982
  128MOL    H7748591   0.260   1.158   5.775  0.2239 -0.6060  0.9902
  128MOL    C7848592   7.578   0.965   5.479  0.1892  0.0092 -0.3061
  128MOL    C7948593   7.717   0.974   5.413  0.2938  0.1487  0.3487
  128MOL    O8048594   7.718   0.933   5.277  0.3663 -0.5464  0.3553
  128MOL    C8148595   7.729   0.787   5.265 -0.1523 -0.3554  0.8575
  128MOL    C8248596   7.676   0.753   5.131 -0.1754  0.1279 -0.5743
  128MOL    C8348597   7.656   0.596   5.100  0.2523  0.1232 -0.3123
  128MOL    C8448598   7.770   0.826   5.031  0.6135  0.0498 -1.0203
  128MOL    H8548599   7.515   1.054   5.474 -1.2404 -0.9796 -0.3906
  128MOL    H8648600   7.522   0.886   5.427 -0.9790  0.3315  0.4386
  128MOL    H8748601   7.786   0.909   5.466 -1.2397 -0.8495  1.1785
  128MOL    H8848602   0.010   0.763   5.278 -0.0004 -0.3207 -0.2516
  128MOL    H8948603   7.673   0.745   5.348 -0.7858 -0.3992  0.4071
  128MOL    H9048604   7.574   0.791   5.125  0.1352  1.0380 -0.0191
  128MOL    H9148605   7.613   0.588   5.000  0.4759 -2.8432 -0.2220
  128MOL    H9248606   7.579   0.545   5.158  1.8656 -0.7462  1.1043
  128MOL    H9348607   7.745   0.534   5.116 -0.2496  0.0196  2.2113
  128MOL    H9448608   7.745   0.801   4.928  3.3576  1.5337 -2.1238
  128MOL    H9548609   0.051   0.819   5.059  0.5268  2.5050  0.0051
  128MOL    H9648610   7.748   0.932   5.037 -0.2530 -0.2736  2.7651
  128MOL    C9748611   7.781   1.111   5.408 -0.2173 -0.5809  0.3550
  128MOL    C9848612   0.112   1.129   5.414  0.3052 -0.1177  0.1102
  128MOL    O9948613   0.163   1.258   5.458  0.0373  0.0019  0.6303
  128MOL   C10048614   0.087   1.376   5.415  0.2799  0.0411 -0.1042
  128MOL   C10148615   0.147   1.497   5.500  0.0862  0.2388  0.3573
  128MOL   C10248616   0.111   1.630   5.442 -0.5500  0.4731  0.5789
  128MOL   C10348617   0.110   1.482   5.649  0.3030  0.4674  0.1087
  128MOL   H10448618   7.752   1.169   5.495 -1.4790  0.0282 -0.4497
  128MOL   H10548619   7.746   1.170   5.323  2.7218 -0.9615 -1.1863
  128MOL   H10648620   0.133   1.054   5.491  0.9234 -0.1127 -0.0509
  128MOL   H10748621   7.804   1.367   5.428  0.3338 -2.3494 -1.0871
  128MOL   H10848622   0.098   1.391   5.308 -0.7949  2.7288  0.1197
  128MOL   H10948623   0.256   1.489   5.509 -0.1064 -1.9340  1.3113
  128MOL   H11048624   0.149   1.711   5.504  0.4213  0.5837 -0.1487
  128MOL   H11148625   0.169   1.645   5.351 -2.2088  2.3617 -0.2175
  128MOL   H11248626   0.004   1.634   5.417 -0.3259 -0.0499 -0.5127
  128MOL   H11348627   0.158   1.572   5.688  0.4048  1.4067 -2.0841
  128MOL   H11448628   0.004   1.500   5.663  0.0219 -0.5224 -0.7043
  128MOL   H11548629   0.146   1.389   5.693  0.6630  0.9659  0.8727
  128MOL   C11648630   0.188   1.095   5.279 -0.1992 -0.2313 -0.3718
  128MOL   C11748631   0.340   1.083   5.296  0.3601  0.1456  0.0573
  128MOL   O11848632   0.369   0.968   5.374 -0.5668  0.4642  0.3708
  128MOL   C11948633   0.460   0.986   5.484  0.2499  0.1628  0.4099
  128MOL   C12048634   0.455   0.864   5.577  0.0824 -0.5935 -0.8818
  128MOL   C12148635   0.513   0.740   5.509 -0.1382  0.2430  0.5173
  128MOL   C12248636   0.529   0.894   5.710  0.4806 -0.2773 -0.2128
  128MOL   H12348637   0.150   1.000   5.243 -0.9281  0.2145 -0.7784
  128MOL   H12448638   0.166   1.164   5.198  1.2179  0.0472 -0.5290
  128MOL   H12548639   0.380   1.179   5.331  0.2907 -0.1431  0.9580
  128MOL   H12648640   0.445   1.079   5.540 -0.0732  1.5255 -1.8850
  128MOL   H12748641   0.559   1.002   5.443  0.8915 -0.7099  1.6065
  128MOL   H12848642   0.353   0.838   5.606 -0.0129  0.4941 -0.2432
  128MOL   H12948643   0.621   0.748   5.494  0.3140 -1.4537  2.7263
  128MOL   H13048644   0.466   0.717   5.413  0.2297 -1.9635  0.8393
  128MOL   H13148645   0.510   0.653   5.574  1.1743 -1.3862 -1.5097
  128MOL   H13248646   0.517   0.806   5.773 -1.6893 -1.0299 -1.6223
  128MOL   H13348647   0.637   0.901   5.691  1.2402 -0.3308  3.6376
  128MOL   H13448648   0.498   0.983   5.764  0.0554 -1.4243  1.4574
  128MOL   C13548649   0.405   1.052   5.162 -0.2166  0.2708  0.3395
  128MOL   C13648650   0.420   1.161   5.058 -0.0724 -0.2346 -0.9246
  128MOL   O13748651   0.491   1.270   5.116  0.0995  0.6475  0.3044
  128MOL   C13848652   0.492   1.397   5.051 -0.1250 -0.3703  0.6199
  128MOL   C13948653   0.547   1.507   5.147  0.2917 -0.7339 -0.0403
  128MOL   C14048654   0.469   1.507   5.281 -0.5292  1.1472  0.0455
  128MOL   C14148655   0.695   1.496   5.192  0.1417 -0.9542  0.0424
  128MOL   H14248656   0.508   1.018   5.172 -0.8336 -1.6812  0.3003
  128MOL   H14348657   0.345   0.970   5.120 -0.5702  0.0074  1.3300
  128MOL   H14448658   0.317   1.194   5.046 -0.4991 -1.7561 -1.6828
  128MOL   H14548659   0.393   1.414   5.010 -0.7716 -0.1699  2.2232
  128MOL   H14648660   0.561   1.384   4.967 -0.4228 -0.0289  0.3208
  128MOL   H14748661   0.525   1.604   5.102 -3.6791 -1.3977  0.3120
  128MOL   H14848662   0.360   1.496   5.283 -0.2624 -1.8046  2.3792
  128MOL   H14948663   0.490   1.601   5.332 -2.1513  1.4946  0.1188
  128MOL   H15048664   0.504   1.429   5.349 -0.8069 -0.7464 -1.9383
  128MOL   H15148665   0.732   1.397   5.218 -1.5042 -0.9142  2.6442
  128MOL   H15248666   0.760   1.534   5.113 -0.1031  1.2832  0.8851
  128MOL   H15348667   0.720   1.567   5.270 -0.9375 -2.3862  1.7101
  128MOL   C15448668   0.475   1.100   4.919  0.2149  0.2181 -0.0537
  128MOL   C15548669   0.367   1.032   4.834  0.1231  0.1018 -0.4959
  128MOL   O15648670   0.272   1.126   4.796  0.0669 -0.7649  0.4063
  128MOL   C15748671   0.133   1.098   4.827 -0.6492 -0.1503 -0.4172
  128MOL   C15848672   0.056   1.230   4.817  0.6055  0.0227 -0.4248
  128MOL   C15948673   7.731   1.199   4.830  0.0834  0.9840 -0.0831
  128MOL   C16048674   0.093   1.331   4.920  0.2130  0.2804 -0.1314
  128MOL   H16148675   0.567   1.044   4.934  0.3152  0.7878  1.5340
  128MOL   H16248676   0.507   1.189   4.865  2.3141 -0.7885 -0.4985
  128MOL   H16348677   0.317   0.952   4.888 -2.6955  0.5549 -2.3579
  128MOL   H16448678   0.115   1.051   4.923 -1.0228 -0.7731 -0.7867
  128MOL   H16548679   0.107   1.034   4.742 -1.9593 -0.7439  0.4289
  128MOL   H16648680   0.080   1.278   4.722  3.3108  2.3586  1.3649
  128MOL   H16748681   7.705   1.134   4.913  0.4534  1.6498  0.5566
  128MOL   H16848682   7.693   1.161   4.735  3.5545 -1.9674 -0.3869
  128MOL   H16948683   7.681   1.295   4.842 -0.2924  0.8818 -0.7894
  128MOL   H17048684   0.088   1.290   5.021 -0.1698  1.2816  0.2605
  128MOL   H17148685   0.190   1.376   4.900  0.2444 -0.3939 -1.5425
  128MOL   H17248686   0.018   1.410   4.920  0.2794  0.3640  1.7654
  128MOL   C17348687   0.428   0.967   4.710 -0.4314  0.7021  1.1119
  128MOL   C17448688   0.344   0.885   4.613 -0.5333  0.7309  0.6012
  128MOL   O17548689   0.434   0.828   4.509  0.1165  0.2407 -0.5141
  128MOL   C17648690   0.395   0.879   4.385  0.1190  0.0891 -0.9252
  128MOL   C17748691   0.490   0.835   4.271 -0.8568  0.8689 -0.4885
  128MOL   C17848692   0.455   0.899   4.138  0.6781  0.0726 -0.5789
  128MOL   C17948693   0.633   0.868   4.302 -0.1382 -0.7009  0.8940
  128MOL   H18048694   0.466   1.045   4.643 -1.0978 -0.1507 -0.2845
  128MOL   H18148695   0.523   0.916   4.723 -0.5859 -0.0302 -0.5673
  128MOL   H18248696   0.268   0.951   4.571  0.2730  1.3595  0.1170
  128MOL   H18348697   0.391   0.987   4.394  1.0996  0.2936 -2.5964
  128MOL   H18448698   0.292   0.846   4.378 -0.7660  2.7835 -1.2035
  128MOL   H18548699   0.470   0.728   4.262  0.1719  0.4530  1.7922
  128MOL   H18648700   0.348   0.918   4.126  0.1402 -0.4164  2.7950
  128MOL   H18748701   0.503   0.997   4.134 -2.7268  1.8166 -0.3329
  128MOL   H18848702   0.500   0.844   4.056  2.7200  4.1475 -2.3270
  128MOL   H18948703   0.642   0.976   4.312  1.4369 -0.4301 -2.6652
  128MOL   H19048704   0.704   0.854   4.220  0.0565  1.5975  0.6479
  128MOL   H19148705   0.668   0.814   4.390 -0.3320 -0.9102  0.8454
  128MOL   C19248706   0.263   0.771   4.686 -0.6144  0.3835 -0.3624
  128MOL   C19348707   0.333   0.686   4.796  0.0948  0.0632  0.1024
  128MOL   O19448708   0.351   0.557   4.748  0.0250  0.0875 -0.6895
  128MOL   C19548709   0.448   0.544   4.647  0.3608  0.6179  0.9232
  128MOL   C19648710   0.502   0.402   4.634 -0.0711 -0.1513  0.0779
  128MOL   C19748711   0.611   0.379   4.521  0.1849  0.5083 -0.1795
  128MOL   C19848712   0.397   0.294   4.614  0.2881 -0.8901  0.1005
  128MOL   H19948713   0.217   0.703   4.614 -0.9949 -0.6250  0.8117
  128MOL   H20048714   0.178   0.822   4.731 -0.1117  2.3610 -1.6489
  128MOL   H20148715   0.429   0.724   4.829 -0.3113  0.8443  0.3984
  128MOL   H20248716   0.531   0.609   4.676 -0.0157  2.1958 -1.3659
  128MOL   H20348717   0.406   0.577   4.552 -3.3512 -1.2561  1.8568
  128MOL   H20448718   0.553   0.382   4.729 -0.4557 -3.8641 -0.4242
  128MOL   H20548719   0.697   0.446   4.526 -0.6793  1.4935  2.6820
  128MOL   H20648720   0.650   0.277   4.523 -1.5489 -0.2007  4.4151
  128MOL   H20748721   0.563   0.405   4.427 -0.9585  4.1393  1.3095
  128MOL   H20848722   0.340   0.310   4.523  1.5017 -0.5366 -0.6161
  128MOL   H20948723   0.432   0.191   4.604 -1.2308 -1.5473  1.3141
  128MOL   H21048724   0.323   0.299   4.694  2.3091  1.6310  1.8955
  128MOL   C21148725   0.248   0.670   4.928  0.0186  0.1706  0.0096
  128MOL   C21248726   0.315   0.580   5.024  0.1222  0.3982 -1.2554
  128MOL   O21348727   0.431   0.650   5.074 -0.5278  0.2188 -0.7157
  128MOL   C21448728   0.551   0.580   5.058  0.1095 -0.2551  0.8566
  128MOL   C21548729   0.671   0.671   5.087  0.3556 -0.0336 -0.0096
  128MOL   C21648730   0.667   0.731   5.232 -0.1336  0.1062  0.0661
  128MOL   C21748731   0.797   0.590   5.074  0.4985 -0.8257 -0.2975
  128MOL   H21848732   0.154   0.626   4.895  0.0316  0.5541 -0.5525
  128MOL   H21948733   0.232   0.769   4.971  0.1467  0.3651 -0.3877
  128MOL   H22048734   0.340   0.485   4.976 -0.3223 -0.3314 -0.0792
  128MOL   H22148735   0.553   0.561   4.951 -1.8390 -1.1216  0.9488
  128MOL   H22248736   0.548   0.480   5.103 -2.6872  0.4791  2.4013
  128MOL   H22348737   0.676   0.756   5.019  3.3005 -0.2821 -0.1671
  128MOL   H22448738   0.652   0.650   5.304 -3.2768  1.0255  0.5480
  128MOL   H22548739   0.758   0.787   5.251  1.6547 -2.8552  0.5175
  128MOL   H22648740   0.585   0.803   5.241  0.7654  1.0040  1.2004
  128MOL   H22748741   0.805   0.503   5.138 -0.0907 -0.7161 -0.0773
  128MOL   H22848742   0.886   0.647   5.102 -0.1617  0.9153 -1.6406
  128MOL   H22948743   0.811   0.554   4.972 -1.3387 -1.9829 -0.1579
  128MOL   C23048744   0.217   0.556   5.147 -0.0469  0.4908  1.2036
  128MOL   C23148745   0.277   0.491   5.271  0.1118  0.0302  0.0735
  128MOL   O23248746   0.185   0.478   5.376 -0.0225 -0.5132  0.4255
  128MOL   C23348747   0.198   0.556   5.488 -0.1449  0.2956 -0.4875
  128MOL   C23448748   0.080   0.525   5.583 -0.5349 -0.3513 -0.1959
  128MOL   C23548749   0.100   0.591   5.724 -0.6766  0.1685  0.6479
  128MOL   C23648750   7.776   0.579   5.519 -0.0980 -0.8920 -0.4525
  128MOL   H23748751   0.136   0.492   5.112 -0.2756  2.0303 -1.1976
  128MOL   H23848752   0.178   0.654   5.174 -1.5241  0.2912 -0.1380
  128MOL   H23948753   0.361   0.558   5.289  0.1390  0.9588 -3.2244
  128MOL   H24048754   0.295   0.531   5.531 -0.7569  0.6858  1.1542
  128MOL   H24148755   0.200   0.661   5.457 -1.3869  0.4482 -0.0588
  128MOL   H24248756   0.071   0.416   5.591 -0.0556 -0.4743 -1.2473
  128MOL   H24348757   0.111   0.698   5.709 -0.0319  0.0927  0.5890
  128MOL   H24448758   0.200   0.563   5.757 -0.8247  0.2563  1.1817
  128MOL   H24548759   0.027   0.572   5.803 -0.2447 -1.4530  0.6718
  128MOL   H24648760   7.689   0.554   5.579  0.3186 -0.9509  0.1293
  128MOL   H24748761   7.780   0.688   5.514 -0.8348 -0.8562 -0.2833
  128MOL   H24848762   7.766   0.540   5.417 -1.7611  0.0763 -0.6757
  128MOL   C24948763   0.334   0.346   5.248  0.1794 -0.0754  0.3926
  128MOL   C25048764   0.405   0.284   5.370 -0.0619  1.1215 -0.0316
  128MOL   O25148765   0.425   0.154   5.329  0.3516 -0.1510 -0.0726
  128MOL   C25248766   0.374   0.053   5.413 -0.1825 -0.5569 -0.0431
  128MOL   C25348767   0.420   7.747   5.346 -0.5657 -0.1193 -0.4697
  128MOL   C25448768   0.335   7.620   5.380  0.0680 -0.8575 -0.4641
  128MOL   C25548769   0.569   7.723   5.386 -0.4670 -0.2822 -0.0972
  128MOL   H25648770   0.392   0.329   5.157 -1.7094  2.6411 -1.3865
  128MOL   H25748771   0.247   0.281   5.236  1.1170 -1.0475 -1.3018
  128MOL   H25848772   0.336   0.291   5.454 -1.5235  0.4349 -1.1454
  128MOL   H25948773   0.409   0.054   5.517  0.4044 -2.8375 -0.2090
  128MOL   H26048774   0.265   0.053   5.423 -0.0005 -2.3642  2.3345
  128MOL   H26148775   0.429   7.761   5.238  0.5523 -0.9973 -0.5025
  128MOL   H26248776   0.318   7.594   5.484  1.1399 -0.5411 -0.2010
  128MOL   H26348777   0.387   7.528   5.353 -0.1714 -1.7995  2.1514
  128MOL   H26448778   0.241   7.603   5.328  0.7199 -3.4658 -0.8639
  128MOL   H26548779   0.639   7.796   5.345 -0.5666  0.1958  0.5688
  128MOL   H26648780   0.587   7.715   5.493  0.7016 -2.6929 -0.4442
  128MOL   H26748781   0.588   7.623   5.348 -0.6186  0.0827 -1.1693
  128MOL   C26848782   0.538   0.364   5.391 -0.4480  0.5841 -0.7771
  128MOL   C26948783   0.612   0.311   5.516  0.3814 -0.6386 -0.5055
  128MOL   O27048784   0.533   0.353   5.623 -0.1732 -0.2209  0.5471
  128MOL   C27148785   0.540   0.271   5.732 -0.2375 -0.0519 -0.4641
  128MOL   C27248786   0.427   0.309   5.823 -0.3050 -0.5745  0.0328
  128MOL   C27348787   0.436   0.457   5.874 -0.1379 -0.0026  0.5086
  128MOL   C27448788   0.291   0.277   5.763 -0.1569 -0.1312 -0.8186
  128MOL   H27548789   0.532   0.472   5.402  1.3392  0.5991  0.1784
  128MOL   H27648790   0.610   0.342   5.313  1.3437 -0.5278  1.1272
  128MOL   H27748791   0.625   0.204   5.500  3.5376 -0.3972  0.1347
  128MOL   H27848792   0.527   0.164   5.722 -0.6328 -0.0858  0.3339
  128MOL   H27948793   0.637   0.281   5.781  1.1809 -2.7044 -2.6227
  128MOL   H28048794   0.437   0.245   5.911 -0.0400  0.3112  0.6571
  128MOL   H28148795   0.358   0.473   5.948 -0.8224 -0.4686 -0.1033
  128MOL   H28248796   0.421   0.515   5.783  1.8900 -2.0920 -1.2283
  128MOL   H28348797   0.536   0.475   5.914  0.2712 -0.2996 -0.3687
  128MOL   H28448798   0.211   0.293   5.835 -0.4130  2.3881 -1.6366
  128MOL   H28548799   0.297   0.174   5.728  1.7351 -1.0190  1.8888
  128MOL   H28648800   0.274   0.334   5.672  2.8388 -0.5473 -1.6920
  128MOL   C28748801   0.762   0.360   5.543  0.9081  0.4593 -0.2518
  128MOL   C28848802   0.862   0.297   5.444  0.0031 -0.7385 -0.1187
  128MOL   O28948803   0.946   0.199   5.515  0.0747 -0.0690  0.5141
  128MOL   C29048804   0.900   0.065   5.507 -0.2911  0.4974  0.6609
  128MOL   C29148805   0.997   7.801   5.581  0.3023 -0.4703 -0.2940
  128MOL   C29248806   0.987   7.654   5.531 -0.0651 -0.1039 -0.3153
  128MOL   C29348807   0.966   7.810   5.731  0.1966 -0.2581 -0.6791
  128MOL   H29448808   0.801   0.327   5.639  3.3474  0.4163 -1.2141
  128MOL   H29548809   0.761   0.469   5.539  1.4494  0.4679 -0.1734
  128MOL   H29648810   0.821   0.245   5.357 -1.1933  0.4947 -0.3156
  128MOL   H29748811   0.797   0.053   5.540 -0.1657 -0.4236  0.7344
  128MOL   H29848812   0.897   0.036   5.402  1.8052  0.6485  0.5273
  128MOL   H29948813   1.099   0.012   5.568 -0.4389  1.0182 -2.3022
  128MOL   H30048814   1.034   7.594   5.609  0.4346  0.9741  0.2322
  128MOL   H30148815   1.035   7.640   5.435 -3.2826 -1.9375 -1.7452
  128MOL   H30248816   0.889   7.607   5.520 -1.0496  0.9138  3.2079
  128MOL   H30348817   1.012   7.735   5.796  0.6079  1.1466  0.6819
  128MOL   H30448818   0.995   0.086   5.762  1.0553 -0.4280 -0.9348
  128MOL   H30548819   0.861   7.802   5.761  0.5304 -2.8522 -0.0682
  128MOL   C30648820   0.947   0.407   5.388  0.2578 -0.0750 -0.5263
  128MOL   C30748821   1.058   0.371   5.285 -0.7110 -0.2291  0.3311
  128MOL   O30848822   1.011   0.320   5.156  0.0544  0.0955  0.4008
  128MOL   C30948823   1.084   0.210   5.110 -0.3454  0.7940 -0.3503
  128MOL   C31048824   1.100   0.220   4.965 -0.1930  0.0780 -0.2499
  128MOL   C31148825   1.200   0.319   4.913  0.3477  0.1467 -0.3912
  128MOL   C31248826   0.966   0.237   4.895  0.4662 -0.5519 -0.3831
  128MOL   H31348827   0.992   0.459   5.473  0.1186 -3.3571  1.6999
  128MOL   H31448828   0.880   0.474   5.335 -0.4595  0.9859  1.6550
  128MOL   H31548829   1.113   0.293   5.337 -2.3621 -2.2454 -0.8732
  128MOL   H31648830   1.040   0.113   5.133  0.3092 -0.0518 -2.5742
  128MOL   H31748831   1.178   0.201   5.164 -0.5932 -0.9415 -0.1861
  128MOL   H31848832   1.135   0.122   4.935  1.3239  0.6530 -0.3945
  128MOL   H31948833   1.295   0.289   4.957  1.7653  1.9277 -2.1665
  128MOL   H32048834   1.179   0.417   4.957  1.2544  0.1020  0.1482
  128MOL   H32148835   1.206   0.329   4.805 -0.4733 -1.3839 -0.5944
  128MOL   H32248836   0.914   0.326   4.930  0.2366 -1.1327  0.7757
  128MOL   H32348837   0.904   0.150   4.914 -1.1005  0.5256 -0.4403
  128MOL   H32448838   0.992   0.255   4.790 -0.0216  1.9503 -0.1242
  128MOL   C32548839   1.149   0.494   5.254 -1.3128  0.0349 -0.5043
  128MOL   C32648840   1.233   0.554   5.370  0.5821  0.3688 -0.2207
  128MOL   O32748841   1.313   0.457   5.439  0.2695 -0.0584  0.5546
  128MOL   C32848842   1.324   0.475   5.582  0.0603 -0.4552  0.2259
  128MOL   C32948843   1.385   0.348   5.633  0.6100  0.3705  0.4514
  128MOL   C33048844   1.293   0.219   5.602  0.3966  0.3038  0.9692
  128MOL   C33148845   1.528   0.329   5.583  0.1410  0.2032  0.1791
  128MOL   H33248846   1.084   0.575   5.219 -0.4976  0.7121 -0.4562
  128MOL   H33348847   1.222   0.465   5.179 -0.0254  0.6927  0.4851
  128MOL   H33448848   1.168   0.599   5.446  2.6392  2.5457  0.3103
  128MOL   H33548849   1.388   0.557   5.615  0.3358 -1.4173  2.1625
  128MOL   H33648850   1.225   0.494   5.624  0.6410 -0.9546  1.8971
  128MOL   H33748851   1.397   0.365   5.740  0.7799  1.2882  0.2920
  128MOL   H33848852   1.300   0.191   5.497  0.4243  1.0660  0.7603
  128MOL   H33948853   1.316   0.126   5.652  3.6191  0.5770  0.1158
  128MOL   H34048854   1.189   0.245   5.623 -0.0882  0.7040 -1.7198
  128MOL   H34148855   1.538   0.331   5.475 -0.6983 -2.5623  0.0025
  128MOL   H34248856   1.587   0.414   5.617 -0.6385  0.7582  0.1570
  128MOL   H34348857   1.569   0.231   5.609  3.7566  0.2451 -4.8014
  128MOL   C34448858   1.335   0.663   5.329 -0.2569 -0.1600  0.0051
  128MOL   C34548859   1.274   0.803   5.288  0.1222 -0.4189 -0.0628
  128MOL   O34648860   1.188   0.849   5.400 -0.0078 -0.3544 -0.2709
  128MOL   C34748861   1.068   0.926   5.359 -0.2310  0.7983 -0.4953
  128MOL   C34848862   0.961   0.908   5.467  0.2320  0.9754  0.2515
  128MOL   C34948863   1.004   0.981   5.595 -0.5669 -0.1656  0.2556
  128MOL   C35048864   0.922   0.763   5.507 -0.5946  0.0952  0.3983
  128MOL   H35148865   1.398   0.622   5.250 -1.6854 -1.1992 -0.6190
  128MOL   H35248866   1.400   0.667   5.417 -0.8219  0.5483  0.3980
  128MOL   H35348867   1.207   0.791   5.203  1.9061 -0.6499 -1.4704
  128MOL   H35448868   1.028   0.884   5.266  2.8866 -2.7310 -0.3375
  128MOL   H35548869   1.083   1.034   5.358 -0.1619  0.8417  2.4601
  128MOL   H35648870   0.880   0.968   5.425 -1.7192  0.0791  2.5998
  128MOL   H35748871   1.031   1.085   5.577  2.0928 -0.5289  1.7986
  128MOL   H35848872   1.080   0.927   5.652  0.2845  0.3051 -0.4329
  128MOL   H35948873   0.919   1.001   5.661 -1.1605  0.2120 -0.6184
  128MOL   H36048874   1.010   0.720   5.555  0.0458  0.0616 -0.8001
  128MOL   H36148875   0.837   0.756   5.576  0.2211 -2.1171  1.2237
  128MOL   H36248876   0.896   0.716   5.413 -2.2175 -0.7216  1.2357
  128MOL   C36348877   1.378   0.919   5.256  0.5920  0.9425 -0.4324
  128MOL   C36448878   1.325   1.059   5.220  0.1874  0.0724  1.1353
  128MOL   O36548879   1.437   1.142   5.171 -0.2560  0.6329  0.3617
  128MOL   C36648880   1.392   1.230   5.068  0.5074  0.0123 -0.3217
  128MOL   C36748881   1.469   1.364   5.071  0.1602 -0.4599  0.5770
  128MOL   C36848882   1.422   1.444   4.955 -0.0957 -0.1889 -0.3016
  128MOL   C36948883   1.618   1.337   5.076 -0.7384 -0.8353 -0.7604
  128MOL   H37048884   1.440   0.924   5.346  0.2575 -0.0582 -0.1314
  128MOL   H37148885   1.446   0.902   5.172  0.3325  1.8502 -0.8287
  128MOL   H37248886   1.284   1.116   5.304 -0.9968  0.6060  0.1981
  128MOL   H37348887   1.407   1.179   4.973  1.7673 -0.9616  0.3839
  128MOL   H37448888   1.285   1.250   5.070  0.9557  2.4813  0.9177
  128MOL   H37548889   1.438   1.406   5.167  1.7561 -1.9671  1.7911
  128MOL   H37648890   1.322   1.486   4.966  0.1424  0.3325 -0.1401
  128MOL   H37748891   1.423   1.378   4.868 -0.0652  0.5916 -0.8946
  128MOL   H37848892   1.500   1.516   4.932  0.6278 -1.3983 -1.7759
  128MOL   H37948893   1.661   1.281   4.992 -0.8720 -1.9386 -0.1008
  128MOL   H38048894   1.644   1.294   5.172 -0.7185  1.0609  0.1074
  128MOL   H38148895   1.667   1.434   5.086  0.7528 -1.7286  0.8343
  128MOL   H38248896   1.250   1.041   5.144  0.8254  1.8336  0.0433
  129MOL     C148897   6.072   0.898   4.869 -0.2652  0.0332  0.7418
  129MOL     C248898   6.169   1.003   4.925 -0.0879 -0.1483  0.5900
  129MOL     O348899   6.187   1.100   4.825 -0.0488  0.2987  0.1706
  129MOL     C448900   6.314   1.105   4.761  0.2894  0.0878 -0.0383
  129MOL     C548901   6.309   1.212   4.653  0.1548  0.5357  0.1007
  129MOL     C648902   6.425   1.225   4.555 -0.1837 -0.3308 -0.2995
  129MOL     C748903   6.283   1.354   4.711 -0.1216 -0.0859  0.4664
  129MOL     H848904   6.059   0.805   4.925 -1.9908  0.5495  1.2521
  129MOL     H948905   5.973   0.936   4.842 -0.2749  0.1066  0.8789
  129MOL    H1048906   6.273   0.981   4.950  0.4312  1.6677  0.1059
  129MOL    H1148907   6.329   1.009   4.711  1.1329  1.3303 -2.2490
  129MOL    H1248908   6.389   1.114   4.840 -0.8627 -1.7265  1.3119
  129MOL    H1348909   6.217   1.194   4.597  0.7688  0.1527 -0.7734
  129MOL    H1448910   6.507   1.271   4.609 -1.3272  1.2301  0.1245
  129MOL    H1548911   6.448   1.124   4.522 -0.4949 -1.4763  2.8556
  129MOL    H1648912   6.395   1.274   4.462  3.2627  0.4488 -1.0878
  129MOL    H1748913   6.186   1.359   4.762 -0.2319 -1.4161  0.3998
  129MOL    H1848914   6.361   1.377   4.783 -0.1367 -1.2004  0.8335
  129MOL    H1948915   6.262   1.425   4.631  0.9322  0.4464  0.6610
  129MOL    H2048916   6.114   0.869   4.773 -1.5775  0.9169 -0.1358
  129MOL    C2148917   6.115   1.072   5.057 -0.2241  0.5957 -0.3196
  129MOL    C2248918   6.106   0.976   5.175 -0.1842  0.6222 -0.1799
  129MOL    O2348919   6.247   0.950   5.217  0.3065  0.5859 -0.1244
  129MOL    C2448920   6.286   0.815   5.189 -0.3826 -0.3348 -0.0584
  129MOL    C2548921   6.442   0.797   5.196  0.1214 -0.6049  0.7522
  129MOL    C2648922   6.517   0.904   5.112  0.4127 -0.5411  0.4695
  129MOL    C2748923   6.486   0.796   5.344 -0.2286  0.1124 -0.3184
  129MOL    H2848924   6.165   1.161   5.094 -1.1230  0.6068  0.8917
  129MOL    H2948925   6.016   1.108   5.030 -0.6411 -0.4762 -0.2562
  129MOL    H3048926   6.045   0.891   5.145  1.0169  1.2650 -4.8144
  129MOL    H3148927   6.254   0.777   5.092 -1.5186 -0.5711  0.4067
  129MOL    H3248928   6.241   0.748   5.261  0.2414 -0.7644 -0.0593
  129MOL    H3348929   6.445   0.696   5.154  1.2733 -0.3450  0.1667
  129MOL    H3448930   6.496   1.003   5.152  1.0388  0.2441 -1.1051
  129MOL    H3548931   6.473   0.886   5.014 -1.1412 -2.8254  1.5270
  129MOL    H3648932   6.625   0.892   5.111  0.4531 -0.3826 -3.3207
  129MOL    H3748933   6.428   0.741   5.418  2.1972 -0.3949  1.2623
  129MOL    H3848934   6.577   0.736   5.348 -0.6314 -0.5299 -0.6460
  129MOL    H3948935   6.520   0.893   5.380 -1.2183  0.5051 -0.4283
  129MOL    C4048936   6.057   1.042   5.310 -0.1661  0.8718 -0.5754
  129MOL    C4148937   5.911   1.094   5.312 -0.4232  0.7388 -0.5021
  129MOL    O4248938   5.876   1.166   5.436  0.5635 -0.2993  0.0066
  129MOL    C4348939   5.960   1.284   5.464 -0.5909  0.1365  0.3009
  129MOL    C4448940   5.907   1.345   5.597 -0.2094  0.9891 -0.4516
  129MOL    C4548941   5.759   1.378   5.588 -0.6038  0.0563 -0.1493
  129MOL    C4648942   5.936   1.244   5.712 -0.3839  0.1425 -0.0829
  129MOL    H4748943   6.138   1.113   5.329  0.1093  0.1101  1.2265
  129MOL    H4848944   6.067   0.975   5.395  0.3528  2.0803  0.3399
  129MOL    H4948945   5.903   1.165   5.230 -1.1309  0.5224 -0.6275
  129MOL    H5048946   5.951   1.356   5.383  1.2108  0.7497  0.6256
  129MOL    H5148947   6.068   1.280   5.479 -0.5288 -0.2344 -0.2525
  129MOL    H5248948   5.955   1.438   5.627 -0.2601  0.7485  0.3968
  129MOL    H5348949   5.725   1.446   5.510 -0.3514  1.1576  0.6936
  129MOL    H5448950   5.705   1.289   5.555 -0.3216 -0.4709  0.7926
  129MOL    H5548951   5.740   1.392   5.694  0.0034 -3.0330  0.4105
  129MOL    H5648952   6.036   1.205   5.690 -0.4351  1.0819 -2.0874
  129MOL    H5748953   5.868   1.163   5.736 -1.9845  1.5309  0.1274
  129MOL    H5848954   5.938   1.306   5.802  1.2959 -1.6385  1.1522
  129MOL    C5948955   5.809   0.977   5.285  0.2374 -0.6753  0.1344
  129MOL    C6048956   5.659   1.020   5.277 -0.9043  0.0326 -0.5477
  129MOL    O6148957   5.601   0.894   5.269 -0.0619 -0.3330 -0.6206
  129MOL    C6248958   5.484   0.880   5.352 -0.2653  0.0557  0.4876
  129MOL    C6348959   5.435   0.732   5.358 -0.0888  0.0024 -0.0852
  129MOL    C6448960   5.411   0.671   5.227  0.5591 -0.1539  0.1727
  129MOL    C6548961   5.535   0.633   5.432 -0.3381 -0.7289  0.1097
  129MOL    H6648962   5.830   0.915   5.373  0.0069 -0.9773 -0.0224
  129MOL    H6748963   5.833   0.921   5.194 -0.3478  0.2714 -0.6082
  129MOL    H6848964   5.630   1.080   5.364  1.5782  2.6804 -1.4541
  129MOL    H6948965   5.488   0.908   5.457  1.5109  1.9954 -0.0580
  129MOL    H7048966   5.406   0.939   5.303  0.6166 -0.2965 -1.3937
  129MOL    H7148967   5.340   0.746   5.409  0.3537  1.9369  0.2430
  129MOL    H7248968   5.323   0.714   5.180  1.0375 -0.8836 -1.4343
  129MOL    H7348969   5.381   0.567   5.236  1.3856 -0.4970 -0.8172
  129MOL    H7448970   5.493   0.688   5.156 -1.0356  0.9155 -1.4657
  129MOL    H7548971   5.559   0.654   5.536 -1.5377 -0.7749  0.4024
  129MOL    H7648972   5.484   0.538   5.443 -2.8557  0.5672  0.1338
  129MOL    H7748973   5.627   0.632   5.373  0.4972  2.0132  1.2607
  129MOL    C7848974   5.630   1.110   5.151 -0.5312 -1.0061  0.0685
  129MOL    C7948975   5.489   1.132   5.094  0.0403  0.2075  0.4554
  129MOL    O8048976   5.479   1.254   5.023 -0.3466 -0.1912 -0.2750
  129MOL    C8148977   5.458   1.379   5.088  0.6270 -0.3819  0.1750
  129MOL    C8248978   5.537   1.490   5.013  0.3485  0.5374  0.0244
  129MOL    C8348979   5.503   1.480   4.865  0.2464  0.2039 -0.4251
  129MOL    C8448980   5.686   1.495   5.033 -0.1223  0.6105 -0.3372
  129MOL    H8548981   5.683   1.067   5.066  0.8004  3.2425 -1.3618
  129MOL    H8648982   5.665   1.209   5.182 -0.6768 -1.4143  1.5812
  129MOL    H8748983   5.422   1.132   5.179 -0.2536 -1.0522  0.2387
  129MOL    H8848984   5.351   1.398   5.092  0.7351  0.4200 -0.6485
  129MOL    H8948985   5.481   1.386   5.195 -2.3305  1.2413  0.7578
  129MOL    H9048986   5.499   1.585   5.049 -0.7937 -0.0452  0.3785
  129MOL    H9148987   5.518   1.568   4.803 -0.1603 -0.1124 -0.9774
  129MOL    H9248988   5.400   1.447   4.851  0.1102  0.1686  0.6261
  129MOL    H9348989   5.567   1.398   4.832 -1.4410 -0.0678 -3.1152
  129MOL    H9448990   5.714   1.525   5.134  1.3418 -2.1998  0.1335
  129MOL    H9548991   5.727   1.567   4.962 -1.4028  0.6620 -1.0437
  129MOL    H9648992   5.740   1.405   5.003  0.0950  0.2995  0.9571
  129MOL    C9748993   5.450   1.013   5.006 -0.2274 -0.2751 -0.4340
  129MOL    C9848994   5.306   1.019   4.960 -0.2221  0.0729  0.0773
  129MOL    O9948995   5.232   0.990   5.074 -0.6054  0.7930  0.3254
  129MOL   C10048996   5.124   1.065   5.115 -0.1088 -0.1186  0.1582
  129MOL   C10148997   5.052   0.999   5.232  0.2384  0.1451  0.2065
  129MOL   C10248998   4.947   1.087   5.297 -0.9283  0.1595  0.4684
  129MOL   C10348999   4.985   0.861   5.182 -0.3504  0.2860  0.2700
  129MOL   H10449000   5.464   0.913   5.047 -2.0494 -0.2638  0.2602
  129MOL   H10549001   5.509   1.020   4.914 -1.7918  0.0489 -1.4276
  129MOL   H10649002   5.281   1.119   4.925  1.1746  0.9388  1.4674
  129MOL   H10749003   5.056   1.072   5.030  0.5085 -0.3585 -0.3632
  129MOL   H10849004   5.160   1.165   5.137 -0.7140  0.0446  0.4281
  129MOL   H10949005   5.130   0.975   5.305  0.3310  0.5950  0.2573
  129MOL   H11049006   4.970   1.186   5.337 -1.8626 -0.4906  2.6700
  129MOL   H11149007   4.866   1.103   5.225 -1.8774  3.0382  2.1158
  129MOL   H11249008   4.906   1.030   5.380  2.7886  1.2812  3.1758
  129MOL   H11349009   4.954   0.803   5.269 -0.1831 -0.7959 -0.3788
  129MOL   H11449010   4.898   0.886   5.121 -0.7555  0.1622  0.7867
  129MOL   H11549011   5.050   0.799   5.121 -1.3930  0.4164 -1.0014
  129MOL   C11649012   5.266   0.911   4.861  0.3517 -0.6811 -0.2911
  129MOL   C11749013   5.311   0.940   4.716  0.3802 -0.6744 -0.2242
  129MOL   O11849014   5.360   0.824   4.652 -0.1402  0.3674  0.2861
  129MOL   C11949015   5.494   0.824   4.609 -0.2963  0.0690 -0.0088
  129MOL   C12049016   5.511   0.706   4.511 -0.9744 -0.2437 -0.1821
  129MOL   C12149017   5.483   0.576   4.584  0.1874  0.5487  0.0119
  129MOL   C12249018   5.411   0.730   4.397 -0.6554 -0.2269  0.0792
  129MOL   H12349019   5.311   0.823   4.906  2.0496 -0.1012 -0.8014
  129MOL   H12449020   5.158   0.907   4.855  0.1265  2.0758  1.0350
  129MOL   H12549021   5.396   1.007   4.719  0.4762 -0.8665  1.8567
  129MOL   H12649022   5.573   0.807   4.682 -0.0875 -1.2141 -0.5149
  129MOL   H12749023   5.515   0.910   4.546 -0.6501  0.6554  0.6677
  129MOL   H12849024   5.615   0.716   4.480 -1.3965 -0.5374 -1.7187
  129MOL   H12949025   5.497   0.486   4.524  3.4677  0.6436  0.5454
  129MOL   H13049026   5.380   0.575   4.620  0.0707  1.5106 -0.2860
  129MOL   H13149027   5.539   0.567   4.677  1.0266 -0.0764 -0.5499
  129MOL   H13249028   5.430   0.823   4.344 -0.5811  0.0730  0.6253
  129MOL   H13349029   5.422   0.646   4.329  0.1532  0.7601 -1.0070
  129MOL   H13449030   5.309   0.722   4.435 -0.5846 -2.7104 -0.1880
  129MOL   C13549031   5.191   1.012   4.638  0.0071  0.7176 -0.8718
  129MOL   C13649032   5.234   1.068   4.505  0.9230 -0.1272  0.2876
  129MOL   O13749033   5.137   1.058   4.414  0.7962  0.6023 -0.4156
  129MOL   C13849034   5.115   0.930   4.349 -0.0022  0.4726  0.5983
  129MOL   C13949035   5.003   0.948   4.248 -0.1583  0.1248 -0.0332
  129MOL   C14049036   5.026   1.082   4.162  0.6159 -0.0858  0.2549
  129MOL   C14149037   5.004   0.829   4.153  0.1769  0.2183  0.0673
  129MOL   H14249038   5.104   0.947   4.627  2.0305 -1.9247 -1.8757
  129MOL   H14349039   5.139   1.099   4.676  0.1733  0.7677 -0.7535
  129MOL   H14449040   5.320   1.010   4.473 -0.4579 -2.0329 -0.1015
  129MOL   H14549041   5.085   0.857   4.425 -0.2643  0.3193  0.3490
  129MOL   H14649042   5.208   0.901   4.300 -1.6977 -1.1256 -1.7615
  129MOL   H14749043   4.904   0.955   4.291 -0.0971  0.8113  0.0049
  129MOL   H14849044   5.008   1.168   4.226 -1.7732 -1.5840  1.6763
  129MOL   H14949045   4.945   1.087   4.089 -1.0176 -2.2463  1.8358
  129MOL   H15049046   5.121   1.097   4.110  1.1607 -1.1091  0.9267
  129MOL   H15149047   4.971   0.868   4.057 -0.6494 -0.5885  0.0211
  129MOL   H15249048   5.103   0.791   4.128  0.6325  1.0299  0.5948
  129MOL   H15349049   4.957   0.742   4.199 -0.9692  0.1303 -1.2317
  129MOL   C15449050   5.276   1.212   4.513 -0.3939  0.7330 -0.3919
  129MOL   C15549051   5.418   1.238   4.448  0.4454 -0.0763  0.1311
  129MOL   O15649052   5.522   1.164   4.503 -0.0600 -0.3813  0.1192
  129MOL   C15749053   5.584   1.224   4.617 -0.7794 -0.1286  0.3291
  129MOL   C15849054   5.722   1.153   4.653  0.1230 -0.4154 -0.3673
  129MOL   C15949055   5.826   1.162   4.535  0.2020  0.2101 -0.6111
  129MOL   C16049056   5.795   1.205   4.779 -0.7579  0.8724  0.0955
  129MOL   H16149057   5.278   1.250   4.615  3.2286  0.5054 -0.3351
  129MOL   H16249058   5.201   1.270   4.459 -0.1348  0.7157 -0.7718
  129MOL   H16349059   5.444   1.343   4.458  1.1136 -0.0648 -1.5849
  129MOL   H16449060   5.504   1.210   4.690 -1.7501 -0.9944 -0.8665
  129MOL   H16549061   5.598   1.330   4.599 -0.4911 -0.3038 -0.5144
  129MOL   H16649062   5.697   1.051   4.680  0.0013 -0.3676 -0.2975
  129MOL   H16749063   5.911   1.095   4.552 -1.1363 -1.2747  0.3350
  129MOL   H16849064   5.871   1.261   4.531 -1.9030  1.2168 -0.0048
  129MOL   H16949065   5.788   1.136   4.437  0.1911 -0.6873 -0.3679
  129MOL   H17049066   5.742   1.171   4.868 -0.1321 -0.0539  0.1225
  129MOL   H17149067   5.894   1.159   4.772 -1.1504 -0.2703  1.7354
  129MOL   H17249068   5.802   1.313   4.769  0.2893  0.8333  0.3302
  129MOL   C17349069   5.417   1.206   4.295 -0.2138 -0.0443 -0.1628
  129MOL   C17449070   5.543   1.250   4.205  0.0624  0.1613  0.0288
  129MOL   O17549071   5.537   1.205   4.066 -1.0557  0.4600  0.1412
  129MOL   C17649072   5.586   1.073   4.050  0.3391 -0.2781 -0.0691
  129MOL   C17749073   5.509   0.996   3.937  0.4908  0.6278 -0.2702
  129MOL   C17849074   5.571   0.863   3.899  0.4256  0.1797 -0.4954
  129MOL   C17949075   5.354   1.001   3.983 -0.5641 -0.2715  0.1153
  129MOL   H18049076   5.393   1.102   4.275  2.0010 -0.2526 -1.9989
  129MOL   H18149077   5.333   1.255   4.244 -0.7447 -1.4589 -0.6664
  129MOL   H18249078   5.641   1.218   4.241  0.5220  2.3841  0.8342
  129MOL   H18349079   5.585   1.008   4.137  4.3270 -2.5623 -1.5560
  129MOL   H18449080   5.690   1.072   4.017  0.2950  0.1311 -0.2233
  129MOL   H18549081   5.515   1.056   3.847 -0.4083 -1.0730 -1.4983
  129MOL   H18649082   5.678   0.868   3.876  1.0583 -2.1193  1.7947
  129MOL   H18749083   5.553   0.786   3.974  1.4120 -0.1967 -0.6387
  129MOL   H18849084   5.521   0.832   3.808  2.3082  2.0472 -2.2302
  129MOL   H18949085   5.321   1.101   4.010 -3.2274 -1.9050  3.2783
  129MOL   H19049086   5.344   0.930   4.066 -1.2771  0.8427  0.9877
  129MOL   H19149087   5.293   0.969   3.897  1.9339 -1.7518 -1.1761
  129MOL   C19249088   5.555   1.406   4.199 -0.2483  0.9483  0.1106
  129MOL   C19349089   5.673   1.455   4.118 -0.3281 -0.6371  0.2330
  129MOL   O19449090   5.800   1.458   4.182  0.5274  0.6037 -0.6755
  129MOL   C19549091   5.888   1.353   4.132 -0.3497  0.7261 -0.1465
  129MOL   C19649092   6.009   1.311   4.221 -0.5214 -0.4016  0.0830
  129MOL   C19749093   6.108   1.435   4.245  0.1992  0.4499  0.2270
  129MOL   C19849094   6.078   1.197   4.153  0.5140  1.0291  0.0780
  129MOL   H19949095   5.565   1.448   4.299 -2.2312 -0.2508  0.8456
  129MOL   H20049096   5.462   1.436   4.150  0.1918  1.5658 -0.3570
  129MOL   H20149097   5.675   1.400   4.023 -0.6940 -0.8069  0.3208
  129MOL   H20249098   5.918   1.377   4.029  0.8227 -2.0129 -0.4771
  129MOL   H20349099   5.832   1.261   4.120  1.8118 -0.6640  0.3228
  129MOL   H20449100   5.958   1.289   4.315  1.3648  0.3341  1.3124
  129MOL   H20549101   6.037   1.513   4.270 -0.3726  0.7931 -2.2502
  129MOL   H20649102   6.179   1.423   4.326  0.1362 -2.3841 -0.0646
  129MOL   H20749103   6.169   1.454   4.156 -1.1629  3.5151 -0.0928
  129MOL   H20849104   6.065   1.206   4.045  0.0957  0.2986  0.0634
  129MOL   H20949105   6.180   1.189   4.192  0.3911 -1.9040 -0.0688
  129MOL   H21049106   6.033   1.100   4.172  0.6486  1.5675  3.3710
  129MOL   C21149107   5.655   1.608   4.102  0.1431  0.0025 -0.3923
  129MOL   C21249108   5.752   1.651   3.987  0.6542  0.2087 -0.2110
  129MOL   O21349109   5.706   1.594   3.867  0.2032 -0.5621  0.0831
  129MOL   C21449110   5.814   1.579   3.769 -0.1694 -0.1147 -0.9414
  129MOL   C21549111   5.746   1.499   3.655 -0.2390  0.1355 -0.2218
  129MOL   C21649112   5.847   1.470   3.538  0.0744  0.0636 -0.1528
  129MOL   C21749113   5.688   1.369   3.702 -0.0484 -0.1505 -0.2211
  129MOL   H21849114   5.681   1.650   4.200 -0.1028 -0.3678 -0.1661
  129MOL   H21949115   5.557   1.647   4.074 -0.0602 -1.2492 -1.4657
  129MOL   H22049116   5.852   1.610   4.002  0.4007 -0.8199 -1.2782
  129MOL   H22149117   5.900   1.526   3.809 -1.4401  0.1584  2.2930
  129MOL   H22249118   5.846   1.674   3.728  0.3090  0.1847  0.1340
  129MOL   H22349119   5.654   1.548   3.624 -0.8554 -0.0488  1.2715
  129MOL   H22449120   5.924   1.397   3.562  0.9533  0.8032 -0.7187
  129MOL   H22549121   5.791   1.445   3.448  1.0824  1.3273 -1.1498
  129MOL   H22649122   5.895   1.563   3.506  3.0401 -1.1126  0.7127
  129MOL   H22749123   5.619   1.335   3.624 -1.3443 -0.2827  0.9616
  129MOL   H22849124   5.626   1.387   3.790  0.5499  1.6352 -0.1481
  129MOL   H22949125   5.755   1.288   3.730 -1.0369 -0.7712  0.3985
  129MOL   C23049126   5.768   1.806   3.983  0.2211 -0.1637  0.0631
  129MOL   C23149127   5.876   1.854   4.088 -0.3660  0.8856 -0.2605
  129MOL   O23249128   6.002   1.868   4.024  0.1538  0.0733  0.1045
  129MOL   C23349129   6.112   1.810   4.093  0.3157  0.1904 -0.6308
  129MOL   C23449130   6.232   1.803   4.002 -0.1926 -0.1785  0.5135
  129MOL   C23549131   6.279   1.955   3.984 -0.0261  0.0792  0.4532
  129MOL   C23649132   6.348   1.715   4.059 -0.3517 -0.7846 -0.1665
  129MOL   H23749133   5.671   1.854   3.995  0.7006  0.4343  1.6781
  129MOL   H23849134   5.809   1.832   3.886  1.1556 -0.0868  0.4652
  129MOL   H23949135   5.888   1.775   4.162 -2.7799 -0.8997 -1.7156
  129MOL   H24049136   6.131   1.859   4.189 -0.8287 -1.8596  0.6758
  129MOL   H24149137   6.093   1.705   4.113  1.4090  0.3152  1.1690
  129MOL   H24249138   6.187   1.759   3.912  0.4615 -1.5882  0.8616
  129MOL   H24349139   6.278   2.020   4.071  1.5691 -0.2310  0.7234
  129MOL   H24449140   6.203   2.003   3.922 -0.0893  1.3851  1.5304
  129MOL   H24549141   6.377   1.968   3.937  0.6241 -3.3132  0.7939
  129MOL   H24649142   6.375   1.751   4.158 -0.2573  1.9273 -1.1043
  129MOL   H24749143   6.310   1.617   4.086  1.4901 -1.8448 -1.2794
  129MOL   H24849144   6.430   1.711   3.987 -0.6252 -0.6618 -0.4862
  129MOL   C24949145   5.844   1.988   4.152  0.5813  0.5798  0.2876
  129MOL   C25049146   5.774   1.967   4.293  0.1211 -0.0728 -0.5313
  129MOL   O25149147   5.874   1.914   4.379  0.2772  0.0482  0.2440
  129MOL   C25249148   5.847   1.796   4.454  0.2481 -0.3741  0.7173
  129MOL   C25349149   5.965   1.784   4.552  0.2635  0.2720  0.2902
  129MOL   C25449150   6.094   1.756   4.469  0.6460  0.2746  0.0635
  129MOL   C25549151   5.946   1.685   4.665 -0.1105  0.3054  0.2935
  129MOL   H25649152   5.770   2.038   4.091  0.4423 -0.0587 -0.0753
  129MOL   H25749153   5.928   2.056   4.164 -1.6532  3.5379 -0.4704
  129MOL   H25849154   5.702   1.886   4.279  0.8529 -0.5864 -1.4624
  129MOL   H25949155   5.755   1.813   4.510  1.1206  2.0688  1.4504
  129MOL   H26049156   5.820   1.707   4.396 -2.3111  0.7431  0.1221
  129MOL   H26149157   5.968   1.885   4.594 -1.4172  1.3127 -1.9334
  129MOL   H26249158   6.180   1.729   4.530  2.3430  2.0898 -1.4537
  129MOL   H26349159   6.128   1.845   4.416 -1.5838  3.0814  3.1056
  129MOL   H26449160   6.081   1.667   4.407 -1.4016  0.1172  0.6694
  129MOL   H26549161   6.020   1.712   4.741  0.0394  1.5389 -0.2889
  129MOL   H26649162   5.846   1.683   4.706 -0.4357 -0.7454 -0.5264
  129MOL   H26749163   5.976   1.584   4.636 -0.1759  0.4780 -0.3854
  129MOL   C26849164   5.706   2.087   4.359 -0.2811 -0.3225 -0.3088
  129MOL   C26949165   5.602   2.163   4.271  0.5619 -0.7762 -0.1455
  129MOL   O27049166   5.546   2.273   4.340 -0.2126  0.5373 -0.5178
  129MOL   C27149167   5.628   2.388   4.345 -0.6336  0.1132  0.2007
  129MOL   C27249168   5.537   2.507   4.380  0.3645  0.2067  1.1321
  129MOL   C27349169   5.460   2.493   4.517 -0.0513  0.4778  0.9396
  129MOL   C27449170   5.613   2.641   4.396 -0.0019  0.7282  0.0425
  129MOL   H27549171   5.791   2.149   4.388  1.4083 -1.7821 -2.0301
  129MOL   H27649172   5.653   2.057   4.449 -0.3678 -1.1541 -0.6322
  129MOL   H27749173   5.658   2.196   4.184  2.6321 -0.5660  1.2322
  129MOL   H27849174   5.709   2.373   4.417 -0.7798  0.0905  0.3595
  129MOL   H27949175   5.679   2.410   4.251  1.2385  1.3504  1.4670
  129MOL   H28049176   5.471   2.518   4.294  0.4925 -2.8925  0.5706
  129MOL   H28149177   5.517   2.455   4.602  3.5993 -2.0522 -2.4179
  129MOL   H28249178   5.388   2.414   4.496 -0.7768  1.5750 -0.7633
  129MOL   H28349179   5.396   2.580   4.533  0.9969  1.4358 -0.0146
  129MOL   H28449180   5.534   2.715   4.384 -1.0382 -0.5664 -1.2462
  129MOL   H28549181   5.688   2.647   4.317 -0.2560  3.0603 -0.0685
  129MOL   H28649182   5.667   2.647   4.491 -1.1954  1.2149  0.7037
  129MOL   C28749183   5.494   2.071   4.212  0.3221  0.7002 -0.8974
  129MOL   C28849184   5.368   2.017   4.300 -1.1858  0.2577 -0.4212
  129MOL   O28949185   5.426   1.912   4.376 -0.6356 -0.7053  0.2377
  129MOL   C29049186   5.374   1.911   4.508  0.1189 -0.4429  0.3873
  129MOL   C29149187   5.364   1.765   4.551 -0.8972  0.5032 -0.0993
  129MOL   C29249188   5.319   1.742   4.702  0.0063 -0.2002 -0.5341
  129MOL   C29349189   5.490   1.680   4.532 -0.0059 -0.5714  0.4787
  129MOL   H29449190   5.552   1.986   4.175 -1.8739 -1.7999  1.1471
  129MOL   H29549191   5.457   2.130   4.129 -0.4812 -1.3320 -2.0092
  129MOL   H29649192   5.336   2.104   4.359 -1.8500  0.2932 -0.8314
  129MOL   H29749193   5.438   1.970   4.572 -0.0523  0.1533  0.0175
  129MOL   H29849194   5.273   1.953   4.509 -0.2001 -1.1996  2.2397
  129MOL   H29949195   5.286   1.722   4.488 -0.4392  0.0638 -0.3678
  129MOL   H30049196   5.283   1.640   4.703  2.7679 -1.2195 -0.7567
  129MOL   H30149197   5.236   1.807   4.731 -0.8250 -1.1327 -0.7893
  129MOL   H30249198   5.397   1.752   4.778  0.7914 -1.2486 -1.1831
  129MOL   H30349199   5.534   1.686   4.432  1.3565  0.4931  1.1037
  129MOL   H30449200   5.563   1.689   4.612 -0.0956  0.6241  0.4438
  129MOL   H30549201   5.462   1.576   4.545 -1.0929 -0.1224  1.8332
  129MOL   C30649202   5.249   1.972   4.217 -0.2991 -0.6298  0.6088
  129MOL   C30749203   5.157   2.084   4.167 -0.0661  0.4532 -1.0614
  129MOL   O30849204   5.219   2.141   4.047 -0.2835  0.0795  0.3818
  129MOL   C30949205   5.172   2.276   4.023 -0.8220 -0.8321 -0.0710
  129MOL   C31049206   5.270   2.364   3.942 -0.3836  0.5872  0.7232
  129MOL   C31149207   5.303   2.284   3.813  0.0274  0.1842  0.5251
  129MOL   C31249208   5.393   2.415   4.021  0.4796 -0.0958 -0.0736
  129MOL   H31349209   5.195   1.906   4.285 -1.7447  0.7465  0.8202
  129MOL   H31449210   5.291   1.908   4.140  0.3126  0.0925  0.3387
  129MOL   H31549211   5.138   2.153   4.248 -3.2456 -0.7317 -0.7060
  129MOL   H31649212   5.156   2.337   4.112 -1.9099 -1.9696  0.5363
  129MOL   H31749213   5.075   2.277   3.972 -1.2876  0.4515  0.8014
  129MOL   H31849214   5.217   2.446   3.894 -0.4980  0.5397  0.7676
  129MOL   H31949215   5.343   2.348   3.734  0.3428 -1.1796 -0.4441
  129MOL   H32049216   5.215   2.239   3.767  0.5334 -1.2287  0.9185
  129MOL   H32149217   5.364   2.197   3.833 -0.4296 -0.1465  0.4939
  129MOL   H32249218   5.448   2.482   3.954 -2.3995  2.5408  0.0810
  129MOL   H32349219   5.452   2.332   4.060 -1.1602 -1.7344 -1.0090
  129MOL   H32449220   5.360   2.467   4.111  1.4514  0.8943 -0.2709
  129MOL   C32549221   5.025   2.023   4.113  0.1742 -0.0998 -0.7615
  129MOL   C32649222   4.921   1.996   4.222 -0.4583  0.1517  0.2000
  129MOL   O32749223   4.839   2.111   4.251 -0.5955 -0.1569  0.7788
  129MOL   C32849224   4.748   2.161   4.148 -0.0013 -0.0991  0.6296
  129MOL   C32949225   4.623   2.239   4.215 -0.0135 -0.3171  0.2242
  129MOL   C33049226   4.559   2.145   4.313 -0.1466 -0.5511  0.5285
  129MOL   C33149227   4.678   2.362   4.283 -0.4113  0.3829  0.2753
  129MOL   H33249228   5.057   1.928   4.072  0.5936 -0.3763  0.2019
  129MOL   H33349229   4.994   2.077   4.023  0.3923  0.7485 -0.3330
  129MOL   H33449230   4.971   1.981   4.318 -1.5901 -0.6697  0.6689
  129MOL   H33549231   4.804   2.225   4.081 -0.6245 -1.5413 -1.3217
  129MOL   H33649232   4.715   2.075   4.088 -1.5425 -0.0907  1.4320
  129MOL   H33749233   4.553   2.277   4.141 -0.4821  0.7832  1.2289
  129MOL   H33849234   4.618   2.117   4.400  1.2384 -2.2909 -0.9167
  129MOL   H33949235   4.474   2.198   4.356  1.3417  2.6912 -0.4010
  129MOL   H34049236   4.519   2.055   4.265  0.6878 -1.2535  1.1283
  129MOL   H34149237   4.700   2.441   4.212 -0.4425 -0.0989 -0.2779
  129MOL   H34249238   4.612   2.400   4.361 -1.3406  2.0403 -1.3048
  129MOL   H34349239   4.776   2.351   4.329  0.8390 -0.0564 -2.4550
  129MOL   C34449240   4.837   1.866   4.212 -1.3386  0.5446 -0.3288
  129MOL   C34549241   4.905   1.727   4.244  0.4769 -0.4836  0.0631
  129MOL   O34649242   5.034   1.710   4.190 -0.1162 -0.3148  0.1365
  129MOL   C34749243   5.047   1.648   4.067  0.5006 -0.8002  0.5085
  129MOL   C34849244   5.054   1.494   4.057  0.6231 -0.3782 -0.1433
  129MOL   C34949245   5.191   1.447   4.113  0.3015 -0.0352 -0.0578
  129MOL   C35049246   5.026   1.454   3.917  1.0838 -0.6175 -0.0204
  129MOL   H35149247   4.802   1.857   4.110 -0.2837 -1.0333 -0.5672
  129MOL   H35249248   4.748   1.885   4.272 -0.9402 -0.4817  0.6130
  129MOL   H35349249   4.839   1.647   4.210 -1.6479  1.4604 -0.5461
  129MOL   H35449250   5.130   1.695   4.013 -3.0419  0.9650 -3.7168
  129MOL   H35549251   4.960   1.675   4.006  0.1713 -0.7626  0.9922
  129MOL   H35649252   4.971   1.452   4.114 -0.2799  4.7901  2.7204
  129MOL   H35749253   5.190   1.449   4.222  3.3102 -1.6585  0.0502
  129MOL   H35849254   5.271   1.514   4.082  1.4194 -0.6616  1.4496
  129MOL   H35949255   5.209   1.345   4.080 -0.7983 -1.0787  2.4202
  129MOL   H36049256   4.922   1.475   3.889 -0.0858 -1.3270  3.5129
  129MOL   H36149257   5.080   1.512   3.842 -2.0237  1.8862 -0.4278
  129MOL   H36249258   5.045   1.349   3.893  4.5204  0.1461 -0.9297
  129MOL   C36349259   4.930   1.721   4.396  0.5262  0.1248  0.2002
  129MOL   C36449260   4.979   1.585   4.451 -0.1765 -0.3256  0.3831
  129MOL   O36549261   4.950   1.564   4.586  0.0985  0.6467 -0.0110
  129MOL   C36649262   5.022   1.460   4.644  0.3726 -0.0012 -0.8845
  129MOL   C36749263   4.973   1.441   4.789 -0.0596 -0.0729  0.5300
  129MOL   C36849264   5.048   1.551   4.872 -0.6753 -0.2988 -0.3836
  129MOL   C36949265   4.995   1.300   4.846 -0.6552 -0.3397 -0.1427
  129MOL   H37049266   4.995   1.798   4.439  0.3854  0.7841 -0.7455
  129MOL   H37149267   4.837   1.744   4.448  1.5605 -0.3058  2.2643
  129MOL   H37249268   5.087   1.585   4.435 -0.3670 -0.1846 -0.9441
  129MOL   H37349269   4.994   1.372   4.586  2.3308 -0.9060 -0.4936
  129MOL   H37449270   5.131   1.463   4.636  0.3811  1.5828 -0.2274
  129MOL   H37549271   4.868   1.469   4.802 -0.2171 -0.3052 -0.1947
  129MOL   H37649272   4.997   1.555   4.968  0.5632 -0.1535  0.2661
  129MOL   H37749273   5.048   1.650   4.825  2.1808  0.4148  1.0488
  129MOL   H37849274   5.151   1.529   4.899 -1.4265 -2.0883  1.1345
  129MOL   H37949275   4.954   1.307   4.946 -0.6483  0.3400 -0.1840
  129MOL   H38049276   5.102   1.276   4.848 -1.1949 -2.6912  1.4268
  129MOL   H38149277   4.945   1.234   4.775 -0.0468 -3.7263  2.4564
  129MOL   H38249278   4.931   1.512   4.386  1.1384 -1.4011  0.5997
  130MOL     C149279   2.590   4.705   5.088 -0.8049  0.1800 -0.7528
  130MOL     C249280   2.518   4.690   5.222  0.9058 -0.5719  0.7746
  130MOL     O349281   2.393   4.769   5.223  0.5887  0.3269 -0.5230
  130MOL     C449282   2.335   4.801   5.347  0.1157 -0.3856 -0.0010
  130MOL     C549283   2.284   4.944   5.346 -0.8228 -0.5922  0.0276
  130MOL     C649284   2.408   5.045   5.348 -0.2753 -0.3800  0.2490
  130MOL     C749285   2.185   4.969   5.459  0.8957 -0.3895 -0.5094
  130MOL     H849286   2.590   4.813   5.075 -0.6344  0.7628  3.4042
  130MOL     H949287   2.692   4.668   5.100 -1.2879 -1.0541 -0.4356
  130MOL    H1049288   2.582   4.740   5.295 -0.2528  0.9501  0.7510
  130MOL    H1149289   2.393   4.767   5.433 -1.6604 -0.4955  1.1906
  130MOL    H1249290   2.252   4.732   5.358 -0.8489  0.8842  0.8431
  130MOL    H1349291   2.232   4.954   5.251 -0.7358  1.0861  0.1440
  130MOL    H1449292   2.367   5.146   5.351  1.7076  0.5175 -1.8578
  130MOL    H1549293   2.467   5.022   5.437  1.1257  0.5043 -0.4454
  130MOL    H1649294   2.477   5.022   5.267 -0.2990  2.8903 -0.7617
  130MOL    H1749295   2.246   4.964   5.549  0.6912 -3.6538 -0.4792
  130MOL    H1849296   2.139   5.068   5.451  0.9524 -0.3057  0.1958
  130MOL    H1949297   2.111   4.889   5.456  1.7059 -1.1563  0.0874
  130MOL    H2049298   2.525   4.658   5.015 -1.1590 -1.1792  0.3993
  130MOL    C2149299   2.498   4.545   5.263  0.1371 -0.2371  0.0564
  130MOL    C2249300   2.636   4.477   5.293 -0.2385 -0.3569 -0.0708
  130MOL    O2349301   2.678   4.538   5.415 -0.2654 -0.5287  0.2861
  130MOL    C2449302   2.807   4.595   5.420 -0.4746 -0.2292 -0.0583
  130MOL    C2549303   2.832   4.656   5.562 -0.4731 -0.1604 -0.1497
  130MOL    C2649304   2.968   4.727   5.563 -0.1824 -0.4773  0.2217
  130MOL    C2749305   2.720   4.756   5.592  0.1784  0.9804  0.0285
  130MOL    H2849306   2.427   4.540   5.346 -0.4275  3.1140 -0.1686
  130MOL    H2949307   2.447   4.494   5.180  2.6340 -2.3397 -0.2358
  130MOL    H3049308   2.702   4.481   5.206  0.1705  0.1833  0.2618
  130MOL    H3149309   2.810   4.670   5.341  1.6948 -0.0785  0.1397
  130MOL    H3249310   2.879   4.517   5.397 -1.6082 -1.0850 -0.7738
  130MOL    H3349311   2.833   4.592   5.650 -0.0306 -1.1361 -0.8565
  130MOL    H3449312   2.991   4.765   5.463  0.1724 -2.0459 -0.3123
  130MOL    H3549313   3.051   4.658   5.582  1.0800  0.8808 -0.2168
  130MOL    H3649314   2.976   4.817   5.624  0.2188 -2.5381  3.3119
  130MOL    H3749315   2.622   4.711   5.610  0.3527  0.4474 -0.3458
  130MOL    H3849316   2.740   4.789   5.694  1.5892 -1.0993  0.4519
  130MOL    H3949317   2.711   4.850   5.538  0.1907  2.1981  2.0862
  130MOL    C4049318   2.628   4.327   5.314 -0.6711 -0.4098 -0.9164
  130MOL    C4149319   2.642   4.238   5.185  0.3437 -0.1970  0.0696
  130MOL    O4249320   2.535   4.245   5.099  0.1908 -0.1549  0.5124
  130MOL    C4349321   2.579   4.257   4.961 -0.1261 -0.2569 -0.1814
  130MOL    C4449322   2.470   4.189   4.876  0.0209  0.1531 -0.7781
  130MOL    C4549323   2.471   4.037   4.895  0.3025 -0.1426 -0.2200
  130MOL    C4649324   2.330   4.250   4.898  0.2953 -0.2509  0.0209
  130MOL    H4749325   2.544   4.299   5.377 -0.5190  1.2298  0.0555
  130MOL    H4849326   2.715   4.296   5.372  1.0442  1.1008 -2.6150
  130MOL    H4949327   2.735   4.270   5.136  1.6411 -2.6292  0.8736
  130MOL    H5049328   2.675   4.206   4.951 -0.8242 -1.2742 -1.8779
  130MOL    H5149329   2.591   4.363   4.936 -1.2851 -0.8618 -3.4565
  130MOL    H5249330   2.498   4.206   4.772  0.0458  0.5061 -0.7140
  130MOL    H5349331   2.428   3.982   4.811  2.7690 -1.5617 -0.6058
  130MOL    H5449332   2.569   3.990   4.897  0.3807  0.0302  0.2494
  130MOL    H5549333   2.421   4.013   4.989 -0.8684 -2.3314 -1.3546
  130MOL    H5649334   2.342   4.354   4.867  0.4013 -0.7663 -1.7512
  130MOL    H5749335   2.292   4.238   4.999  1.7310 -0.9047  0.4979
  130MOL    H5849336   2.268   4.201   4.823 -0.1582  2.3457 -1.3610
  130MOL    C5949337   2.655   4.087   5.220 -0.4279 -0.2603 -0.1408
  130MOL    C6049338   2.793   4.051   5.289  0.3367 -0.4489 -0.0764
  130MOL    O6149339   2.800   4.083   5.430  0.2939 -0.2781 -0.8791
  130MOL    C6249340   2.718   4.012   5.518  0.0439 -0.5149 -0.6525
  130MOL    C6349341   2.747   4.060   5.661  0.0161  0.1508  0.0300
  130MOL    C6449342   2.878   4.013   5.718 -0.1994  0.4165 -0.0886
  130MOL    C6549343   2.734   4.216   5.673  0.6813  0.0471  0.3460
  130MOL    H6649344   2.637   4.027   5.130  1.3516  0.0304 -0.7248
  130MOL    H6749345   2.571   4.054   5.281 -0.4947 -1.4316 -0.8426
  130MOL    H6849346   2.795   3.942   5.293  1.3285 -0.4768 -0.9479
  130MOL    H6949347   2.612   4.022   5.493 -0.2412 -0.3100  0.6113
  130MOL    H7049348   2.728   3.904   5.512  0.6471 -0.7046  2.7940
  130MOL    H7149349   2.669   4.033   5.732  0.0212  1.2847  0.4830
  130MOL    H7249350   2.874   3.904   5.727 -0.3047  0.3455 -0.9625
  130MOL    H7349351   2.896   4.054   5.818 -0.6067 -0.0201  0.1701
  130MOL    H7449352   2.971   4.040   5.668 -0.1182  0.8299  0.2794
  130MOL    H7549353   2.643   4.252   5.626  0.0129 -3.7270 -1.4724
  130MOL    H7649354   2.740   4.254   5.775 -1.2754  1.8932 -0.2113
  130MOL    H7749355   2.813   4.260   5.611  0.4111 -0.2470 -0.2105
  130MOL    C7849356   2.917   4.100   5.222  0.5920 -0.8995  0.2026
  130MOL    C7949357   3.047   4.019   5.257 -0.3849 -0.4450  0.3500
  130MOL    O8049358   3.063   3.926   5.160 -0.2565 -0.6126  0.0230
  130MOL    C8149359   3.073   3.792   5.197 -0.1659 -0.2274 -0.5746
  130MOL    C8249360   3.077   3.697   5.081  0.4318 -0.7467  0.1035
  130MOL    C8349361   3.177   3.747   4.979  0.2143  0.6354  0.1329
  130MOL    C8449362   2.940   3.685   5.017 -0.2521 -0.4879  0.4167
  130MOL    H8549363   2.924   4.205   5.251 -0.1839 -1.2908  1.8234
  130MOL    H8649364   2.901   4.089   5.114 -0.0160  2.1629 -0.0615
  130MOL    H8749365   3.036   3.989   5.361  0.8856 -2.2555 -0.0152
  130MOL    H8849366   3.158   3.773   5.262  0.2318  0.4885 -0.8877
  130MOL    H8949367   2.980   3.766   5.249 -0.3216  0.2240 -0.6257
  130MOL    H9049368   3.101   3.596   5.115 -0.0511  0.1297  3.1330
  130MOL    H9149369   3.146   3.839   4.930  0.8724  0.8880  0.1753
  130MOL    H9249370   3.199   3.676   4.900  2.4406  0.1840  1.1189
  130MOL    H9349371   3.269   3.780   5.027  1.2297 -2.7715  0.6514
  130MOL    H9449372   2.937   3.607   4.940 -3.2735  1.8554 -1.9819
  130MOL    H9549373   2.910   3.776   4.964  0.2425 -0.5809 -0.0300
  130MOL    H9649374   2.857   3.665   5.084 -3.3355  2.1653 -2.3957
  130MOL    C9749375   3.166   4.106   5.258  0.0657  0.1063 -0.5909
  130MOL    C9849376   3.308   4.027   5.277  0.6254  0.3442 -0.4121
  130MOL    O9949377   3.308   4.003   5.420  0.0126 -0.0939 -0.4999
  130MOL   C10049378   3.400   3.915   5.481 -0.3671  0.0572 -0.3679
  130MOL   C10149379   3.339   3.893   5.622  0.4358 -0.3050  0.7691
  130MOL   C10249380   3.337   4.013   5.716  0.2554 -0.5214 -0.8029
  130MOL   C10349381   3.193   3.826   5.609 -0.0895  0.2544  0.4234
  130MOL   H10449382   3.159   4.177   5.340 -1.0155  3.0446 -3.1598
  130MOL   H10549383   3.160   4.154   5.160 -1.0639  2.5834  0.6551
  130MOL   H10649384   3.306   3.930   5.227  1.2585 -0.8624  1.8225
  130MOL   H10749385   3.502   3.951   5.471  0.0322 -0.6688  0.9718
  130MOL   H10849386   3.388   3.829   5.416  1.1229  0.1219 -0.7482
  130MOL   H10949387   3.401   3.816   5.668 -0.0477 -1.4248 -0.4121
  130MOL   H11049388   3.253   4.080   5.700 -2.1518 -2.6580  2.2338
  130MOL   H11149389   3.314   3.983   5.818 -1.0068  0.3118 -0.8314
  130MOL   H11249390   3.423   4.081   5.718  0.5273 -0.8810  2.0681
  130MOL   H11349391   3.138   3.897   5.548  0.0499 -0.6057 -0.7183
  130MOL   H11449392   3.184   3.732   5.554 -0.2664 -1.1799  2.8050
  130MOL   H11549393   3.140   3.821   5.704  1.7167  0.3330  1.4552
  130MOL   C11649394   3.435   4.105   5.233 -0.0758 -0.3897  0.1075
  130MOL   C11749395   3.424   4.165   5.089  0.3371 -0.0187  0.6198
  130MOL   O11849396   3.549   4.231   5.045 -0.1390  0.2026 -0.7109
  130MOL   C11949397   3.538   4.371   5.010  0.2934 -0.6649 -0.4199
  130MOL   C12049398   3.670   4.432   4.948  0.5400  0.1013 -0.1957
  130MOL   C12149399   3.693   4.386   4.805  0.6590  0.1445  0.0965
  130MOL   C12249400   3.658   4.584   4.963  0.5844  0.1103 -0.7336
  130MOL   H12349401   3.454   4.187   5.301 -0.2120  0.3811 -0.7728
  130MOL   H12449402   3.519   4.035   5.234 -0.4333 -0.8408 -0.7142
  130MOL   H12549403   3.348   4.243   5.094  0.5918  0.3042 -0.4222
  130MOL   H12649404   3.513   4.426   5.101  1.1508  0.5112 -0.8865
  130MOL   H12749405   3.456   4.393   4.941 -0.0038 -0.7278 -0.0906
  130MOL   H12849406   3.749   4.391   5.010  1.6770 -1.7045 -2.7601
  130MOL   H12949407   3.610   4.408   4.738  0.4148 -0.1977  0.2838
  130MOL   H13049408   3.708   4.278   4.799  1.7283  0.3151 -0.4967
  130MOL   H13149409   3.774   4.438   4.753 -0.6468  0.6858 -1.4317
  130MOL   H13249410   3.714   4.637   4.886 -0.3682  1.7128 -0.3632
  130MOL   H13349411   3.559   4.626   4.945  0.7840  0.2314 -1.5591
  130MOL   H13449412   3.691   4.615   5.062 -0.8279  0.2217 -0.2800
  130MOL   C13549413   3.384   4.066   4.980  0.2762  0.3522 -0.1021
  130MOL   C13649414   3.381   4.117   4.839  0.1057 -0.1919  0.7983
  130MOL   O13749415   3.379   4.001   4.766 -0.0087  0.3375 -0.1021
  130MOL   C13849416   3.492   3.976   4.682 -0.1193  0.2449 -0.6384
  130MOL   C13949417   3.500   3.828   4.651 -0.1346  0.0618  0.3940
  130MOL   C14049418   3.565   3.797   4.519 -0.4026  0.0905 -0.0634
  130MOL   C14149419   3.532   3.737   4.769  0.9277 -0.8274  0.1201
  130MOL   H14249420   3.468   3.996   4.985  0.8219  1.0553  0.8243
  130MOL   H14349421   3.290   4.015   4.999  0.1189  0.0560 -1.5979
  130MOL   H14449422   3.467   4.178   4.815  0.0531 -0.4745 -0.1335
  130MOL   H14549423   3.585   4.006   4.728  0.0463 -1.5613  0.2390
  130MOL   H14649424   3.484   4.042   4.595 -1.1847  1.7182  0.5568
  130MOL   H14749425   3.396   3.803   4.628  0.7286 -3.1434 -0.2314
  130MOL   H14849426   3.494   3.817   4.439  0.1874 -0.6655 -0.7880
  130MOL   H14949427   3.583   3.690   4.508  0.5103  0.3011 -0.6277
  130MOL   H15049428   3.656   3.854   4.501  0.3025 -0.6031  1.2416
  130MOL   H15149429   3.462   3.763   4.847  0.7566 -0.0908 -0.2689
  130MOL   H15249430   3.528   3.632   4.738 -0.8491 -0.0531 -2.4480
  130MOL   H15349431   3.637   3.748   4.796  0.9180 -1.2069  0.3158
  130MOL   C15449432   3.245   4.181   4.803 -0.2553  0.2107 -0.0474
  130MOL   C15549433   3.235   4.239   4.656 -0.4838  0.5815 -1.0052
  130MOL   O15649434   3.116   4.317   4.654 -0.4933  0.2668  0.5803
  130MOL   C15749435   2.996   4.245   4.621 -0.4943  0.7496  0.0200
  130MOL   C15849436   2.900   4.348   4.556 -0.2844 -0.7078 -0.5696
  130MOL   C15949437   2.851   4.457   4.651 -0.2804  0.2909  0.3927
  130MOL   C16049438   2.974   4.410   4.430 -0.1740 -0.3091 -0.1027
  130MOL   H16149439   3.232   4.265   4.871  0.4121  0.6871 -0.5000
  130MOL   H16249440   3.167   4.107   4.823  1.8288 -2.1398 -0.2982
  130MOL   H16349441   3.236   4.154   4.588 -2.4230  1.8853 -2.7152
  130MOL   H16449442   2.940   4.199   4.702  2.5805 -1.7008  0.8514
  130MOL   H16549443   3.015   4.174   4.540  0.8235  1.0065  0.1025
  130MOL   H16649444   2.818   4.292   4.510  0.2638 -1.9219 -0.0835
  130MOL   H16749445   2.925   4.533   4.677 -1.4676  1.9367 -0.9003
  130MOL   H16849446   2.818   4.404   4.740  3.2422 -0.6276  1.2253
  130MOL   H16949447   2.760   4.506   4.615 -1.7978 -2.9722 -0.3682
  130MOL   H17049448   2.894   4.458   4.373 -2.0618 -0.2576  2.4852
  130MOL   H17149449   3.044   4.488   4.457 -0.7028  1.1097 -2.6296
  130MOL   H17249450   3.028   4.341   4.365  0.5232 -0.0776  0.2285
  130MOL   C17349451   3.357   4.332   4.604  0.8470  0.9079  0.1104
  130MOL   C17449452   3.347   4.373   4.452 -0.0938 -0.6688 -0.9099
  130MOL   O17549453   3.463   4.448   4.413  0.9347  0.4035 -0.0485
  130MOL   C17649454   3.474   4.581   4.468 -0.2567  0.1659 -0.2122
  130MOL   C17749455   3.606   4.648   4.419 -0.6832  0.3576  0.1815
  130MOL   C17849456   3.731   4.583   4.477 -0.4961 -0.5683 -0.0683
  130MOL   C17949457   3.616   4.666   4.264 -0.3719  0.0924  0.0345
  130MOL   H18049458   3.348   4.408   4.682  1.4074  0.3665  0.7091
  130MOL   H18149459   3.454   4.286   4.624  0.2412  0.0605  1.1273
  130MOL   H18249460   3.258   4.434   4.440 -0.1665 -0.2331  1.5583
  130MOL   H18349461   3.463   4.576   4.576  1.7462 -2.0402 -0.0678
  130MOL   H18449462   3.389   4.634   4.424  0.1277  0.4632 -0.6061
  130MOL   H18549463   3.615   4.741   4.475 -1.4454  0.0534  0.8360
  130MOL   H18649464   3.741   4.476   4.459  2.4823 -0.3478  0.0317
  130MOL   H18749465   3.831   4.620   4.452 -0.5678 -1.5431 -1.8728
  130MOL   H18849466   3.715   4.591   4.585 -1.9226  0.2301 -0.3196
  130MOL   H18949467   3.696   4.734   4.235  0.7964 -1.1790  0.2066
  130MOL   H19049468   3.524   4.717   4.234  0.3854  1.8427  0.6224
  130MOL   H19149469   3.625   4.575   4.204  1.2382 -0.8880  1.7308
  130MOL   C19249470   3.341   4.247   4.362  0.5732 -0.1145 -0.5824
  130MOL   C19349471   3.349   4.287   4.217  0.7323  0.3931 -0.2956
  130MOL   O19449472   3.244   4.381   4.196 -0.1757 -0.0877 -0.5517
  130MOL   C19549473   3.264   4.463   4.086  0.3076 -0.6561  0.1123
  130MOL   C19649474   3.156   4.569   4.096 -0.4603 -0.4939  0.1010
  130MOL   C19749475   3.143   4.633   3.954 -0.2719 -0.1587 -0.0543
  130MOL   C19849476   3.179   4.681   4.208  0.3013 -0.1908  0.2899
  130MOL   H19949477   3.252   4.189   4.388  1.2480 -0.6112  0.7162
  130MOL   H20049478   3.429   4.188   4.389 -0.5789 -2.0551 -0.9721
  130MOL   H20149479   3.447   4.336   4.213  1.6344 -1.0271  2.6475
  130MOL   H20249480   3.254   4.411   3.991 -2.1282  0.9481 -0.5474
  130MOL   H20349481   3.362   4.511   4.086 -1.3839  3.0391  1.8596
  130MOL   H20449482   3.060   4.525   4.122 -1.3550  0.3864 -1.6198
  130MOL   H20549483   3.224   4.700   3.925  0.4308 -1.4651 -1.1941
  130MOL   H20649484   3.149   4.551   3.882 -0.1831  1.0712 -1.4668
  130MOL   H20749485   3.041   4.670   3.942  0.0938  0.8480 -0.0501
  130MOL   H20849486   3.158   4.646   4.309  0.3782  0.6489  0.5965
  130MOL   H20949487   3.282   4.715   4.207  0.1927  0.1265 -0.3052
  130MOL   H21049488   3.118   4.770   4.194  1.2131  0.3781 -0.1514
  130MOL   C21149489   3.340   4.163   4.128  0.8477 -0.7823 -0.3332
  130MOL   C21249490   3.446   4.164   4.023 -0.5734 -0.5464 -1.1563
  130MOL   O21349491   3.560   4.107   4.081 -0.4978  0.2699  0.3781
  130MOL   C21449492   3.667   4.207   4.108  0.8625 -0.9423  0.9874
  130MOL   C21549493   3.765   4.145   4.206 -0.0759  0.4346  0.2162
  130MOL   C21649494   3.894   4.232   4.199  0.0998 -0.0707 -0.0753
  130MOL   C21749495   3.703   4.143   4.343  0.2109 -0.6215 -0.1592
  130MOL   H21849496   3.240   4.158   4.084  0.9305 -1.7902 -0.4148
  130MOL   H21949497   3.349   4.071   4.186 -0.7554  0.2753  1.6252
  130MOL   H22049498   3.466   4.266   3.990 -0.3081  0.6869  2.5689
  130MOL   H22149499   3.633   4.303   4.148  2.3030  0.2144 -0.4736
  130MOL   H22249500   3.725   4.229   4.018 -1.8166  1.0381 -0.3164
  130MOL   H22349501   3.790   4.043   4.174 -0.5999  0.1526  0.6992
  130MOL   H22449502   3.960   4.214   4.115  3.6652  0.4910  2.4866
  130MOL   H22549503   3.870   4.338   4.192 -0.3665 -0.0706  1.3463
  130MOL   H22649504   3.958   4.218   4.287  0.5510 -0.8548 -0.5226
  130MOL   H22749505   3.619   4.073   4.340 -2.7247  2.5374  3.3222
  130MOL   H22849506   3.664   4.241   4.370  0.2563 -0.9378  1.0811
  130MOL   H22949507   3.769   4.114   4.424  0.2622  1.3304  0.5233
  130MOL   C23049508   3.403   4.077   3.905  0.1169  0.4560  0.3261
  130MOL   C23149509   3.516   4.060   3.792 -0.7826 -0.0066 -0.3603
  130MOL   O23249510   3.490   3.965   3.681  0.2646  0.0647 -0.1249
  130MOL   C23349511   3.423   3.841   3.712  0.4707 -0.1005 -0.5754
  130MOL   C23449512   3.442   3.751   3.588  0.4708  0.0562  0.2683
  130MOL   C23549513   3.388   3.604   3.604  0.0535 -0.5227 -0.1285
  130MOL   C23649514   3.390   3.824   3.464 -0.6129  0.3032  0.1545
  130MOL   H23749515   3.301   4.097   3.873  1.4399  3.0402 -2.5043
  130MOL   H23849516   3.390   3.978   3.949  1.8703  0.1023  0.0900
  130MOL   H23949517   3.610   4.025   3.833 -1.1103 -2.1277 -1.3823
  130MOL   H24049518   3.473   3.793   3.796  0.2212  2.4363  1.0969
  130MOL   H24149519   3.317   3.856   3.733  0.5660  0.0286 -0.1769
  130MOL   H24249520   3.550   3.743   3.574  0.3373  0.6026 -1.1326
  130MOL   H24349521   3.415   3.548   3.515 -0.3225 -0.3911 -0.3254
  130MOL   H24449522   3.280   3.602   3.620  0.1348 -0.1695  0.4864
  130MOL   H24549523   3.439   3.547   3.682 -0.4680  1.9378  2.1007
  130MOL   H24649524   3.288   3.860   3.478  0.7201  3.5987  2.0890
  130MOL   H24749525   3.458   3.907   3.444 -0.0020  0.2950  2.0644
  130MOL   H24849526   3.394   3.760   3.376  1.0471  1.1763 -0.4313
  130MOL   C24949527   3.550   4.188   3.703  0.1211  0.1185 -0.1191
  130MOL   C25049528   3.685   4.179   3.630  0.7220 -0.4948 -0.3797
  130MOL   O25149529   3.706   4.297   3.553  0.1475 -0.6912  0.2357
  130MOL   C25249530   3.638   4.284   3.425 -0.7077  0.2324 -0.4859
  130MOL   C25349531   3.552   4.408   3.403 -0.8070  0.1986  0.6243
  130MOL   C25449532   3.633   4.529   3.343  0.1393  0.4090 -0.5878
  130MOL   C25549533   3.494   4.453   3.546  0.6337 -0.2457 -0.1590
  130MOL   H25649534   3.551   4.273   3.771 -3.3422 -0.7946  1.2044
  130MOL   H25749535   3.471   4.185   3.628  0.3802 -1.2478 -0.3678
  130MOL   H25849536   3.676   4.086   3.574 -0.5248 -0.7807  0.2691
  130MOL   H25949537   3.712   4.273   3.346 -0.7432 -0.7727 -0.3863
  130MOL   H26049538   3.565   4.203   3.418 -0.4391 -0.0922  0.3775
  130MOL   H26149539   3.472   4.372   3.338  1.0694 -2.6592 -0.1895
  130MOL   H26249540   3.699   4.492   3.264 -1.3406 -2.6057 -0.4755
  130MOL   H26349541   3.689   4.588   3.416 -2.0624  0.1867  1.3298
  130MOL   H26449542   3.562   4.599   3.299  3.1890  2.5227 -2.4257
  130MOL   H26549543   3.414   4.385   3.575 -0.5075  0.3499 -1.8385
  130MOL   H26649544   3.576   4.477   3.613 -0.0032 -0.8384  0.8499
  130MOL   H26749545   3.445   4.550   3.537 -0.0063 -0.7054 -1.7041
  130MOL   C26849546   3.803   4.195   3.730 -0.5654 -0.1022  0.2773
  130MOL   C26949547   3.943   4.166   3.678 -0.3976  0.0705  0.2495
  130MOL   O27049548   3.951   4.025   3.668 -0.5659 -0.0373  0.0483
  130MOL   C27149549   4.026   3.976   3.552 -0.0830  0.4961 -1.0084
  130MOL   C27249550   3.988   3.829   3.544 -0.2325  0.3286  0.6256
  130MOL   C27349551   3.842   3.794   3.535 -0.8430 -0.0565 -0.6265
  130MOL   C27449552   4.056   3.775   3.410  0.3724 -0.2858  0.9168
  130MOL   H27549553   3.784   4.132   3.818 -3.2229  0.7797  0.4012
  130MOL   H27649554   3.811   4.292   3.778  0.9462 -0.3755  0.6010
  130MOL   H27749555   3.956   4.213   3.581  0.1650 -1.3602 -0.3758
  130MOL   H27849556   3.992   4.036   3.468 -1.7504  0.2112 -0.5733
  130MOL   H27949557   4.134   3.987   3.562 -0.4473  1.7030  2.0290
  130MOL   H28049558   4.033   3.773   3.626 -0.0044  2.7571  2.2188
  130MOL   H28149559   3.804   3.777   3.636 -0.1279  0.6069 -0.2383
  130MOL   H28249560   3.813   3.705   3.479 -2.4864 -0.6770  1.1393
  130MOL   H28349561   3.778   3.876   3.503 -1.3980 -0.5891 -0.8943
  130MOL   H28449562   4.053   3.668   3.389  2.5538 -0.0164 -0.8649
  130MOL   H28549563   4.157   3.803   3.383  0.1431 -1.6961 -1.4937
  130MOL   H28649564   3.997   3.808   3.324  3.0465  1.0453 -0.4820
  130MOL   C28749565   4.045   4.217   3.777 -0.1541 -0.8953 -0.7578
  130MOL   C28849566   4.135   4.327   3.720  0.1002  0.5530 -0.3825
  130MOL   O28949567   4.261   4.315   3.788  0.3870 -0.4016 -0.4695
  130MOL   C29049568   4.361   4.218   3.744  0.4969 -0.1452 -0.5239
  130MOL   C29149569   4.447   4.180   3.865 -0.8001 -0.0345  0.6168
  130MOL   C29249570   4.577   4.108   3.819  0.1841 -0.2317  0.3872
  130MOL   C29349571   4.378   4.090   3.969 -0.4391  0.1679 -0.1483
  130MOL   H29449572   4.108   4.130   3.795  0.0447 -1.1570 -2.6009
  130MOL   H29549573   4.009   4.248   3.874 -0.5406 -0.7931 -0.9348
  130MOL   H29649574   4.165   4.312   3.616 -0.5969 -0.4219 -0.4503
  130MOL   H29749575   4.319   4.130   3.695 -0.7250 -0.3136  0.8044
  130MOL   H29849576   4.409   4.282   3.669 -0.4731  0.7322 -0.4057
  130MOL   H29949577   4.481   4.270   3.916  0.4498 -0.5191  0.6557
  130MOL   H30049578   4.644   4.066   3.894  1.5663  1.4923  0.1636
  130MOL   H30149579   4.637   4.175   3.758  1.2016 -0.6823  0.8849
  130MOL   H30249580   4.556   4.022   3.755  0.5989 -1.2062  1.5462
  130MOL   H30349581   4.378   3.984   3.947 -1.6316 -0.1028  1.1288
  130MOL   H30449582   4.420   4.093   4.070 -0.4833 -1.2589 -0.0882
  130MOL   H30549583   4.274   4.116   3.985  0.0379  0.7371  2.3503
  130MOL   C30649584   4.074   4.465   3.741 -0.1511  0.3956  0.2554
  130MOL   C30749585   4.149   4.572   3.656  0.2931 -0.7678  0.2617
  130MOL   O30849586   4.083   4.563   3.529  0.2896 -0.1143 -0.2858
  130MOL   C30949587   4.172   4.528   3.421 -0.1561  0.2261  0.3564
  130MOL   C31049588   4.085   4.502   3.297  0.5438  0.1350  0.2709
  130MOL   C31149589   4.018   4.641   3.262  0.7407  0.1180  0.1188
  130MOL   C31249590   3.980   4.394   3.318  0.4155  0.5662 -0.5858
  130MOL   H31349591   4.091   4.495   3.845  0.6998  0.6018  0.0528
  130MOL   H31449592   3.967   4.458   3.719  0.4570 -0.7034 -2.5844
  130MOL   H31549593   4.257   4.560   3.650  0.8581  2.5182  2.4878
  130MOL   H31649594   4.236   4.444   3.448 -2.8008 -2.3322 -1.0500
  130MOL   H31749595   4.222   4.620   3.394  1.7161 -1.0170 -0.5213
  130MOL   H31849596   4.147   4.472   3.212  0.4766  0.7493 -0.0021
  130MOL   H31949597   4.072   4.693   3.182  1.3011 -1.3525 -0.4920
  130MOL   H32049598   3.982   4.707   3.340 -1.8020  0.7784 -1.5610
  130MOL   H32149599   3.926   4.618   3.208  1.3682 -1.5641 -0.2917
  130MOL   H32249600   3.892   4.417   3.377  0.3055  0.2696 -0.6310
  130MOL   H32349601   4.032   4.311   3.367 -1.8034  0.7334  2.1487
  130MOL   H32449602   3.956   4.336   3.229  0.8180 -0.1730 -0.2250
  130MOL   C32549603   4.122   4.715   3.716 -0.0242 -0.2632  0.1810
  130MOL   C32649604   4.224   4.768   3.830  0.0936  0.0597  0.1582
  130MOL   O32749605   4.338   4.799   3.753  0.3395 -0.3658  0.6806
  130MOL   C32849606   4.460   4.811   3.825 -0.2644  0.0877  0.3766
  130MOL   C32949607   4.583   4.805   3.737 -0.0578 -0.4518  0.1080
  130MOL   C33049608   4.712   4.825   3.817 -0.2875  0.1221  0.0990
  130MOL   C33149609   4.589   4.676   3.655 -0.0304  0.2029 -0.4914
  130MOL   H33249610   4.017   4.725   3.743  0.0319  1.1179 -0.1164
  130MOL   H33349611   4.128   4.774   3.625  1.2489  0.5151  0.7566
  130MOL   H33449612   4.257   4.685   3.892  1.9124  0.5627 -0.0997
  130MOL   H33549613   4.454   4.911   3.869  2.5592  0.3510  0.2696
  130MOL   H33649614   4.479   4.738   3.904  0.4195 -1.6449 -1.3431
  130MOL   H33749615   4.580   4.890   3.670  5.2393 -0.5580 -0.4690
  130MOL   H33849616   4.750   4.741   3.875 -0.4574 -0.8500 -1.2033
  130MOL   H33949617   4.797   4.867   3.764 -0.0517 -0.4112  0.0545
  130MOL   H34049618   4.696   4.907   3.888 -2.3647  1.6508 -2.0618
  130MOL   H34149619   4.600   4.588   3.718 -2.0874  0.5831  0.4221
  130MOL   H34249620   4.499   4.671   3.594  0.0684  0.9314 -0.7063
  130MOL   H34349621   4.683   4.678   3.598 -0.4668 -1.2787 -1.2853
  130MOL   C34449622   4.175   4.891   3.913  0.8517 -0.4165 -0.0130
  130MOL   C34549623   4.059   4.844   4.011 -0.0702 -0.2160  0.0102
  130MOL   O34649624   4.126   4.766   4.111 -0.0107  0.5028  0.2367
  130MOL   C34749625   4.048   4.671   4.183  0.1593  0.3795 -0.3401
  130MOL   C34849626   4.142   4.573   4.246  0.0821 -0.0509  0.0930
  130MOL   C34949627   4.220   4.623   4.369 -0.1902  0.5437  0.6793
  130MOL   C35049628   4.237   4.504   4.147  0.9244  0.8425  0.4230
  130MOL   H35149629   4.145   4.958   3.833 -0.5536  0.0715  0.9155
  130MOL   H35249630   4.265   4.938   3.954 -0.1443  0.9066  0.6851
  130MOL   H35349631   3.980   4.788   3.960  1.7056 -1.4707 -1.4220
  130MOL   H35449632   3.993   4.622   4.102 -0.9471  2.4631 -0.8816
  130MOL   H35549633   3.970   4.701   4.252 -0.9167 -4.0302  0.5148
  130MOL   H35649634   4.090   4.485   4.286 -0.3555 -0.6008 -1.5989
  130MOL   H35749635   4.287   4.549   4.412  0.1334  0.9286  0.8344
  130MOL   H35849636   4.149   4.647   4.449 -0.8369 -2.9739  1.2445
  130MOL   H35949637   4.290   4.704   4.352  1.4617 -0.8314  0.8678
  130MOL   H36049638   4.315   4.568   4.106  1.3672 -0.5143 -0.8902
  130MOL   H36149639   4.278   4.410   4.185 -0.9413 -0.2702 -0.2547
  130MOL   H36249640   4.175   4.462   4.068 -0.6076  1.9057  1.0269
  130MOL   C36349641   3.992   4.961   4.077 -0.3630  0.4215  0.4693
  130MOL   C36449642   3.905   5.045   3.985  0.0290  0.6723 -0.1627
  130MOL   O36549643   3.805   4.962   3.924  0.3008 -0.8852  0.5745
  130MOL   C36649644   3.703   5.039   3.864  0.5686  0.0458 -0.3821
  130MOL   C36749645   3.608   4.935   3.808 -0.3733 -0.2124 -0.1344
  130MOL   C36849646   3.672   4.864   3.685 -0.3713  0.2200 -0.5296
  130MOL   C36949647   3.477   5.006   3.762  0.2523 -0.0242  0.0873
  130MOL   H37049648   3.933   4.931   4.164  0.3468  0.2635  0.9042
  130MOL   H37149649   4.069   5.027   4.116 -0.1510 -0.9684  2.5014
  130MOL   H37249650   3.961   5.100   3.911  1.0857 -0.1693 -0.0031
  130MOL   H37349651   3.656   5.106   3.937  2.0793 -0.5834  1.2039
  130MOL   H37449652   3.756   5.100   3.791  0.4246 -0.2162 -0.7083
  130MOL   H37549653   3.593   4.865   3.890 -0.6730  1.4153  1.2324
  130MOL   H37649654   3.598   4.812   3.624 -0.0006 -0.2988 -0.5382
  130MOL   H37749655   3.729   4.778   3.721  1.6134  0.8595 -2.1156
  130MOL   H37849656   3.729   4.929   3.620 -0.5232 -1.1624 -2.0761
  130MOL   H37949657   3.420   5.044   3.847 -0.9105 -1.1377 -0.1688
  130MOL   H38049658   3.393   4.944   3.729  1.2116 -1.9265  1.1392
  130MOL   H38149659   3.498   5.089   3.695 -0.3059 -1.6729 -2.1919
  130MOL   H38249660   3.847   5.118   4.041 -0.8186  0.2687 -0.5021
   7.82452   7.82452   7.82452
