;
; Gromacs include topology (itp) file.
; For Molecular Group XYZ
; Force field scheme: opls2005
; Produced from DL_FIELD v4.11
;


[ moleculetype ]
; name    nrexcl
XYZ    3

[ atoms ]
; nr   type   resnr   residu    atom    cgnr    charge    mass
    1        CT    1  MOL      C1     1  -0.1800000   12.0115
    2        CT    1  MOL      C2     2   0.1700000   12.0115
    3        OS    1  MOL      O3     3  -0.4000000   15.9994
    4        CT    1  MOL      C4     4   0.1400000   12.0115
    5        CT    1  MOL      C5     5  -0.0600000   12.0115
    6        CT    1  MOL      C6     6  -0.1800000   12.0115
    7        CT    1  MOL      C7     7  -0.1800000   12.0115
    8        HC    1  MOL      H8     8   0.0600000    1.0080
    9        HC    1  MOL      H9     9   0.0600000    1.0080
   10        HC    1  MOL     H10    10   0.0300000    1.0080
   11        HC    1  MOL     H11    11   0.0300000    1.0080
   12        HC    1  MOL     H12    12   0.0300000    1.0080
   13        HC    1  MOL     H13    13   0.0600000    1.0080
   14        HC    1  MOL     H14    14   0.0600000    1.0080
   15        HC    1  MOL     H15    15   0.0600000    1.0080
   16        HC    1  MOL     H16    16   0.0600000    1.0080
   17        HC    1  MOL     H17    17   0.0600000    1.0080
   18        HC    1  MOL     H18    18   0.0600000    1.0080
   19        HC    1  MOL     H19    19   0.0600000    1.0080
   20        HC    1  MOL     H20    20   0.0600000    1.0080
   21        CT    1  MOL     C21    21  -0.1200000   12.0115
   22        CT    1  MOL     C22    22   0.1700000   12.0115
   23        OS    1  MOL     O23    23  -0.4000000   15.9994
   24        CT    1  MOL     C24    24   0.1400000   12.0115
   25        CT    1  MOL     C25    25  -0.0600000   12.0115
   26        CT    1  MOL     C26    26  -0.1800000   12.0115
   27        CT    1  MOL     C27    27  -0.1800000   12.0115
   28        HC    1  MOL     H28    28   0.0600000    1.0080
   29        HC    1  MOL     H29    29   0.0600000    1.0080
   30        HC    1  MOL     H30    30   0.0300000    1.0080
   31        HC    1  MOL     H31    31   0.0300000    1.0080
   32        HC    1  MOL     H32    32   0.0300000    1.0080
   33        HC    1  MOL     H33    33   0.0600000    1.0080
   34        HC    1  MOL     H34    34   0.0600000    1.0080
   35        HC    1  MOL     H35    35   0.0600000    1.0080
   36        HC    1  MOL     H36    36   0.0600000    1.0080
   37        HC    1  MOL     H37    37   0.0600000    1.0080
   38        HC    1  MOL     H38    38   0.0600000    1.0080
   39        HC    1  MOL     H39    39   0.0600000    1.0080
   40        CT    1  MOL     C40    40  -0.1200000   12.0115
   41        CT    1  MOL     C41    41   0.1700000   12.0115
   42        OS    1  MOL     O42    42  -0.4000000   15.9994
   43        CT    1  MOL     C43    43   0.1400000   12.0115
   44        CT    1  MOL     C44    44  -0.0600000   12.0115
   45        CT    1  MOL     C45    45  -0.1800000   12.0115
   46        CT    1  MOL     C46    46  -0.1800000   12.0115
   47        HC    1  MOL     H47    47   0.0600000    1.0080
   48        HC    1  MOL     H48    48   0.0600000    1.0080
   49        HC    1  MOL     H49    49   0.0300000    1.0080
   50        HC    1  MOL     H50    50   0.0300000    1.0080
   51        HC    1  MOL     H51    51   0.0300000    1.0080
   52        HC    1  MOL     H52    52   0.0600000    1.0080
   53        HC    1  MOL     H53    53   0.0600000    1.0080
   54        HC    1  MOL     H54    54   0.0600000    1.0080
   55        HC    1  MOL     H55    55   0.0600000    1.0080
   56        HC    1  MOL     H56    56   0.0600000    1.0080
   57        HC    1  MOL     H57    57   0.0600000    1.0080
   58        HC    1  MOL     H58    58   0.0600000    1.0080
   59        CT    1  MOL     C59    59  -0.1200000   12.0115
   60        CT    1  MOL     C60    60   0.1700000   12.0115
   61        OS    1  MOL     O61    61  -0.4000000   15.9994
   62        CT    1  MOL     C62    62   0.1400000   12.0115
   63        CT    1  MOL     C63    63  -0.0600000   12.0115
   64        CT    1  MOL     C64    64  -0.1800000   12.0115
   65        CT    1  MOL     C65    65  -0.1800000   12.0115
   66        HC    1  MOL     H66    66   0.0600000    1.0080
   67        HC    1  MOL     H67    67   0.0600000    1.0080
   68        HC    1  MOL     H68    68   0.0300000    1.0080
   69        HC    1  MOL     H69    69   0.0300000    1.0080
   70        HC    1  MOL     H70    70   0.0300000    1.0080
   71        HC    1  MOL     H71    71   0.0600000    1.0080
   72        HC    1  MOL     H72    72   0.0600000    1.0080
   73        HC    1  MOL     H73    73   0.0600000    1.0080
   74        HC    1  MOL     H74    74   0.0600000    1.0080
   75        HC    1  MOL     H75    75   0.0600000    1.0080
   76        HC    1  MOL     H76    76   0.0600000    1.0080
   77        HC    1  MOL     H77    77   0.0600000    1.0080
   78        CT    1  MOL     C78    78  -0.1200000   12.0115
   79        CT    1  MOL     C79    79   0.1700000   12.0115
   80        OS    1  MOL     O80    80  -0.4000000   15.9994
   81        CT    1  MOL     C81    81   0.1400000   12.0115
   82        CT    1  MOL     C82    82  -0.0600000   12.0115
   83        CT    1  MOL     C83    83  -0.1800000   12.0115
   84        CT    1  MOL     C84    84  -0.1800000   12.0115
   85        HC    1  MOL     H85    85   0.0600000    1.0080
   86        HC    1  MOL     H86    86   0.0600000    1.0080
   87        HC    1  MOL     H87    87   0.0300000    1.0080
   88        HC    1  MOL     H88    88   0.0300000    1.0080
   89        HC    1  MOL     H89    89   0.0300000    1.0080
   90        HC    1  MOL     H90    90   0.0600000    1.0080
   91        HC    1  MOL     H91    91   0.0600000    1.0080
   92        HC    1  MOL     H92    92   0.0600000    1.0080
   93        HC    1  MOL     H93    93   0.0600000    1.0080
   94        HC    1  MOL     H94    94   0.0600000    1.0080
   95        HC    1  MOL     H95    95   0.0600000    1.0080
   96        HC    1  MOL     H96    96   0.0600000    1.0080
   97        CT    1  MOL     C97    97  -0.1200000   12.0115
   98        CT    1  MOL     C98    98   0.1700000   12.0115
   99        OS    1  MOL     O99    99  -0.4000000   15.9994
  100        CT    1  MOL    C100   100   0.1400000   12.0115
  101        CT    1  MOL    C101   101  -0.0600000   12.0115
  102        CT    1  MOL    C102   102  -0.1800000   12.0115
  103        CT    1  MOL    C103   103  -0.1800000   12.0115
  104        HC    1  MOL    H104   104   0.0600000    1.0080
  105        HC    1  MOL    H105   105   0.0600000    1.0080
  106        HC    1  MOL    H106   106   0.0300000    1.0080
  107        HC    1  MOL    H107   107   0.0300000    1.0080
  108        HC    1  MOL    H108   108   0.0300000    1.0080
  109        HC    1  MOL    H109   109   0.0600000    1.0080
  110        HC    1  MOL    H110   110   0.0600000    1.0080
  111        HC    1  MOL    H111   111   0.0600000    1.0080
  112        HC    1  MOL    H112   112   0.0600000    1.0080
  113        HC    1  MOL    H113   113   0.0600000    1.0080
  114        HC    1  MOL    H114   114   0.0600000    1.0080
  115        HC    1  MOL    H115   115   0.0600000    1.0080
  116        CT    1  MOL    C116   116  -0.1200000   12.0115
  117        CT    1  MOL    C117   117   0.1700000   12.0115
  118        OS    1  MOL    O118   118  -0.4000000   15.9994
  119        CT    1  MOL    C119   119   0.1400000   12.0115
  120        CT    1  MOL    C120   120  -0.0600000   12.0115
  121        CT    1  MOL    C121   121  -0.1800000   12.0115
  122        CT    1  MOL    C122   122  -0.1800000   12.0115
  123        HC    1  MOL    H123   123   0.0600000    1.0080
  124        HC    1  MOL    H124   124   0.0600000    1.0080
  125        HC    1  MOL    H125   125   0.0300000    1.0080
  126        HC    1  MOL    H126   126   0.0300000    1.0080
  127        HC    1  MOL    H127   127   0.0300000    1.0080
  128        HC    1  MOL    H128   128   0.0600000    1.0080
  129        HC    1  MOL    H129   129   0.0600000    1.0080
  130        HC    1  MOL    H130   130   0.0600000    1.0080
  131        HC    1  MOL    H131   131   0.0600000    1.0080
  132        HC    1  MOL    H132   132   0.0600000    1.0080
  133        HC    1  MOL    H133   133   0.0600000    1.0080
  134        HC    1  MOL    H134   134   0.0600000    1.0080
  135        CT    1  MOL    C135   135  -0.1200000   12.0115
  136        CT    1  MOL    C136   136   0.1700000   12.0115
  137        OS    1  MOL    O137   137  -0.4000000   15.9994
  138        CT    1  MOL    C138   138   0.1400000   12.0115
  139        CT    1  MOL    C139   139  -0.0600000   12.0115
  140        CT    1  MOL    C140   140  -0.1800000   12.0115
  141        CT    1  MOL    C141   141  -0.1800000   12.0115
  142        HC    1  MOL    H142   142   0.0600000    1.0080
  143        HC    1  MOL    H143   143   0.0600000    1.0080
  144        HC    1  MOL    H144   144   0.0300000    1.0080
  145        HC    1  MOL    H145   145   0.0300000    1.0080
  146        HC    1  MOL    H146   146   0.0300000    1.0080
  147        HC    1  MOL    H147   147   0.0600000    1.0080
  148        HC    1  MOL    H148   148   0.0600000    1.0080
  149        HC    1  MOL    H149   149   0.0600000    1.0080
  150        HC    1  MOL    H150   150   0.0600000    1.0080
  151        HC    1  MOL    H151   151   0.0600000    1.0080
  152        HC    1  MOL    H152   152   0.0600000    1.0080
  153        HC    1  MOL    H153   153   0.0600000    1.0080
  154        CT    1  MOL    C154   154  -0.1200000   12.0115
  155        CT    1  MOL    C155   155   0.1700000   12.0115
  156        OS    1  MOL    O156   156  -0.4000000   15.9994
  157        CT    1  MOL    C157   157   0.1400000   12.0115
  158        CT    1  MOL    C158   158  -0.0600000   12.0115
  159        CT    1  MOL    C159   159  -0.1800000   12.0115
  160        CT    1  MOL    C160   160  -0.1800000   12.0115
  161        HC    1  MOL    H161   161   0.0600000    1.0080
  162        HC    1  MOL    H162   162   0.0600000    1.0080
  163        HC    1  MOL    H163   163   0.0300000    1.0080
  164        HC    1  MOL    H164   164   0.0300000    1.0080
  165        HC    1  MOL    H165   165   0.0300000    1.0080
  166        HC    1  MOL    H166   166   0.0600000    1.0080
  167        HC    1  MOL    H167   167   0.0600000    1.0080
  168        HC    1  MOL    H168   168   0.0600000    1.0080
  169        HC    1  MOL    H169   169   0.0600000    1.0080
  170        HC    1  MOL    H170   170   0.0600000    1.0080
  171        HC    1  MOL    H171   171   0.0600000    1.0080
  172        HC    1  MOL    H172   172   0.0600000    1.0080
  173        CT    1  MOL    C173   173  -0.1200000   12.0115
  174        CT    1  MOL    C174   174   0.1700000   12.0115
  175        OS    1  MOL    O175   175  -0.4000000   15.9994
  176        CT    1  MOL    C176   176   0.1400000   12.0115
  177        CT    1  MOL    C177   177  -0.0600000   12.0115
  178        CT    1  MOL    C178   178  -0.1800000   12.0115
  179        CT    1  MOL    C179   179  -0.1800000   12.0115
  180        HC    1  MOL    H180   180   0.0600000    1.0080
  181        HC    1  MOL    H181   181   0.0600000    1.0080
  182        HC    1  MOL    H182   182   0.0300000    1.0080
  183        HC    1  MOL    H183   183   0.0300000    1.0080
  184        HC    1  MOL    H184   184   0.0300000    1.0080
  185        HC    1  MOL    H185   185   0.0600000    1.0080
  186        HC    1  MOL    H186   186   0.0600000    1.0080
  187        HC    1  MOL    H187   187   0.0600000    1.0080
  188        HC    1  MOL    H188   188   0.0600000    1.0080
  189        HC    1  MOL    H189   189   0.0600000    1.0080
  190        HC    1  MOL    H190   190   0.0600000    1.0080
  191        HC    1  MOL    H191   191   0.0600000    1.0080
  192        CT    1  MOL    C192   192  -0.1200000   12.0115
  193        CT    1  MOL    C193   193   0.1700000   12.0115
  194        OS    1  MOL    O194   194  -0.4000000   15.9994
  195        CT    1  MOL    C195   195   0.1400000   12.0115
  196        CT    1  MOL    C196   196  -0.0600000   12.0115
  197        CT    1  MOL    C197   197  -0.1800000   12.0115
  198        CT    1  MOL    C198   198  -0.1800000   12.0115
  199        HC    1  MOL    H199   199   0.0600000    1.0080
  200        HC    1  MOL    H200   200   0.0600000    1.0080
  201        HC    1  MOL    H201   201   0.0300000    1.0080
  202        HC    1  MOL    H202   202   0.0300000    1.0080
  203        HC    1  MOL    H203   203   0.0300000    1.0080
  204        HC    1  MOL    H204   204   0.0600000    1.0080
  205        HC    1  MOL    H205   205   0.0600000    1.0080
  206        HC    1  MOL    H206   206   0.0600000    1.0080
  207        HC    1  MOL    H207   207   0.0600000    1.0080
  208        HC    1  MOL    H208   208   0.0600000    1.0080
  209        HC    1  MOL    H209   209   0.0600000    1.0080
  210        HC    1  MOL    H210   210   0.0600000    1.0080
  211        CT    1  MOL    C211   211  -0.1200000   12.0115
  212        CT    1  MOL    C212   212   0.1700000   12.0115
  213        OS    1  MOL    O213   213  -0.4000000   15.9994
  214        CT    1  MOL    C214   214   0.1400000   12.0115
  215        CT    1  MOL    C215   215  -0.0600000   12.0115
  216        CT    1  MOL    C216   216  -0.1800000   12.0115
  217        CT    1  MOL    C217   217  -0.1800000   12.0115
  218        HC    1  MOL    H218   218   0.0600000    1.0080
  219        HC    1  MOL    H219   219   0.0600000    1.0080
  220        HC    1  MOL    H220   220   0.0300000    1.0080
  221        HC    1  MOL    H221   221   0.0300000    1.0080
  222        HC    1  MOL    H222   222   0.0300000    1.0080
  223        HC    1  MOL    H223   223   0.0600000    1.0080
  224        HC    1  MOL    H224   224   0.0600000    1.0080
  225        HC    1  MOL    H225   225   0.0600000    1.0080
  226        HC    1  MOL    H226   226   0.0600000    1.0080
  227        HC    1  MOL    H227   227   0.0600000    1.0080
  228        HC    1  MOL    H228   228   0.0600000    1.0080
  229        HC    1  MOL    H229   229   0.0600000    1.0080
  230        CT    1  MOL    C230   230  -0.1200000   12.0115
  231        CT    1  MOL    C231   231   0.1700000   12.0115
  232        OS    1  MOL    O232   232  -0.4000000   15.9994
  233        CT    1  MOL    C233   233   0.1400000   12.0115
  234        CT    1  MOL    C234   234  -0.0600000   12.0115
  235        CT    1  MOL    C235   235  -0.1800000   12.0115
  236        CT    1  MOL    C236   236  -0.1800000   12.0115
  237        HC    1  MOL    H237   237   0.0600000    1.0080
  238        HC    1  MOL    H238   238   0.0600000    1.0080
  239        HC    1  MOL    H239   239   0.0300000    1.0080
  240        HC    1  MOL    H240   240   0.0300000    1.0080
  241        HC    1  MOL    H241   241   0.0300000    1.0080
  242        HC    1  MOL    H242   242   0.0600000    1.0080
  243        HC    1  MOL    H243   243   0.0600000    1.0080
  244        HC    1  MOL    H244   244   0.0600000    1.0080
  245        HC    1  MOL    H245   245   0.0600000    1.0080
  246        HC    1  MOL    H246   246   0.0600000    1.0080
  247        HC    1  MOL    H247   247   0.0600000    1.0080
  248        HC    1  MOL    H248   248   0.0600000    1.0080
  249        CT    1  MOL    C249   249  -0.1200000   12.0115
  250        CT    1  MOL    C250   250   0.1700000   12.0115
  251        OS    1  MOL    O251   251  -0.4000000   15.9994
  252        CT    1  MOL    C252   252   0.1400000   12.0115
  253        CT    1  MOL    C253   253  -0.0600000   12.0115
  254        CT    1  MOL    C254   254  -0.1800000   12.0115
  255        CT    1  MOL    C255   255  -0.1800000   12.0115
  256        HC    1  MOL    H256   256   0.0600000    1.0080
  257        HC    1  MOL    H257   257   0.0600000    1.0080
  258        HC    1  MOL    H258   258   0.0300000    1.0080
  259        HC    1  MOL    H259   259   0.0300000    1.0080
  260        HC    1  MOL    H260   260   0.0300000    1.0080
  261        HC    1  MOL    H261   261   0.0600000    1.0080
  262        HC    1  MOL    H262   262   0.0600000    1.0080
  263        HC    1  MOL    H263   263   0.0600000    1.0080
  264        HC    1  MOL    H264   264   0.0600000    1.0080
  265        HC    1  MOL    H265   265   0.0600000    1.0080
  266        HC    1  MOL    H266   266   0.0600000    1.0080
  267        HC    1  MOL    H267   267   0.0600000    1.0080
  268        CT    1  MOL    C268   268  -0.1200000   12.0115
  269        CT    1  MOL    C269   269   0.1700000   12.0115
  270        OS    1  MOL    O270   270  -0.4000000   15.9994
  271        CT    1  MOL    C271   271   0.1400000   12.0115
  272        CT    1  MOL    C272   272  -0.0600000   12.0115
  273        CT    1  MOL    C273   273  -0.1800000   12.0115
  274        CT    1  MOL    C274   274  -0.1800000   12.0115
  275        HC    1  MOL    H275   275   0.0600000    1.0080
  276        HC    1  MOL    H276   276   0.0600000    1.0080
  277        HC    1  MOL    H277   277   0.0300000    1.0080
  278        HC    1  MOL    H278   278   0.0300000    1.0080
  279        HC    1  MOL    H279   279   0.0300000    1.0080
  280        HC    1  MOL    H280   280   0.0600000    1.0080
  281        HC    1  MOL    H281   281   0.0600000    1.0080
  282        HC    1  MOL    H282   282   0.0600000    1.0080
  283        HC    1  MOL    H283   283   0.0600000    1.0080
  284        HC    1  MOL    H284   284   0.0600000    1.0080
  285        HC    1  MOL    H285   285   0.0600000    1.0080
  286        HC    1  MOL    H286   286   0.0600000    1.0080
  287        CT    1  MOL    C287   287  -0.1200000   12.0115
  288        CT    1  MOL    C288   288   0.1700000   12.0115
  289        OS    1  MOL    O289   289  -0.4000000   15.9994
  290        CT    1  MOL    C290   290   0.1400000   12.0115
  291        CT    1  MOL    C291   291  -0.0600000   12.0115
  292        CT    1  MOL    C292   292  -0.1800000   12.0115
  293        CT    1  MOL    C293   293  -0.1800000   12.0115
  294        HC    1  MOL    H294   294   0.0600000    1.0080
  295        HC    1  MOL    H295   295   0.0600000    1.0080
  296        HC    1  MOL    H296   296   0.0300000    1.0080
  297        HC    1  MOL    H297   297   0.0300000    1.0080
  298        HC    1  MOL    H298   298   0.0300000    1.0080
  299        HC    1  MOL    H299   299   0.0600000    1.0080
  300        HC    1  MOL    H300   300   0.0600000    1.0080
  301        HC    1  MOL    H301   301   0.0600000    1.0080
  302        HC    1  MOL    H302   302   0.0600000    1.0080
  303        HC    1  MOL    H303   303   0.0600000    1.0080
  304        HC    1  MOL    H304   304   0.0600000    1.0080
  305        HC    1  MOL    H305   305   0.0600000    1.0080
  306        CT    1  MOL    C306   306  -0.1200000   12.0115
  307        CT    1  MOL    C307   307   0.1700000   12.0115
  308        OS    1  MOL    O308   308  -0.4000000   15.9994
  309        CT    1  MOL    C309   309   0.1400000   12.0115
  310        CT    1  MOL    C310   310  -0.0600000   12.0115
  311        CT    1  MOL    C311   311  -0.1800000   12.0115
  312        CT    1  MOL    C312   312  -0.1800000   12.0115
  313        HC    1  MOL    H313   313   0.0600000    1.0080
  314        HC    1  MOL    H314   314   0.0600000    1.0080
  315        HC    1  MOL    H315   315   0.0300000    1.0080
  316        HC    1  MOL    H316   316   0.0300000    1.0080
  317        HC    1  MOL    H317   317   0.0300000    1.0080
  318        HC    1  MOL    H318   318   0.0600000    1.0080
  319        HC    1  MOL    H319   319   0.0600000    1.0080
  320        HC    1  MOL    H320   320   0.0600000    1.0080
  321        HC    1  MOL    H321   321   0.0600000    1.0080
  322        HC    1  MOL    H322   322   0.0600000    1.0080
  323        HC    1  MOL    H323   323   0.0600000    1.0080
  324        HC    1  MOL    H324   324   0.0600000    1.0080
  325        CT    1  MOL    C325   325  -0.1200000   12.0115
  326        CT    1  MOL    C326   326   0.1700000   12.0115
  327        OS    1  MOL    O327   327  -0.4000000   15.9994
  328        CT    1  MOL    C328   328   0.1400000   12.0115
  329        CT    1  MOL    C329   329  -0.0600000   12.0115
  330        CT    1  MOL    C330   330  -0.1800000   12.0115
  331        CT    1  MOL    C331   331  -0.1800000   12.0115
  332        HC    1  MOL    H332   332   0.0600000    1.0080
  333        HC    1  MOL    H333   333   0.0600000    1.0080
  334        HC    1  MOL    H334   334   0.0300000    1.0080
  335        HC    1  MOL    H335   335   0.0300000    1.0080
  336        HC    1  MOL    H336   336   0.0300000    1.0080
  337        HC    1  MOL    H337   337   0.0600000    1.0080
  338        HC    1  MOL    H338   338   0.0600000    1.0080
  339        HC    1  MOL    H339   339   0.0600000    1.0080
  340        HC    1  MOL    H340   340   0.0600000    1.0080
  341        HC    1  MOL    H341   341   0.0600000    1.0080
  342        HC    1  MOL    H342   342   0.0600000    1.0080
  343        HC    1  MOL    H343   343   0.0600000    1.0080
  344        CT    1  MOL    C344   344  -0.1200000   12.0115
  345        CT    1  MOL    C345   345   0.1700000   12.0115
  346        OS    1  MOL    O346   346  -0.4000000   15.9994
  347        CT    1  MOL    C347   347   0.1400000   12.0115
  348        CT    1  MOL    C348   348  -0.0600000   12.0115
  349        CT    1  MOL    C349   349  -0.1800000   12.0115
  350        CT    1  MOL    C350   350  -0.1800000   12.0115
  351        HC    1  MOL    H351   351   0.0600000    1.0080
  352        HC    1  MOL    H352   352   0.0600000    1.0080
  353        HC    1  MOL    H353   353   0.0300000    1.0080
  354        HC    1  MOL    H354   354   0.0300000    1.0080
  355        HC    1  MOL    H355   355   0.0300000    1.0080
  356        HC    1  MOL    H356   356   0.0600000    1.0080
  357        HC    1  MOL    H357   357   0.0600000    1.0080
  358        HC    1  MOL    H358   358   0.0600000    1.0080
  359        HC    1  MOL    H359   359   0.0600000    1.0080
  360        HC    1  MOL    H360   360   0.0600000    1.0080
  361        HC    1  MOL    H361   361   0.0600000    1.0080
  362        HC    1  MOL    H362   362   0.0600000    1.0080
  363        CT    1  MOL    C363   363  -0.1200000   12.0115
  364        CT    1  MOL    C364   364   0.1400000   12.0115
  365        OS    1  MOL    O365   365  -0.4000000   15.9994
  366        CT    1  MOL    C366   366   0.1400000   12.0115
  367        CT    1  MOL    C367   367  -0.0600000   12.0115
  368        CT    1  MOL    C368   368  -0.1800000   12.0115
  369        CT    1  MOL    C369   369  -0.1800000   12.0115
  370        HC    1  MOL    H370   370   0.0600000    1.0080
  371        HC    1  MOL    H371   371   0.0600000    1.0080
  372        HC    1  MOL    H372   372   0.0300000    1.0080
  373        HC    1  MOL    H373   373   0.0300000    1.0080
  374        HC    1  MOL    H374   374   0.0300000    1.0080
  375        HC    1  MOL    H375   375   0.0600000    1.0080
  376        HC    1  MOL    H376   376   0.0600000    1.0080
  377        HC    1  MOL    H377   377   0.0600000    1.0080
  378        HC    1  MOL    H378   378   0.0600000    1.0080
  379        HC    1  MOL    H379   379   0.0600000    1.0080
  380        HC    1  MOL    H380   380   0.0600000    1.0080
  381        HC    1  MOL    H381   381   0.0600000    1.0080
  382        HC    1  MOL    H382   382   0.0300000    1.0080

[ bonds ]
      1      2   1      0.1529 224262.4000
      1      8   1      0.1090 284512.0000
      1      9   1      0.1090 284512.0000
      1     20   1      0.1090 284512.0000
      2      3   1      0.1410 267776.0000
      2     10   1      0.1090 284512.0000
      2     21   1      0.1529 224262.4000
      3      4   1      0.1410 267776.0000
      4      5   1      0.1529 224262.4000
      4     11   1      0.1090 284512.0000
      4     12   1      0.1090 284512.0000
      5      6   1      0.1529 224262.4000
      5      7   1      0.1529 224262.4000
      5     13   1      0.1090 284512.0000
      6     14   1      0.1090 284512.0000
      6     15   1      0.1090 284512.0000
      6     16   1      0.1090 284512.0000
      7     17   1      0.1090 284512.0000
      7     18   1      0.1090 284512.0000
      7     19   1      0.1090 284512.0000
     21     22   1      0.1529 224262.4000
     21     28   1      0.1090 284512.0000
     21     29   1      0.1090 284512.0000
     22     23   1      0.1410 267776.0000
     22     30   1      0.1090 284512.0000
     22     40   1      0.1529 224262.4000
     23     24   1      0.1410 267776.0000
     24     25   1      0.1529 224262.4000
     24     31   1      0.1090 284512.0000
     24     32   1      0.1090 284512.0000
     25     26   1      0.1529 224262.4000
     25     27   1      0.1529 224262.4000
     25     33   1      0.1090 284512.0000
     26     34   1      0.1090 284512.0000
     26     35   1      0.1090 284512.0000
     26     36   1      0.1090 284512.0000
     27     37   1      0.1090 284512.0000
     27     38   1      0.1090 284512.0000
     27     39   1      0.1090 284512.0000
     40     41   1      0.1529 224262.4000
     40     47   1      0.1090 284512.0000
     40     48   1      0.1090 284512.0000
     41     42   1      0.1410 267776.0000
     41     49   1      0.1090 284512.0000
     41     59   1      0.1529 224262.4000
     42     43   1      0.1410 267776.0000
     43     44   1      0.1529 224262.4000
     43     50   1      0.1090 284512.0000
     43     51   1      0.1090 284512.0000
     44     45   1      0.1529 224262.4000
     44     46   1      0.1529 224262.4000
     44     52   1      0.1090 284512.0000
     45     53   1      0.1090 284512.0000
     45     54   1      0.1090 284512.0000
     45     55   1      0.1090 284512.0000
     46     56   1      0.1090 284512.0000
     46     57   1      0.1090 284512.0000
     46     58   1      0.1090 284512.0000
     59     60   1      0.1529 224262.4000
     59     66   1      0.1090 284512.0000
     59     67   1      0.1090 284512.0000
     60     61   1      0.1410 267776.0000
     60     68   1      0.1090 284512.0000
     60     78   1      0.1529 224262.4000
     61     62   1      0.1410 267776.0000
     62     63   1      0.1529 224262.4000
     62     69   1      0.1090 284512.0000
     62     70   1      0.1090 284512.0000
     63     64   1      0.1529 224262.4000
     63     65   1      0.1529 224262.4000
     63     71   1      0.1090 284512.0000
     64     72   1      0.1090 284512.0000
     64     73   1      0.1090 284512.0000
     64     74   1      0.1090 284512.0000
     65     75   1      0.1090 284512.0000
     65     76   1      0.1090 284512.0000
     65     77   1      0.1090 284512.0000
     78     79   1      0.1529 224262.4000
     78     85   1      0.1090 284512.0000
     78     86   1      0.1090 284512.0000
     79     80   1      0.1410 267776.0000
     79     87   1      0.1090 284512.0000
     79     97   1      0.1529 224262.4000
     80     81   1      0.1410 267776.0000
     81     82   1      0.1529 224262.4000
     81     88   1      0.1090 284512.0000
     81     89   1      0.1090 284512.0000
     82     83   1      0.1529 224262.4000
     82     84   1      0.1529 224262.4000
     82     90   1      0.1090 284512.0000
     83     91   1      0.1090 284512.0000
     83     92   1      0.1090 284512.0000
     83     93   1      0.1090 284512.0000
     84     94   1      0.1090 284512.0000
     84     95   1      0.1090 284512.0000
     84     96   1      0.1090 284512.0000
     97     98   1      0.1529 224262.4000
     97    104   1      0.1090 284512.0000
     97    105   1      0.1090 284512.0000
     98     99   1      0.1410 267776.0000
     98    106   1      0.1090 284512.0000
     98    116   1      0.1529 224262.4000
     99    100   1      0.1410 267776.0000
    100    101   1      0.1529 224262.4000
    100    107   1      0.1090 284512.0000
    100    108   1      0.1090 284512.0000
    101    102   1      0.1529 224262.4000
    101    103   1      0.1529 224262.4000
    101    109   1      0.1090 284512.0000
    102    110   1      0.1090 284512.0000
    102    111   1      0.1090 284512.0000
    102    112   1      0.1090 284512.0000
    103    113   1      0.1090 284512.0000
    103    114   1      0.1090 284512.0000
    103    115   1      0.1090 284512.0000
    116    117   1      0.1529 224262.4000
    116    123   1      0.1090 284512.0000
    116    124   1      0.1090 284512.0000
    117    118   1      0.1410 267776.0000
    117    125   1      0.1090 284512.0000
    117    135   1      0.1529 224262.4000
    118    119   1      0.1410 267776.0000
    119    120   1      0.1529 224262.4000
    119    126   1      0.1090 284512.0000
    119    127   1      0.1090 284512.0000
    120    121   1      0.1529 224262.4000
    120    122   1      0.1529 224262.4000
    120    128   1      0.1090 284512.0000
    121    129   1      0.1090 284512.0000
    121    130   1      0.1090 284512.0000
    121    131   1      0.1090 284512.0000
    122    132   1      0.1090 284512.0000
    122    133   1      0.1090 284512.0000
    122    134   1      0.1090 284512.0000
    135    136   1      0.1529 224262.4000
    135    142   1      0.1090 284512.0000
    135    143   1      0.1090 284512.0000
    136    137   1      0.1410 267776.0000
    136    144   1      0.1090 284512.0000
    136    154   1      0.1529 224262.4000
    137    138   1      0.1410 267776.0000
    138    139   1      0.1529 224262.4000
    138    145   1      0.1090 284512.0000
    138    146   1      0.1090 284512.0000
    139    140   1      0.1529 224262.4000
    139    141   1      0.1529 224262.4000
    139    147   1      0.1090 284512.0000
    140    148   1      0.1090 284512.0000
    140    149   1      0.1090 284512.0000
    140    150   1      0.1090 284512.0000
    141    151   1      0.1090 284512.0000
    141    152   1      0.1090 284512.0000
    141    153   1      0.1090 284512.0000
    154    155   1      0.1529 224262.4000
    154    161   1      0.1090 284512.0000
    154    162   1      0.1090 284512.0000
    155    156   1      0.1410 267776.0000
    155    163   1      0.1090 284512.0000
    155    173   1      0.1529 224262.4000
    156    157   1      0.1410 267776.0000
    157    158   1      0.1529 224262.4000
    157    164   1      0.1090 284512.0000
    157    165   1      0.1090 284512.0000
    158    159   1      0.1529 224262.4000
    158    160   1      0.1529 224262.4000
    158    166   1      0.1090 284512.0000
    159    167   1      0.1090 284512.0000
    159    168   1      0.1090 284512.0000
    159    169   1      0.1090 284512.0000
    160    170   1      0.1090 284512.0000
    160    171   1      0.1090 284512.0000
    160    172   1      0.1090 284512.0000
    173    174   1      0.1529 224262.4000
    173    180   1      0.1090 284512.0000
    173    181   1      0.1090 284512.0000
    174    175   1      0.1410 267776.0000
    174    182   1      0.1090 284512.0000
    174    192   1      0.1529 224262.4000
    175    176   1      0.1410 267776.0000
    176    177   1      0.1529 224262.4000
    176    183   1      0.1090 284512.0000
    176    184   1      0.1090 284512.0000
    177    178   1      0.1529 224262.4000
    177    179   1      0.1529 224262.4000
    177    185   1      0.1090 284512.0000
    178    186   1      0.1090 284512.0000
    178    187   1      0.1090 284512.0000
    178    188   1      0.1090 284512.0000
    179    189   1      0.1090 284512.0000
    179    190   1      0.1090 284512.0000
    179    191   1      0.1090 284512.0000
    192    193   1      0.1529 224262.4000
    192    199   1      0.1090 284512.0000
    192    200   1      0.1090 284512.0000
    193    194   1      0.1410 267776.0000
    193    201   1      0.1090 284512.0000
    193    211   1      0.1529 224262.4000
    194    195   1      0.1410 267776.0000
    195    196   1      0.1529 224262.4000
    195    202   1      0.1090 284512.0000
    195    203   1      0.1090 284512.0000
    196    197   1      0.1529 224262.4000
    196    198   1      0.1529 224262.4000
    196    204   1      0.1090 284512.0000
    197    205   1      0.1090 284512.0000
    197    206   1      0.1090 284512.0000
    197    207   1      0.1090 284512.0000
    198    208   1      0.1090 284512.0000
    198    209   1      0.1090 284512.0000
    198    210   1      0.1090 284512.0000
    211    212   1      0.1529 224262.4000
    211    218   1      0.1090 284512.0000
    211    219   1      0.1090 284512.0000
    212    213   1      0.1410 267776.0000
    212    220   1      0.1090 284512.0000
    212    230   1      0.1529 224262.4000
    213    214   1      0.1410 267776.0000
    214    215   1      0.1529 224262.4000
    214    221   1      0.1090 284512.0000
    214    222   1      0.1090 284512.0000
    215    216   1      0.1529 224262.4000
    215    217   1      0.1529 224262.4000
    215    223   1      0.1090 284512.0000
    216    224   1      0.1090 284512.0000
    216    225   1      0.1090 284512.0000
    216    226   1      0.1090 284512.0000
    217    227   1      0.1090 284512.0000
    217    228   1      0.1090 284512.0000
    217    229   1      0.1090 284512.0000
    230    231   1      0.1529 224262.4000
    230    237   1      0.1090 284512.0000
    230    238   1      0.1090 284512.0000
    231    232   1      0.1410 267776.0000
    231    239   1      0.1090 284512.0000
    231    249   1      0.1529 224262.4000
    232    233   1      0.1410 267776.0000
    233    234   1      0.1529 224262.4000
    233    240   1      0.1090 284512.0000
    233    241   1      0.1090 284512.0000
    234    235   1      0.1529 224262.4000
    234    236   1      0.1529 224262.4000
    234    242   1      0.1090 284512.0000
    235    243   1      0.1090 284512.0000
    235    244   1      0.1090 284512.0000
    235    245   1      0.1090 284512.0000
    236    246   1      0.1090 284512.0000
    236    247   1      0.1090 284512.0000
    236    248   1      0.1090 284512.0000
    249    250   1      0.1529 224262.4000
    249    256   1      0.1090 284512.0000
    249    257   1      0.1090 284512.0000
    250    251   1      0.1410 267776.0000
    250    258   1      0.1090 284512.0000
    250    268   1      0.1529 224262.4000
    251    252   1      0.1410 267776.0000
    252    253   1      0.1529 224262.4000
    252    259   1      0.1090 284512.0000
    252    260   1      0.1090 284512.0000
    253    254   1      0.1529 224262.4000
    253    255   1      0.1529 224262.4000
    253    261   1      0.1090 284512.0000
    254    262   1      0.1090 284512.0000
    254    263   1      0.1090 284512.0000
    254    264   1      0.1090 284512.0000
    255    265   1      0.1090 284512.0000
    255    266   1      0.1090 284512.0000
    255    267   1      0.1090 284512.0000
    268    269   1      0.1529 224262.4000
    268    275   1      0.1090 284512.0000
    268    276   1      0.1090 284512.0000
    269    270   1      0.1410 267776.0000
    269    277   1      0.1090 284512.0000
    269    287   1      0.1529 224262.4000
    270    271   1      0.1410 267776.0000
    271    272   1      0.1529 224262.4000
    271    278   1      0.1090 284512.0000
    271    279   1      0.1090 284512.0000
    272    273   1      0.1529 224262.4000
    272    274   1      0.1529 224262.4000
    272    280   1      0.1090 284512.0000
    273    281   1      0.1090 284512.0000
    273    282   1      0.1090 284512.0000
    273    283   1      0.1090 284512.0000
    274    284   1      0.1090 284512.0000
    274    285   1      0.1090 284512.0000
    274    286   1      0.1090 284512.0000
    287    288   1      0.1529 224262.4000
    287    294   1      0.1090 284512.0000
    287    295   1      0.1090 284512.0000
    288    289   1      0.1410 267776.0000
    288    296   1      0.1090 284512.0000
    288    306   1      0.1529 224262.4000
    289    290   1      0.1410 267776.0000
    290    291   1      0.1529 224262.4000
    290    297   1      0.1090 284512.0000
    290    298   1      0.1090 284512.0000
    291    292   1      0.1529 224262.4000
    291    293   1      0.1529 224262.4000
    291    299   1      0.1090 284512.0000
    292    300   1      0.1090 284512.0000
    292    301   1      0.1090 284512.0000
    292    302   1      0.1090 284512.0000
    293    303   1      0.1090 284512.0000
    293    304   1      0.1090 284512.0000
    293    305   1      0.1090 284512.0000
    306    307   1      0.1529 224262.4000
    306    313   1      0.1090 284512.0000
    306    314   1      0.1090 284512.0000
    307    308   1      0.1410 267776.0000
    307    315   1      0.1090 284512.0000
    307    325   1      0.1529 224262.4000
    308    309   1      0.1410 267776.0000
    309    310   1      0.1529 224262.4000
    309    316   1      0.1090 284512.0000
    309    317   1      0.1090 284512.0000
    310    311   1      0.1529 224262.4000
    310    312   1      0.1529 224262.4000
    310    318   1      0.1090 284512.0000
    311    319   1      0.1090 284512.0000
    311    320   1      0.1090 284512.0000
    311    321   1      0.1090 284512.0000
    312    322   1      0.1090 284512.0000
    312    323   1      0.1090 284512.0000
    312    324   1      0.1090 284512.0000
    325    326   1      0.1529 224262.4000
    325    332   1      0.1090 284512.0000
    325    333   1      0.1090 284512.0000
    326    327   1      0.1410 267776.0000
    326    334   1      0.1090 284512.0000
    326    344   1      0.1529 224262.4000
    327    328   1      0.1410 267776.0000
    328    329   1      0.1529 224262.4000
    328    335   1      0.1090 284512.0000
    328    336   1      0.1090 284512.0000
    329    330   1      0.1529 224262.4000
    329    331   1      0.1529 224262.4000
    329    337   1      0.1090 284512.0000
    330    338   1      0.1090 284512.0000
    330    339   1      0.1090 284512.0000
    330    340   1      0.1090 284512.0000
    331    341   1      0.1090 284512.0000
    331    342   1      0.1090 284512.0000
    331    343   1      0.1090 284512.0000
    344    345   1      0.1529 224262.4000
    344    351   1      0.1090 284512.0000
    344    352   1      0.1090 284512.0000
    345    346   1      0.1410 267776.0000
    345    353   1      0.1090 284512.0000
    345    363   1      0.1529 224262.4000
    346    347   1      0.1410 267776.0000
    347    348   1      0.1529 224262.4000
    347    354   1      0.1090 284512.0000
    347    355   1      0.1090 284512.0000
    348    349   1      0.1529 224262.4000
    348    350   1      0.1529 224262.4000
    348    356   1      0.1090 284512.0000
    349    357   1      0.1090 284512.0000
    349    358   1      0.1090 284512.0000
    349    359   1      0.1090 284512.0000
    350    360   1      0.1090 284512.0000
    350    361   1      0.1090 284512.0000
    350    362   1      0.1090 284512.0000
    363    364   1      0.1529 224262.4000
    363    370   1      0.1090 284512.0000
    363    371   1      0.1090 284512.0000
    364    365   1      0.1410 267776.0000
    364    372   1      0.1090 284512.0000
    364    382   1      0.1090 284512.0000
    365    366   1      0.1410 267776.0000
    366    367   1      0.1529 224262.4000
    366    373   1      0.1090 284512.0000
    366    374   1      0.1090 284512.0000
    367    368   1      0.1529 224262.4000
    367    369   1      0.1529 224262.4000
    367    375   1      0.1090 284512.0000
    368    376   1      0.1090 284512.0000
    368    377   1      0.1090 284512.0000
    368    378   1      0.1090 284512.0000
    369    379   1      0.1090 284512.0000
    369    380   1      0.1090 284512.0000
    369    381   1      0.1090 284512.0000

[ pairs ]
; ai   aj   funct   fudge_QQ  charge_i   charge_j   c6    c12
      8      3   2   0.50000     0.0600000   -0.4000000   2.066619e-04  7.875431e-08
      8     10   2   0.50000     0.0600000    0.0300000   6.128906e-05  1.496315e-08
      8     21   2   0.50000     0.0600000   -0.1200000   2.494471e-04  1.671101e-07
      9      3   2   0.50000     0.0600000   -0.4000000   2.066619e-04  7.875431e-08
      9     10   2   0.50000     0.0600000    0.0300000   6.128906e-05  1.496315e-08
      9     21   2   0.50000     0.0600000   -0.1200000   2.494471e-04  1.671101e-07
     20      3   2   0.50000     0.0600000   -0.4000000   2.066619e-04  7.875431e-08
     20     10   2   0.50000     0.0600000    0.0300000   6.128906e-05  1.496315e-08
     20     21   2   0.50000     0.0600000   -0.1200000   2.494471e-04  1.671101e-07
      1      4   2   0.50000    -0.1800000    0.1400000   1.015252e-03  1.866303e-06
     10      4   2   0.50000     0.0300000    0.1400000   2.494471e-04  1.671101e-07
     21      4   2   0.50000    -0.1200000    0.1400000   1.015252e-03  1.866303e-06
      1     22   2   0.50000    -0.1800000    0.1700000   1.015252e-03  1.866303e-06
      1     28   2   0.50000    -0.1800000    0.0600000   2.494471e-04  1.671101e-07
      1     29   2   0.50000    -0.1800000    0.0600000   2.494471e-04  1.671101e-07
      3     22   2   0.50000    -0.4000000    0.1700000   8.411158e-04  8.795366e-07
      3     28   2   0.50000    -0.4000000    0.0600000   2.066619e-04  7.875431e-08
      3     29   2   0.50000    -0.4000000    0.0600000   2.066619e-04  7.875431e-08
     10     22   2   0.50000     0.0300000    0.1700000   2.494471e-04  1.671101e-07
     10     28   2   0.50000     0.0300000    0.0600000   6.128906e-05  1.496315e-08
     10     29   2   0.50000     0.0300000    0.0600000   6.128906e-05  1.496315e-08
      2      5   2   0.50000     0.1700000   -0.0600000   1.015252e-03  1.866303e-06
      2     11   2   0.50000     0.1700000    0.0300000   2.494471e-04  1.671101e-07
      2     12   2   0.50000     0.1700000    0.0300000   2.494471e-04  1.671101e-07
      3      6   2   0.50000    -0.4000000   -0.1800000   8.411158e-04  8.795366e-07
      3      7   2   0.50000    -0.4000000   -0.1800000   8.411158e-04  8.795366e-07
      3     13   2   0.50000    -0.4000000    0.0600000   2.066619e-04  7.875431e-08
     11      6   2   0.50000     0.0300000   -0.1800000   2.494471e-04  1.671101e-07
     11      7   2   0.50000     0.0300000   -0.1800000   2.494471e-04  1.671101e-07
     11     13   2   0.50000     0.0300000    0.0600000   6.128906e-05  1.496315e-08
     12      6   2   0.50000     0.0300000   -0.1800000   2.494471e-04  1.671101e-07
     12      7   2   0.50000     0.0300000   -0.1800000   2.494471e-04  1.671101e-07
     12     13   2   0.50000     0.0300000    0.0600000   6.128906e-05  1.496315e-08
      4     14   2   0.50000     0.1400000    0.0600000   2.494471e-04  1.671101e-07
      4     15   2   0.50000     0.1400000    0.0600000   2.494471e-04  1.671101e-07
      4     16   2   0.50000     0.1400000    0.0600000   2.494471e-04  1.671101e-07
      7     14   2   0.50000    -0.1800000    0.0600000   2.494471e-04  1.671101e-07
      7     15   2   0.50000    -0.1800000    0.0600000   2.494471e-04  1.671101e-07
      7     16   2   0.50000    -0.1800000    0.0600000   2.494471e-04  1.671101e-07
     13     14   2   0.50000     0.0600000    0.0600000   6.128906e-05  1.496315e-08
     13     15   2   0.50000     0.0600000    0.0600000   6.128906e-05  1.496315e-08
     13     16   2   0.50000     0.0600000    0.0600000   6.128906e-05  1.496315e-08
      4     17   2   0.50000     0.1400000    0.0600000   2.494471e-04  1.671101e-07
      4     18   2   0.50000     0.1400000    0.0600000   2.494471e-04  1.671101e-07
      4     19   2   0.50000     0.1400000    0.0600000   2.494471e-04  1.671101e-07
      6     17   2   0.50000    -0.1800000    0.0600000   2.494471e-04  1.671101e-07
      6     18   2   0.50000    -0.1800000    0.0600000   2.494471e-04  1.671101e-07
      6     19   2   0.50000    -0.1800000    0.0600000   2.494471e-04  1.671101e-07
     13     17   2   0.50000     0.0600000    0.0600000   6.128906e-05  1.496315e-08
     13     18   2   0.50000     0.0600000    0.0600000   6.128906e-05  1.496315e-08
     13     19   2   0.50000     0.0600000    0.0600000   6.128906e-05  1.496315e-08
      2     23   2   0.50000     0.1700000   -0.4000000   8.411158e-04  8.795366e-07
      2     30   2   0.50000     0.1700000    0.0300000   2.494471e-04  1.671101e-07
      2     40   2   0.50000     0.1700000   -0.1200000   1.015252e-03  1.866303e-06
     28     23   2   0.50000     0.0600000   -0.4000000   2.066619e-04  7.875431e-08
     28     30   2   0.50000     0.0600000    0.0300000   6.128906e-05  1.496315e-08
     28     40   2   0.50000     0.0600000   -0.1200000   2.494471e-04  1.671101e-07
     29     23   2   0.50000     0.0600000   -0.4000000   2.066619e-04  7.875431e-08
     29     30   2   0.50000     0.0600000    0.0300000   6.128906e-05  1.496315e-08
     29     40   2   0.50000     0.0600000   -0.1200000   2.494471e-04  1.671101e-07
     21     24   2   0.50000    -0.1200000    0.1400000   1.015252e-03  1.866303e-06
     30     24   2   0.50000     0.0300000    0.1400000   2.494471e-04  1.671101e-07
     40     24   2   0.50000    -0.1200000    0.1400000   1.015252e-03  1.866303e-06
     21     41   2   0.50000    -0.1200000    0.1700000   1.015252e-03  1.866303e-06
     21     47   2   0.50000    -0.1200000    0.0600000   2.494471e-04  1.671101e-07
     21     48   2   0.50000    -0.1200000    0.0600000   2.494471e-04  1.671101e-07
     23     41   2   0.50000    -0.4000000    0.1700000   8.411158e-04  8.795366e-07
     23     47   2   0.50000    -0.4000000    0.0600000   2.066619e-04  7.875431e-08
     23     48   2   0.50000    -0.4000000    0.0600000   2.066619e-04  7.875431e-08
     30     41   2   0.50000     0.0300000    0.1700000   2.494471e-04  1.671101e-07
     30     47   2   0.50000     0.0300000    0.0600000   6.128906e-05  1.496315e-08
     30     48   2   0.50000     0.0300000    0.0600000   6.128906e-05  1.496315e-08
     22     25   2   0.50000     0.1700000   -0.0600000   1.015252e-03  1.866303e-06
     22     31   2   0.50000     0.1700000    0.0300000   2.494471e-04  1.671101e-07
     22     32   2   0.50000     0.1700000    0.0300000   2.494471e-04  1.671101e-07
     23     26   2   0.50000    -0.4000000   -0.1800000   8.411158e-04  8.795366e-07
     23     27   2   0.50000    -0.4000000   -0.1800000   8.411158e-04  8.795366e-07
     23     33   2   0.50000    -0.4000000    0.0600000   2.066619e-04  7.875431e-08
     31     26   2   0.50000     0.0300000   -0.1800000   2.494471e-04  1.671101e-07
     31     27   2   0.50000     0.0300000   -0.1800000   2.494471e-04  1.671101e-07
     31     33   2   0.50000     0.0300000    0.0600000   6.128906e-05  1.496315e-08
     32     26   2   0.50000     0.0300000   -0.1800000   2.494471e-04  1.671101e-07
     32     27   2   0.50000     0.0300000   -0.1800000   2.494471e-04  1.671101e-07
     32     33   2   0.50000     0.0300000    0.0600000   6.128906e-05  1.496315e-08
     24     34   2   0.50000     0.1400000    0.0600000   2.494471e-04  1.671101e-07
     24     35   2   0.50000     0.1400000    0.0600000   2.494471e-04  1.671101e-07
     24     36   2   0.50000     0.1400000    0.0600000   2.494471e-04  1.671101e-07
     27     34   2   0.50000    -0.1800000    0.0600000   2.494471e-04  1.671101e-07
     27     35   2   0.50000    -0.1800000    0.0600000   2.494471e-04  1.671101e-07
     27     36   2   0.50000    -0.1800000    0.0600000   2.494471e-04  1.671101e-07
     33     34   2   0.50000     0.0600000    0.0600000   6.128906e-05  1.496315e-08
     33     35   2   0.50000     0.0600000    0.0600000   6.128906e-05  1.496315e-08
     33     36   2   0.50000     0.0600000    0.0600000   6.128906e-05  1.496315e-08
     24     37   2   0.50000     0.1400000    0.0600000   2.494471e-04  1.671101e-07
     24     38   2   0.50000     0.1400000    0.0600000   2.494471e-04  1.671101e-07
     24     39   2   0.50000     0.1400000    0.0600000   2.494471e-04  1.671101e-07
     26     37   2   0.50000    -0.1800000    0.0600000   2.494471e-04  1.671101e-07
     26     38   2   0.50000    -0.1800000    0.0600000   2.494471e-04  1.671101e-07
     26     39   2   0.50000    -0.1800000    0.0600000   2.494471e-04  1.671101e-07
     33     37   2   0.50000     0.0600000    0.0600000   6.128906e-05  1.496315e-08
     33     38   2   0.50000     0.0600000    0.0600000   6.128906e-05  1.496315e-08
     33     39   2   0.50000     0.0600000    0.0600000   6.128906e-05  1.496315e-08
     22     42   2   0.50000     0.1700000   -0.4000000   8.411158e-04  8.795366e-07
     22     49   2   0.50000     0.1700000    0.0300000   2.494471e-04  1.671101e-07
     22     59   2   0.50000     0.1700000   -0.1200000   1.015252e-03  1.866303e-06
     47     42   2   0.50000     0.0600000   -0.4000000   2.066619e-04  7.875431e-08
     47     49   2   0.50000     0.0600000    0.0300000   6.128906e-05  1.496315e-08
     47     59   2   0.50000     0.0600000   -0.1200000   2.494471e-04  1.671101e-07
     48     42   2   0.50000     0.0600000   -0.4000000   2.066619e-04  7.875431e-08
     48     49   2   0.50000     0.0600000    0.0300000   6.128906e-05  1.496315e-08
     48     59   2   0.50000     0.0600000   -0.1200000   2.494471e-04  1.671101e-07
     40     43   2   0.50000    -0.1200000    0.1400000   1.015252e-03  1.866303e-06
     49     43   2   0.50000     0.0300000    0.1400000   2.494471e-04  1.671101e-07
     59     43   2   0.50000    -0.1200000    0.1400000   1.015252e-03  1.866303e-06
     40     60   2   0.50000    -0.1200000    0.1700000   1.015252e-03  1.866303e-06
     40     66   2   0.50000    -0.1200000    0.0600000   2.494471e-04  1.671101e-07
     40     67   2   0.50000    -0.1200000    0.0600000   2.494471e-04  1.671101e-07
     42     60   2   0.50000    -0.4000000    0.1700000   8.411158e-04  8.795366e-07
     42     66   2   0.50000    -0.4000000    0.0600000   2.066619e-04  7.875431e-08
     42     67   2   0.50000    -0.4000000    0.0600000   2.066619e-04  7.875431e-08
     49     60   2   0.50000     0.0300000    0.1700000   2.494471e-04  1.671101e-07
     49     66   2   0.50000     0.0300000    0.0600000   6.128906e-05  1.496315e-08
     49     67   2   0.50000     0.0300000    0.0600000   6.128906e-05  1.496315e-08
     41     44   2   0.50000     0.1700000   -0.0600000   1.015252e-03  1.866303e-06
     41     50   2   0.50000     0.1700000    0.0300000   2.494471e-04  1.671101e-07
     41     51   2   0.50000     0.1700000    0.0300000   2.494471e-04  1.671101e-07
     42     45   2   0.50000    -0.4000000   -0.1800000   8.411158e-04  8.795366e-07
     42     46   2   0.50000    -0.4000000   -0.1800000   8.411158e-04  8.795366e-07
     42     52   2   0.50000    -0.4000000    0.0600000   2.066619e-04  7.875431e-08
     50     45   2   0.50000     0.0300000   -0.1800000   2.494471e-04  1.671101e-07
     50     46   2   0.50000     0.0300000   -0.1800000   2.494471e-04  1.671101e-07
     50     52   2   0.50000     0.0300000    0.0600000   6.128906e-05  1.496315e-08
     51     45   2   0.50000     0.0300000   -0.1800000   2.494471e-04  1.671101e-07
     51     46   2   0.50000     0.0300000   -0.1800000   2.494471e-04  1.671101e-07
     51     52   2   0.50000     0.0300000    0.0600000   6.128906e-05  1.496315e-08
     43     53   2   0.50000     0.1400000    0.0600000   2.494471e-04  1.671101e-07
     43     54   2   0.50000     0.1400000    0.0600000   2.494471e-04  1.671101e-07
     43     55   2   0.50000     0.1400000    0.0600000   2.494471e-04  1.671101e-07
     46     53   2   0.50000    -0.1800000    0.0600000   2.494471e-04  1.671101e-07
     46     54   2   0.50000    -0.1800000    0.0600000   2.494471e-04  1.671101e-07
     46     55   2   0.50000    -0.1800000    0.0600000   2.494471e-04  1.671101e-07
     52     53   2   0.50000     0.0600000    0.0600000   6.128906e-05  1.496315e-08
     52     54   2   0.50000     0.0600000    0.0600000   6.128906e-05  1.496315e-08
     52     55   2   0.50000     0.0600000    0.0600000   6.128906e-05  1.496315e-08
     43     56   2   0.50000     0.1400000    0.0600000   2.494471e-04  1.671101e-07
     43     57   2   0.50000     0.1400000    0.0600000   2.494471e-04  1.671101e-07
     43     58   2   0.50000     0.1400000    0.0600000   2.494471e-04  1.671101e-07
     45     56   2   0.50000    -0.1800000    0.0600000   2.494471e-04  1.671101e-07
     45     57   2   0.50000    -0.1800000    0.0600000   2.494471e-04  1.671101e-07
     45     58   2   0.50000    -0.1800000    0.0600000   2.494471e-04  1.671101e-07
     52     56   2   0.50000     0.0600000    0.0600000   6.128906e-05  1.496315e-08
     52     57   2   0.50000     0.0600000    0.0600000   6.128906e-05  1.496315e-08
     52     58   2   0.50000     0.0600000    0.0600000   6.128906e-05  1.496315e-08
     41     61   2   0.50000     0.1700000   -0.4000000   8.411158e-04  8.795366e-07
     41     68   2   0.50000     0.1700000    0.0300000   2.494471e-04  1.671101e-07
     41     78   2   0.50000     0.1700000   -0.1200000   1.015252e-03  1.866303e-06
     66     61   2   0.50000     0.0600000   -0.4000000   2.066619e-04  7.875431e-08
     66     68   2   0.50000     0.0600000    0.0300000   6.128906e-05  1.496315e-08
     66     78   2   0.50000     0.0600000   -0.1200000   2.494471e-04  1.671101e-07
     67     61   2   0.50000     0.0600000   -0.4000000   2.066619e-04  7.875431e-08
     67     68   2   0.50000     0.0600000    0.0300000   6.128906e-05  1.496315e-08
     67     78   2   0.50000     0.0600000   -0.1200000   2.494471e-04  1.671101e-07
     59     62   2   0.50000    -0.1200000    0.1400000   1.015252e-03  1.866303e-06
     68     62   2   0.50000     0.0300000    0.1400000   2.494471e-04  1.671101e-07
     78     62   2   0.50000    -0.1200000    0.1400000   1.015252e-03  1.866303e-06
     59     79   2   0.50000    -0.1200000    0.1700000   1.015252e-03  1.866303e-06
     59     85   2   0.50000    -0.1200000    0.0600000   2.494471e-04  1.671101e-07
     59     86   2   0.50000    -0.1200000    0.0600000   2.494471e-04  1.671101e-07
     61     79   2   0.50000    -0.4000000    0.1700000   8.411158e-04  8.795366e-07
     61     85   2   0.50000    -0.4000000    0.0600000   2.066619e-04  7.875431e-08
     61     86   2   0.50000    -0.4000000    0.0600000   2.066619e-04  7.875431e-08
     68     79   2   0.50000     0.0300000    0.1700000   2.494471e-04  1.671101e-07
     68     85   2   0.50000     0.0300000    0.0600000   6.128906e-05  1.496315e-08
     68     86   2   0.50000     0.0300000    0.0600000   6.128906e-05  1.496315e-08
     60     63   2   0.50000     0.1700000   -0.0600000   1.015252e-03  1.866303e-06
     60     69   2   0.50000     0.1700000    0.0300000   2.494471e-04  1.671101e-07
     60     70   2   0.50000     0.1700000    0.0300000   2.494471e-04  1.671101e-07
     61     64   2   0.50000    -0.4000000   -0.1800000   8.411158e-04  8.795366e-07
     61     65   2   0.50000    -0.4000000   -0.1800000   8.411158e-04  8.795366e-07
     61     71   2   0.50000    -0.4000000    0.0600000   2.066619e-04  7.875431e-08
     69     64   2   0.50000     0.0300000   -0.1800000   2.494471e-04  1.671101e-07
     69     65   2   0.50000     0.0300000   -0.1800000   2.494471e-04  1.671101e-07
     69     71   2   0.50000     0.0300000    0.0600000   6.128906e-05  1.496315e-08
     70     64   2   0.50000     0.0300000   -0.1800000   2.494471e-04  1.671101e-07
     70     65   2   0.50000     0.0300000   -0.1800000   2.494471e-04  1.671101e-07
     70     71   2   0.50000     0.0300000    0.0600000   6.128906e-05  1.496315e-08
     62     72   2   0.50000     0.1400000    0.0600000   2.494471e-04  1.671101e-07
     62     73   2   0.50000     0.1400000    0.0600000   2.494471e-04  1.671101e-07
     62     74   2   0.50000     0.1400000    0.0600000   2.494471e-04  1.671101e-07
     65     72   2   0.50000    -0.1800000    0.0600000   2.494471e-04  1.671101e-07
     65     73   2   0.50000    -0.1800000    0.0600000   2.494471e-04  1.671101e-07
     65     74   2   0.50000    -0.1800000    0.0600000   2.494471e-04  1.671101e-07
     71     72   2   0.50000     0.0600000    0.0600000   6.128906e-05  1.496315e-08
     71     73   2   0.50000     0.0600000    0.0600000   6.128906e-05  1.496315e-08
     71     74   2   0.50000     0.0600000    0.0600000   6.128906e-05  1.496315e-08
     62     75   2   0.50000     0.1400000    0.0600000   2.494471e-04  1.671101e-07
     62     76   2   0.50000     0.1400000    0.0600000   2.494471e-04  1.671101e-07
     62     77   2   0.50000     0.1400000    0.0600000   2.494471e-04  1.671101e-07
     64     75   2   0.50000    -0.1800000    0.0600000   2.494471e-04  1.671101e-07
     64     76   2   0.50000    -0.1800000    0.0600000   2.494471e-04  1.671101e-07
     64     77   2   0.50000    -0.1800000    0.0600000   2.494471e-04  1.671101e-07
     71     75   2   0.50000     0.0600000    0.0600000   6.128906e-05  1.496315e-08
     71     76   2   0.50000     0.0600000    0.0600000   6.128906e-05  1.496315e-08
     71     77   2   0.50000     0.0600000    0.0600000   6.128906e-05  1.496315e-08
     60     80   2   0.50000     0.1700000   -0.4000000   8.411158e-04  8.795366e-07
     60     87   2   0.50000     0.1700000    0.0300000   2.494471e-04  1.671101e-07
     60     97   2   0.50000     0.1700000   -0.1200000   1.015252e-03  1.866303e-06
     85     80   2   0.50000     0.0600000   -0.4000000   2.066619e-04  7.875431e-08
     85     87   2   0.50000     0.0600000    0.0300000   6.128906e-05  1.496315e-08
     85     97   2   0.50000     0.0600000   -0.1200000   2.494471e-04  1.671101e-07
     86     80   2   0.50000     0.0600000   -0.4000000   2.066619e-04  7.875431e-08
     86     87   2   0.50000     0.0600000    0.0300000   6.128906e-05  1.496315e-08
     86     97   2   0.50000     0.0600000   -0.1200000   2.494471e-04  1.671101e-07
     78     81   2   0.50000    -0.1200000    0.1400000   1.015252e-03  1.866303e-06
     87     81   2   0.50000     0.0300000    0.1400000   2.494471e-04  1.671101e-07
     97     81   2   0.50000    -0.1200000    0.1400000   1.015252e-03  1.866303e-06
     78     98   2   0.50000    -0.1200000    0.1700000   1.015252e-03  1.866303e-06
     78    104   2   0.50000    -0.1200000    0.0600000   2.494471e-04  1.671101e-07
     78    105   2   0.50000    -0.1200000    0.0600000   2.494471e-04  1.671101e-07
     80     98   2   0.50000    -0.4000000    0.1700000   8.411158e-04  8.795366e-07
     80    104   2   0.50000    -0.4000000    0.0600000   2.066619e-04  7.875431e-08
     80    105   2   0.50000    -0.4000000    0.0600000   2.066619e-04  7.875431e-08
     87     98   2   0.50000     0.0300000    0.1700000   2.494471e-04  1.671101e-07
     87    104   2   0.50000     0.0300000    0.0600000   6.128906e-05  1.496315e-08
     87    105   2   0.50000     0.0300000    0.0600000   6.128906e-05  1.496315e-08
     79     82   2   0.50000     0.1700000   -0.0600000   1.015252e-03  1.866303e-06
     79     88   2   0.50000     0.1700000    0.0300000   2.494471e-04  1.671101e-07
     79     89   2   0.50000     0.1700000    0.0300000   2.494471e-04  1.671101e-07
     80     83   2   0.50000    -0.4000000   -0.1800000   8.411158e-04  8.795366e-07
     80     84   2   0.50000    -0.4000000   -0.1800000   8.411158e-04  8.795366e-07
     80     90   2   0.50000    -0.4000000    0.0600000   2.066619e-04  7.875431e-08
     88     83   2   0.50000     0.0300000   -0.1800000   2.494471e-04  1.671101e-07
     88     84   2   0.50000     0.0300000   -0.1800000   2.494471e-04  1.671101e-07
     88     90   2   0.50000     0.0300000    0.0600000   6.128906e-05  1.496315e-08
     89     83   2   0.50000     0.0300000   -0.1800000   2.494471e-04  1.671101e-07
     89     84   2   0.50000     0.0300000   -0.1800000   2.494471e-04  1.671101e-07
     89     90   2   0.50000     0.0300000    0.0600000   6.128906e-05  1.496315e-08
     81     91   2   0.50000     0.1400000    0.0600000   2.494471e-04  1.671101e-07
     81     92   2   0.50000     0.1400000    0.0600000   2.494471e-04  1.671101e-07
     81     93   2   0.50000     0.1400000    0.0600000   2.494471e-04  1.671101e-07
     84     91   2   0.50000    -0.1800000    0.0600000   2.494471e-04  1.671101e-07
     84     92   2   0.50000    -0.1800000    0.0600000   2.494471e-04  1.671101e-07
     84     93   2   0.50000    -0.1800000    0.0600000   2.494471e-04  1.671101e-07
     90     91   2   0.50000     0.0600000    0.0600000   6.128906e-05  1.496315e-08
     90     92   2   0.50000     0.0600000    0.0600000   6.128906e-05  1.496315e-08
     90     93   2   0.50000     0.0600000    0.0600000   6.128906e-05  1.496315e-08
     81     94   2   0.50000     0.1400000    0.0600000   2.494471e-04  1.671101e-07
     81     95   2   0.50000     0.1400000    0.0600000   2.494471e-04  1.671101e-07
     81     96   2   0.50000     0.1400000    0.0600000   2.494471e-04  1.671101e-07
     83     94   2   0.50000    -0.1800000    0.0600000   2.494471e-04  1.671101e-07
     83     95   2   0.50000    -0.1800000    0.0600000   2.494471e-04  1.671101e-07
     83     96   2   0.50000    -0.1800000    0.0600000   2.494471e-04  1.671101e-07
     90     94   2   0.50000     0.0600000    0.0600000   6.128906e-05  1.496315e-08
     90     95   2   0.50000     0.0600000    0.0600000   6.128906e-05  1.496315e-08
     90     96   2   0.50000     0.0600000    0.0600000   6.128906e-05  1.496315e-08
     79     99   2   0.50000     0.1700000   -0.4000000   8.411158e-04  8.795366e-07
     79    106   2   0.50000     0.1700000    0.0300000   2.494471e-04  1.671101e-07
     79    116   2   0.50000     0.1700000   -0.1200000   1.015252e-03  1.866303e-06
    104     99   2   0.50000     0.0600000   -0.4000000   2.066619e-04  7.875431e-08
    104    106   2   0.50000     0.0600000    0.0300000   6.128906e-05  1.496315e-08
    104    116   2   0.50000     0.0600000   -0.1200000   2.494471e-04  1.671101e-07
    105     99   2   0.50000     0.0600000   -0.4000000   2.066619e-04  7.875431e-08
    105    106   2   0.50000     0.0600000    0.0300000   6.128906e-05  1.496315e-08
    105    116   2   0.50000     0.0600000   -0.1200000   2.494471e-04  1.671101e-07
     97    100   2   0.50000    -0.1200000    0.1400000   1.015252e-03  1.866303e-06
    106    100   2   0.50000     0.0300000    0.1400000   2.494471e-04  1.671101e-07
    116    100   2   0.50000    -0.1200000    0.1400000   1.015252e-03  1.866303e-06
     97    117   2   0.50000    -0.1200000    0.1700000   1.015252e-03  1.866303e-06
     97    123   2   0.50000    -0.1200000    0.0600000   2.494471e-04  1.671101e-07
     97    124   2   0.50000    -0.1200000    0.0600000   2.494471e-04  1.671101e-07
     99    117   2   0.50000    -0.4000000    0.1700000   8.411158e-04  8.795366e-07
     99    123   2   0.50000    -0.4000000    0.0600000   2.066619e-04  7.875431e-08
     99    124   2   0.50000    -0.4000000    0.0600000   2.066619e-04  7.875431e-08
    106    117   2   0.50000     0.0300000    0.1700000   2.494471e-04  1.671101e-07
    106    123   2   0.50000     0.0300000    0.0600000   6.128906e-05  1.496315e-08
    106    124   2   0.50000     0.0300000    0.0600000   6.128906e-05  1.496315e-08
     98    101   2   0.50000     0.1700000   -0.0600000   1.015252e-03  1.866303e-06
     98    107   2   0.50000     0.1700000    0.0300000   2.494471e-04  1.671101e-07
     98    108   2   0.50000     0.1700000    0.0300000   2.494471e-04  1.671101e-07
     99    102   2   0.50000    -0.4000000   -0.1800000   8.411158e-04  8.795366e-07
     99    103   2   0.50000    -0.4000000   -0.1800000   8.411158e-04  8.795366e-07
     99    109   2   0.50000    -0.4000000    0.0600000   2.066619e-04  7.875431e-08
    107    102   2   0.50000     0.0300000   -0.1800000   2.494471e-04  1.671101e-07
    107    103   2   0.50000     0.0300000   -0.1800000   2.494471e-04  1.671101e-07
    107    109   2   0.50000     0.0300000    0.0600000   6.128906e-05  1.496315e-08
    108    102   2   0.50000     0.0300000   -0.1800000   2.494471e-04  1.671101e-07
    108    103   2   0.50000     0.0300000   -0.1800000   2.494471e-04  1.671101e-07
    108    109   2   0.50000     0.0300000    0.0600000   6.128906e-05  1.496315e-08
    100    110   2   0.50000     0.1400000    0.0600000   2.494471e-04  1.671101e-07
    100    111   2   0.50000     0.1400000    0.0600000   2.494471e-04  1.671101e-07
    100    112   2   0.50000     0.1400000    0.0600000   2.494471e-04  1.671101e-07
    103    110   2   0.50000    -0.1800000    0.0600000   2.494471e-04  1.671101e-07
    103    111   2   0.50000    -0.1800000    0.0600000   2.494471e-04  1.671101e-07
    103    112   2   0.50000    -0.1800000    0.0600000   2.494471e-04  1.671101e-07
    109    110   2   0.50000     0.0600000    0.0600000   6.128906e-05  1.496315e-08
    109    111   2   0.50000     0.0600000    0.0600000   6.128906e-05  1.496315e-08
    109    112   2   0.50000     0.0600000    0.0600000   6.128906e-05  1.496315e-08
    100    113   2   0.50000     0.1400000    0.0600000   2.494471e-04  1.671101e-07
    100    114   2   0.50000     0.1400000    0.0600000   2.494471e-04  1.671101e-07
    100    115   2   0.50000     0.1400000    0.0600000   2.494471e-04  1.671101e-07
    102    113   2   0.50000    -0.1800000    0.0600000   2.494471e-04  1.671101e-07
    102    114   2   0.50000    -0.1800000    0.0600000   2.494471e-04  1.671101e-07
    102    115   2   0.50000    -0.1800000    0.0600000   2.494471e-04  1.671101e-07
    109    113   2   0.50000     0.0600000    0.0600000   6.128906e-05  1.496315e-08
    109    114   2   0.50000     0.0600000    0.0600000   6.128906e-05  1.496315e-08
    109    115   2   0.50000     0.0600000    0.0600000   6.128906e-05  1.496315e-08
     98    118   2   0.50000     0.1700000   -0.4000000   8.411158e-04  8.795366e-07
     98    125   2   0.50000     0.1700000    0.0300000   2.494471e-04  1.671101e-07
     98    135   2   0.50000     0.1700000   -0.1200000   1.015252e-03  1.866303e-06
    123    118   2   0.50000     0.0600000   -0.4000000   2.066619e-04  7.875431e-08
    123    125   2   0.50000     0.0600000    0.0300000   6.128906e-05  1.496315e-08
    123    135   2   0.50000     0.0600000   -0.1200000   2.494471e-04  1.671101e-07
    124    118   2   0.50000     0.0600000   -0.4000000   2.066619e-04  7.875431e-08
    124    125   2   0.50000     0.0600000    0.0300000   6.128906e-05  1.496315e-08
    124    135   2   0.50000     0.0600000   -0.1200000   2.494471e-04  1.671101e-07
    116    119   2   0.50000    -0.1200000    0.1400000   1.015252e-03  1.866303e-06
    125    119   2   0.50000     0.0300000    0.1400000   2.494471e-04  1.671101e-07
    135    119   2   0.50000    -0.1200000    0.1400000   1.015252e-03  1.866303e-06
    116    136   2   0.50000    -0.1200000    0.1700000   1.015252e-03  1.866303e-06
    116    142   2   0.50000    -0.1200000    0.0600000   2.494471e-04  1.671101e-07
    116    143   2   0.50000    -0.1200000    0.0600000   2.494471e-04  1.671101e-07
    118    136   2   0.50000    -0.4000000    0.1700000   8.411158e-04  8.795366e-07
    118    142   2   0.50000    -0.4000000    0.0600000   2.066619e-04  7.875431e-08
    118    143   2   0.50000    -0.4000000    0.0600000   2.066619e-04  7.875431e-08
    125    136   2   0.50000     0.0300000    0.1700000   2.494471e-04  1.671101e-07
    125    142   2   0.50000     0.0300000    0.0600000   6.128906e-05  1.496315e-08
    125    143   2   0.50000     0.0300000    0.0600000   6.128906e-05  1.496315e-08
    117    120   2   0.50000     0.1700000   -0.0600000   1.015252e-03  1.866303e-06
    117    126   2   0.50000     0.1700000    0.0300000   2.494471e-04  1.671101e-07
    117    127   2   0.50000     0.1700000    0.0300000   2.494471e-04  1.671101e-07
    118    121   2   0.50000    -0.4000000   -0.1800000   8.411158e-04  8.795366e-07
    118    122   2   0.50000    -0.4000000   -0.1800000   8.411158e-04  8.795366e-07
    118    128   2   0.50000    -0.4000000    0.0600000   2.066619e-04  7.875431e-08
    126    121   2   0.50000     0.0300000   -0.1800000   2.494471e-04  1.671101e-07
    126    122   2   0.50000     0.0300000   -0.1800000   2.494471e-04  1.671101e-07
    126    128   2   0.50000     0.0300000    0.0600000   6.128906e-05  1.496315e-08
    127    121   2   0.50000     0.0300000   -0.1800000   2.494471e-04  1.671101e-07
    127    122   2   0.50000     0.0300000   -0.1800000   2.494471e-04  1.671101e-07
    127    128   2   0.50000     0.0300000    0.0600000   6.128906e-05  1.496315e-08
    119    129   2   0.50000     0.1400000    0.0600000   2.494471e-04  1.671101e-07
    119    130   2   0.50000     0.1400000    0.0600000   2.494471e-04  1.671101e-07
    119    131   2   0.50000     0.1400000    0.0600000   2.494471e-04  1.671101e-07
    122    129   2   0.50000    -0.1800000    0.0600000   2.494471e-04  1.671101e-07
    122    130   2   0.50000    -0.1800000    0.0600000   2.494471e-04  1.671101e-07
    122    131   2   0.50000    -0.1800000    0.0600000   2.494471e-04  1.671101e-07
    128    129   2   0.50000     0.0600000    0.0600000   6.128906e-05  1.496315e-08
    128    130   2   0.50000     0.0600000    0.0600000   6.128906e-05  1.496315e-08
    128    131   2   0.50000     0.0600000    0.0600000   6.128906e-05  1.496315e-08
    119    132   2   0.50000     0.1400000    0.0600000   2.494471e-04  1.671101e-07
    119    133   2   0.50000     0.1400000    0.0600000   2.494471e-04  1.671101e-07
    119    134   2   0.50000     0.1400000    0.0600000   2.494471e-04  1.671101e-07
    121    132   2   0.50000    -0.1800000    0.0600000   2.494471e-04  1.671101e-07
    121    133   2   0.50000    -0.1800000    0.0600000   2.494471e-04  1.671101e-07
    121    134   2   0.50000    -0.1800000    0.0600000   2.494471e-04  1.671101e-07
    128    132   2   0.50000     0.0600000    0.0600000   6.128906e-05  1.496315e-08
    128    133   2   0.50000     0.0600000    0.0600000   6.128906e-05  1.496315e-08
    128    134   2   0.50000     0.0600000    0.0600000   6.128906e-05  1.496315e-08
    117    137   2   0.50000     0.1700000   -0.4000000   8.411158e-04  8.795366e-07
    117    144   2   0.50000     0.1700000    0.0300000   2.494471e-04  1.671101e-07
    117    154   2   0.50000     0.1700000   -0.1200000   1.015252e-03  1.866303e-06
    142    137   2   0.50000     0.0600000   -0.4000000   2.066619e-04  7.875431e-08
    142    144   2   0.50000     0.0600000    0.0300000   6.128906e-05  1.496315e-08
    142    154   2   0.50000     0.0600000   -0.1200000   2.494471e-04  1.671101e-07
    143    137   2   0.50000     0.0600000   -0.4000000   2.066619e-04  7.875431e-08
    143    144   2   0.50000     0.0600000    0.0300000   6.128906e-05  1.496315e-08
    143    154   2   0.50000     0.0600000   -0.1200000   2.494471e-04  1.671101e-07
    135    138   2   0.50000    -0.1200000    0.1400000   1.015252e-03  1.866303e-06
    144    138   2   0.50000     0.0300000    0.1400000   2.494471e-04  1.671101e-07
    154    138   2   0.50000    -0.1200000    0.1400000   1.015252e-03  1.866303e-06
    135    155   2   0.50000    -0.1200000    0.1700000   1.015252e-03  1.866303e-06
    135    161   2   0.50000    -0.1200000    0.0600000   2.494471e-04  1.671101e-07
    135    162   2   0.50000    -0.1200000    0.0600000   2.494471e-04  1.671101e-07
    137    155   2   0.50000    -0.4000000    0.1700000   8.411158e-04  8.795366e-07
    137    161   2   0.50000    -0.4000000    0.0600000   2.066619e-04  7.875431e-08
    137    162   2   0.50000    -0.4000000    0.0600000   2.066619e-04  7.875431e-08
    144    155   2   0.50000     0.0300000    0.1700000   2.494471e-04  1.671101e-07
    144    161   2   0.50000     0.0300000    0.0600000   6.128906e-05  1.496315e-08
    144    162   2   0.50000     0.0300000    0.0600000   6.128906e-05  1.496315e-08
    136    139   2   0.50000     0.1700000   -0.0600000   1.015252e-03  1.866303e-06
    136    145   2   0.50000     0.1700000    0.0300000   2.494471e-04  1.671101e-07
    136    146   2   0.50000     0.1700000    0.0300000   2.494471e-04  1.671101e-07
    137    140   2   0.50000    -0.4000000   -0.1800000   8.411158e-04  8.795366e-07
    137    141   2   0.50000    -0.4000000   -0.1800000   8.411158e-04  8.795366e-07
    137    147   2   0.50000    -0.4000000    0.0600000   2.066619e-04  7.875431e-08
    145    140   2   0.50000     0.0300000   -0.1800000   2.494471e-04  1.671101e-07
    145    141   2   0.50000     0.0300000   -0.1800000   2.494471e-04  1.671101e-07
    145    147   2   0.50000     0.0300000    0.0600000   6.128906e-05  1.496315e-08
    146    140   2   0.50000     0.0300000   -0.1800000   2.494471e-04  1.671101e-07
    146    141   2   0.50000     0.0300000   -0.1800000   2.494471e-04  1.671101e-07
    146    147   2   0.50000     0.0300000    0.0600000   6.128906e-05  1.496315e-08
    138    148   2   0.50000     0.1400000    0.0600000   2.494471e-04  1.671101e-07
    138    149   2   0.50000     0.1400000    0.0600000   2.494471e-04  1.671101e-07
    138    150   2   0.50000     0.1400000    0.0600000   2.494471e-04  1.671101e-07
    141    148   2   0.50000    -0.1800000    0.0600000   2.494471e-04  1.671101e-07
    141    149   2   0.50000    -0.1800000    0.0600000   2.494471e-04  1.671101e-07
    141    150   2   0.50000    -0.1800000    0.0600000   2.494471e-04  1.671101e-07
    147    148   2   0.50000     0.0600000    0.0600000   6.128906e-05  1.496315e-08
    147    149   2   0.50000     0.0600000    0.0600000   6.128906e-05  1.496315e-08
    147    150   2   0.50000     0.0600000    0.0600000   6.128906e-05  1.496315e-08
    138    151   2   0.50000     0.1400000    0.0600000   2.494471e-04  1.671101e-07
    138    152   2   0.50000     0.1400000    0.0600000   2.494471e-04  1.671101e-07
    138    153   2   0.50000     0.1400000    0.0600000   2.494471e-04  1.671101e-07
    140    151   2   0.50000    -0.1800000    0.0600000   2.494471e-04  1.671101e-07
    140    152   2   0.50000    -0.1800000    0.0600000   2.494471e-04  1.671101e-07
    140    153   2   0.50000    -0.1800000    0.0600000   2.494471e-04  1.671101e-07
    147    151   2   0.50000     0.0600000    0.0600000   6.128906e-05  1.496315e-08
    147    152   2   0.50000     0.0600000    0.0600000   6.128906e-05  1.496315e-08
    147    153   2   0.50000     0.0600000    0.0600000   6.128906e-05  1.496315e-08
    136    156   2   0.50000     0.1700000   -0.4000000   8.411158e-04  8.795366e-07
    136    163   2   0.50000     0.1700000    0.0300000   2.494471e-04  1.671101e-07
    136    173   2   0.50000     0.1700000   -0.1200000   1.015252e-03  1.866303e-06
    161    156   2   0.50000     0.0600000   -0.4000000   2.066619e-04  7.875431e-08
    161    163   2   0.50000     0.0600000    0.0300000   6.128906e-05  1.496315e-08
    161    173   2   0.50000     0.0600000   -0.1200000   2.494471e-04  1.671101e-07
    162    156   2   0.50000     0.0600000   -0.4000000   2.066619e-04  7.875431e-08
    162    163   2   0.50000     0.0600000    0.0300000   6.128906e-05  1.496315e-08
    162    173   2   0.50000     0.0600000   -0.1200000   2.494471e-04  1.671101e-07
    154    157   2   0.50000    -0.1200000    0.1400000   1.015252e-03  1.866303e-06
    163    157   2   0.50000     0.0300000    0.1400000   2.494471e-04  1.671101e-07
    173    157   2   0.50000    -0.1200000    0.1400000   1.015252e-03  1.866303e-06
    154    174   2   0.50000    -0.1200000    0.1700000   1.015252e-03  1.866303e-06
    154    180   2   0.50000    -0.1200000    0.0600000   2.494471e-04  1.671101e-07
    154    181   2   0.50000    -0.1200000    0.0600000   2.494471e-04  1.671101e-07
    156    174   2   0.50000    -0.4000000    0.1700000   8.411158e-04  8.795366e-07
    156    180   2   0.50000    -0.4000000    0.0600000   2.066619e-04  7.875431e-08
    156    181   2   0.50000    -0.4000000    0.0600000   2.066619e-04  7.875431e-08
    163    174   2   0.50000     0.0300000    0.1700000   2.494471e-04  1.671101e-07
    163    180   2   0.50000     0.0300000    0.0600000   6.128906e-05  1.496315e-08
    163    181   2   0.50000     0.0300000    0.0600000   6.128906e-05  1.496315e-08
    155    158   2   0.50000     0.1700000   -0.0600000   1.015252e-03  1.866303e-06
    155    164   2   0.50000     0.1700000    0.0300000   2.494471e-04  1.671101e-07
    155    165   2   0.50000     0.1700000    0.0300000   2.494471e-04  1.671101e-07
    156    159   2   0.50000    -0.4000000   -0.1800000   8.411158e-04  8.795366e-07
    156    160   2   0.50000    -0.4000000   -0.1800000   8.411158e-04  8.795366e-07
    156    166   2   0.50000    -0.4000000    0.0600000   2.066619e-04  7.875431e-08
    164    159   2   0.50000     0.0300000   -0.1800000   2.494471e-04  1.671101e-07
    164    160   2   0.50000     0.0300000   -0.1800000   2.494471e-04  1.671101e-07
    164    166   2   0.50000     0.0300000    0.0600000   6.128906e-05  1.496315e-08
    165    159   2   0.50000     0.0300000   -0.1800000   2.494471e-04  1.671101e-07
    165    160   2   0.50000     0.0300000   -0.1800000   2.494471e-04  1.671101e-07
    165    166   2   0.50000     0.0300000    0.0600000   6.128906e-05  1.496315e-08
    157    167   2   0.50000     0.1400000    0.0600000   2.494471e-04  1.671101e-07
    157    168   2   0.50000     0.1400000    0.0600000   2.494471e-04  1.671101e-07
    157    169   2   0.50000     0.1400000    0.0600000   2.494471e-04  1.671101e-07
    160    167   2   0.50000    -0.1800000    0.0600000   2.494471e-04  1.671101e-07
    160    168   2   0.50000    -0.1800000    0.0600000   2.494471e-04  1.671101e-07
    160    169   2   0.50000    -0.1800000    0.0600000   2.494471e-04  1.671101e-07
    166    167   2   0.50000     0.0600000    0.0600000   6.128906e-05  1.496315e-08
    166    168   2   0.50000     0.0600000    0.0600000   6.128906e-05  1.496315e-08
    166    169   2   0.50000     0.0600000    0.0600000   6.128906e-05  1.496315e-08
    157    170   2   0.50000     0.1400000    0.0600000   2.494471e-04  1.671101e-07
    157    171   2   0.50000     0.1400000    0.0600000   2.494471e-04  1.671101e-07
    157    172   2   0.50000     0.1400000    0.0600000   2.494471e-04  1.671101e-07
    159    170   2   0.50000    -0.1800000    0.0600000   2.494471e-04  1.671101e-07
    159    171   2   0.50000    -0.1800000    0.0600000   2.494471e-04  1.671101e-07
    159    172   2   0.50000    -0.1800000    0.0600000   2.494471e-04  1.671101e-07
    166    170   2   0.50000     0.0600000    0.0600000   6.128906e-05  1.496315e-08
    166    171   2   0.50000     0.0600000    0.0600000   6.128906e-05  1.496315e-08
    166    172   2   0.50000     0.0600000    0.0600000   6.128906e-05  1.496315e-08
    155    175   2   0.50000     0.1700000   -0.4000000   8.411158e-04  8.795366e-07
    155    182   2   0.50000     0.1700000    0.0300000   2.494471e-04  1.671101e-07
    155    192   2   0.50000     0.1700000   -0.1200000   1.015252e-03  1.866303e-06
    180    175   2   0.50000     0.0600000   -0.4000000   2.066619e-04  7.875431e-08
    180    182   2   0.50000     0.0600000    0.0300000   6.128906e-05  1.496315e-08
    180    192   2   0.50000     0.0600000   -0.1200000   2.494471e-04  1.671101e-07
    181    175   2   0.50000     0.0600000   -0.4000000   2.066619e-04  7.875431e-08
    181    182   2   0.50000     0.0600000    0.0300000   6.128906e-05  1.496315e-08
    181    192   2   0.50000     0.0600000   -0.1200000   2.494471e-04  1.671101e-07
    173    176   2   0.50000    -0.1200000    0.1400000   1.015252e-03  1.866303e-06
    182    176   2   0.50000     0.0300000    0.1400000   2.494471e-04  1.671101e-07
    192    176   2   0.50000    -0.1200000    0.1400000   1.015252e-03  1.866303e-06
    173    193   2   0.50000    -0.1200000    0.1700000   1.015252e-03  1.866303e-06
    173    199   2   0.50000    -0.1200000    0.0600000   2.494471e-04  1.671101e-07
    173    200   2   0.50000    -0.1200000    0.0600000   2.494471e-04  1.671101e-07
    175    193   2   0.50000    -0.4000000    0.1700000   8.411158e-04  8.795366e-07
    175    199   2   0.50000    -0.4000000    0.0600000   2.066619e-04  7.875431e-08
    175    200   2   0.50000    -0.4000000    0.0600000   2.066619e-04  7.875431e-08
    182    193   2   0.50000     0.0300000    0.1700000   2.494471e-04  1.671101e-07
    182    199   2   0.50000     0.0300000    0.0600000   6.128906e-05  1.496315e-08
    182    200   2   0.50000     0.0300000    0.0600000   6.128906e-05  1.496315e-08
    174    177   2   0.50000     0.1700000   -0.0600000   1.015252e-03  1.866303e-06
    174    183   2   0.50000     0.1700000    0.0300000   2.494471e-04  1.671101e-07
    174    184   2   0.50000     0.1700000    0.0300000   2.494471e-04  1.671101e-07
    175    178   2   0.50000    -0.4000000   -0.1800000   8.411158e-04  8.795366e-07
    175    179   2   0.50000    -0.4000000   -0.1800000   8.411158e-04  8.795366e-07
    175    185   2   0.50000    -0.4000000    0.0600000   2.066619e-04  7.875431e-08
    183    178   2   0.50000     0.0300000   -0.1800000   2.494471e-04  1.671101e-07
    183    179   2   0.50000     0.0300000   -0.1800000   2.494471e-04  1.671101e-07
    183    185   2   0.50000     0.0300000    0.0600000   6.128906e-05  1.496315e-08
    184    178   2   0.50000     0.0300000   -0.1800000   2.494471e-04  1.671101e-07
    184    179   2   0.50000     0.0300000   -0.1800000   2.494471e-04  1.671101e-07
    184    185   2   0.50000     0.0300000    0.0600000   6.128906e-05  1.496315e-08
    176    186   2   0.50000     0.1400000    0.0600000   2.494471e-04  1.671101e-07
    176    187   2   0.50000     0.1400000    0.0600000   2.494471e-04  1.671101e-07
    176    188   2   0.50000     0.1400000    0.0600000   2.494471e-04  1.671101e-07
    179    186   2   0.50000    -0.1800000    0.0600000   2.494471e-04  1.671101e-07
    179    187   2   0.50000    -0.1800000    0.0600000   2.494471e-04  1.671101e-07
    179    188   2   0.50000    -0.1800000    0.0600000   2.494471e-04  1.671101e-07
    185    186   2   0.50000     0.0600000    0.0600000   6.128906e-05  1.496315e-08
    185    187   2   0.50000     0.0600000    0.0600000   6.128906e-05  1.496315e-08
    185    188   2   0.50000     0.0600000    0.0600000   6.128906e-05  1.496315e-08
    176    189   2   0.50000     0.1400000    0.0600000   2.494471e-04  1.671101e-07
    176    190   2   0.50000     0.1400000    0.0600000   2.494471e-04  1.671101e-07
    176    191   2   0.50000     0.1400000    0.0600000   2.494471e-04  1.671101e-07
    178    189   2   0.50000    -0.1800000    0.0600000   2.494471e-04  1.671101e-07
    178    190   2   0.50000    -0.1800000    0.0600000   2.494471e-04  1.671101e-07
    178    191   2   0.50000    -0.1800000    0.0600000   2.494471e-04  1.671101e-07
    185    189   2   0.50000     0.0600000    0.0600000   6.128906e-05  1.496315e-08
    185    190   2   0.50000     0.0600000    0.0600000   6.128906e-05  1.496315e-08
    185    191   2   0.50000     0.0600000    0.0600000   6.128906e-05  1.496315e-08
    174    194   2   0.50000     0.1700000   -0.4000000   8.411158e-04  8.795366e-07
    174    201   2   0.50000     0.1700000    0.0300000   2.494471e-04  1.671101e-07
    174    211   2   0.50000     0.1700000   -0.1200000   1.015252e-03  1.866303e-06
    199    194   2   0.50000     0.0600000   -0.4000000   2.066619e-04  7.875431e-08
    199    201   2   0.50000     0.0600000    0.0300000   6.128906e-05  1.496315e-08
    199    211   2   0.50000     0.0600000   -0.1200000   2.494471e-04  1.671101e-07
    200    194   2   0.50000     0.0600000   -0.4000000   2.066619e-04  7.875431e-08
    200    201   2   0.50000     0.0600000    0.0300000   6.128906e-05  1.496315e-08
    200    211   2   0.50000     0.0600000   -0.1200000   2.494471e-04  1.671101e-07
    192    195   2   0.50000    -0.1200000    0.1400000   1.015252e-03  1.866303e-06
    201    195   2   0.50000     0.0300000    0.1400000   2.494471e-04  1.671101e-07
    211    195   2   0.50000    -0.1200000    0.1400000   1.015252e-03  1.866303e-06
    192    212   2   0.50000    -0.1200000    0.1700000   1.015252e-03  1.866303e-06
    192    218   2   0.50000    -0.1200000    0.0600000   2.494471e-04  1.671101e-07
    192    219   2   0.50000    -0.1200000    0.0600000   2.494471e-04  1.671101e-07
    194    212   2   0.50000    -0.4000000    0.1700000   8.411158e-04  8.795366e-07
    194    218   2   0.50000    -0.4000000    0.0600000   2.066619e-04  7.875431e-08
    194    219   2   0.50000    -0.4000000    0.0600000   2.066619e-04  7.875431e-08
    201    212   2   0.50000     0.0300000    0.1700000   2.494471e-04  1.671101e-07
    201    218   2   0.50000     0.0300000    0.0600000   6.128906e-05  1.496315e-08
    201    219   2   0.50000     0.0300000    0.0600000   6.128906e-05  1.496315e-08
    193    196   2   0.50000     0.1700000   -0.0600000   1.015252e-03  1.866303e-06
    193    202   2   0.50000     0.1700000    0.0300000   2.494471e-04  1.671101e-07
    193    203   2   0.50000     0.1700000    0.0300000   2.494471e-04  1.671101e-07
    194    197   2   0.50000    -0.4000000   -0.1800000   8.411158e-04  8.795366e-07
    194    198   2   0.50000    -0.4000000   -0.1800000   8.411158e-04  8.795366e-07
    194    204   2   0.50000    -0.4000000    0.0600000   2.066619e-04  7.875431e-08
    202    197   2   0.50000     0.0300000   -0.1800000   2.494471e-04  1.671101e-07
    202    198   2   0.50000     0.0300000   -0.1800000   2.494471e-04  1.671101e-07
    202    204   2   0.50000     0.0300000    0.0600000   6.128906e-05  1.496315e-08
    203    197   2   0.50000     0.0300000   -0.1800000   2.494471e-04  1.671101e-07
    203    198   2   0.50000     0.0300000   -0.1800000   2.494471e-04  1.671101e-07
    203    204   2   0.50000     0.0300000    0.0600000   6.128906e-05  1.496315e-08
    195    205   2   0.50000     0.1400000    0.0600000   2.494471e-04  1.671101e-07
    195    206   2   0.50000     0.1400000    0.0600000   2.494471e-04  1.671101e-07
    195    207   2   0.50000     0.1400000    0.0600000   2.494471e-04  1.671101e-07
    198    205   2   0.50000    -0.1800000    0.0600000   2.494471e-04  1.671101e-07
    198    206   2   0.50000    -0.1800000    0.0600000   2.494471e-04  1.671101e-07
    198    207   2   0.50000    -0.1800000    0.0600000   2.494471e-04  1.671101e-07
    204    205   2   0.50000     0.0600000    0.0600000   6.128906e-05  1.496315e-08
    204    206   2   0.50000     0.0600000    0.0600000   6.128906e-05  1.496315e-08
    204    207   2   0.50000     0.0600000    0.0600000   6.128906e-05  1.496315e-08
    195    208   2   0.50000     0.1400000    0.0600000   2.494471e-04  1.671101e-07
    195    209   2   0.50000     0.1400000    0.0600000   2.494471e-04  1.671101e-07
    195    210   2   0.50000     0.1400000    0.0600000   2.494471e-04  1.671101e-07
    197    208   2   0.50000    -0.1800000    0.0600000   2.494471e-04  1.671101e-07
    197    209   2   0.50000    -0.1800000    0.0600000   2.494471e-04  1.671101e-07
    197    210   2   0.50000    -0.1800000    0.0600000   2.494471e-04  1.671101e-07
    204    208   2   0.50000     0.0600000    0.0600000   6.128906e-05  1.496315e-08
    204    209   2   0.50000     0.0600000    0.0600000   6.128906e-05  1.496315e-08
    204    210   2   0.50000     0.0600000    0.0600000   6.128906e-05  1.496315e-08
    193    213   2   0.50000     0.1700000   -0.4000000   8.411158e-04  8.795366e-07
    193    220   2   0.50000     0.1700000    0.0300000   2.494471e-04  1.671101e-07
    193    230   2   0.50000     0.1700000   -0.1200000   1.015252e-03  1.866303e-06
    218    213   2   0.50000     0.0600000   -0.4000000   2.066619e-04  7.875431e-08
    218    220   2   0.50000     0.0600000    0.0300000   6.128906e-05  1.496315e-08
    218    230   2   0.50000     0.0600000   -0.1200000   2.494471e-04  1.671101e-07
    219    213   2   0.50000     0.0600000   -0.4000000   2.066619e-04  7.875431e-08
    219    220   2   0.50000     0.0600000    0.0300000   6.128906e-05  1.496315e-08
    219    230   2   0.50000     0.0600000   -0.1200000   2.494471e-04  1.671101e-07
    211    214   2   0.50000    -0.1200000    0.1400000   1.015252e-03  1.866303e-06
    220    214   2   0.50000     0.0300000    0.1400000   2.494471e-04  1.671101e-07
    230    214   2   0.50000    -0.1200000    0.1400000   1.015252e-03  1.866303e-06
    211    231   2   0.50000    -0.1200000    0.1700000   1.015252e-03  1.866303e-06
    211    237   2   0.50000    -0.1200000    0.0600000   2.494471e-04  1.671101e-07
    211    238   2   0.50000    -0.1200000    0.0600000   2.494471e-04  1.671101e-07
    213    231   2   0.50000    -0.4000000    0.1700000   8.411158e-04  8.795366e-07
    213    237   2   0.50000    -0.4000000    0.0600000   2.066619e-04  7.875431e-08
    213    238   2   0.50000    -0.4000000    0.0600000   2.066619e-04  7.875431e-08
    220    231   2   0.50000     0.0300000    0.1700000   2.494471e-04  1.671101e-07
    220    237   2   0.50000     0.0300000    0.0600000   6.128906e-05  1.496315e-08
    220    238   2   0.50000     0.0300000    0.0600000   6.128906e-05  1.496315e-08
    212    215   2   0.50000     0.1700000   -0.0600000   1.015252e-03  1.866303e-06
    212    221   2   0.50000     0.1700000    0.0300000   2.494471e-04  1.671101e-07
    212    222   2   0.50000     0.1700000    0.0300000   2.494471e-04  1.671101e-07
    213    216   2   0.50000    -0.4000000   -0.1800000   8.411158e-04  8.795366e-07
    213    217   2   0.50000    -0.4000000   -0.1800000   8.411158e-04  8.795366e-07
    213    223   2   0.50000    -0.4000000    0.0600000   2.066619e-04  7.875431e-08
    221    216   2   0.50000     0.0300000   -0.1800000   2.494471e-04  1.671101e-07
    221    217   2   0.50000     0.0300000   -0.1800000   2.494471e-04  1.671101e-07
    221    223   2   0.50000     0.0300000    0.0600000   6.128906e-05  1.496315e-08
    222    216   2   0.50000     0.0300000   -0.1800000   2.494471e-04  1.671101e-07
    222    217   2   0.50000     0.0300000   -0.1800000   2.494471e-04  1.671101e-07
    222    223   2   0.50000     0.0300000    0.0600000   6.128906e-05  1.496315e-08
    214    224   2   0.50000     0.1400000    0.0600000   2.494471e-04  1.671101e-07
    214    225   2   0.50000     0.1400000    0.0600000   2.494471e-04  1.671101e-07
    214    226   2   0.50000     0.1400000    0.0600000   2.494471e-04  1.671101e-07
    217    224   2   0.50000    -0.1800000    0.0600000   2.494471e-04  1.671101e-07
    217    225   2   0.50000    -0.1800000    0.0600000   2.494471e-04  1.671101e-07
    217    226   2   0.50000    -0.1800000    0.0600000   2.494471e-04  1.671101e-07
    223    224   2   0.50000     0.0600000    0.0600000   6.128906e-05  1.496315e-08
    223    225   2   0.50000     0.0600000    0.0600000   6.128906e-05  1.496315e-08
    223    226   2   0.50000     0.0600000    0.0600000   6.128906e-05  1.496315e-08
    214    227   2   0.50000     0.1400000    0.0600000   2.494471e-04  1.671101e-07
    214    228   2   0.50000     0.1400000    0.0600000   2.494471e-04  1.671101e-07
    214    229   2   0.50000     0.1400000    0.0600000   2.494471e-04  1.671101e-07
    216    227   2   0.50000    -0.1800000    0.0600000   2.494471e-04  1.671101e-07
    216    228   2   0.50000    -0.1800000    0.0600000   2.494471e-04  1.671101e-07
    216    229   2   0.50000    -0.1800000    0.0600000   2.494471e-04  1.671101e-07
    223    227   2   0.50000     0.0600000    0.0600000   6.128906e-05  1.496315e-08
    223    228   2   0.50000     0.0600000    0.0600000   6.128906e-05  1.496315e-08
    223    229   2   0.50000     0.0600000    0.0600000   6.128906e-05  1.496315e-08
    212    232   2   0.50000     0.1700000   -0.4000000   8.411158e-04  8.795366e-07
    212    239   2   0.50000     0.1700000    0.0300000   2.494471e-04  1.671101e-07
    212    249   2   0.50000     0.1700000   -0.1200000   1.015252e-03  1.866303e-06
    237    232   2   0.50000     0.0600000   -0.4000000   2.066619e-04  7.875431e-08
    237    239   2   0.50000     0.0600000    0.0300000   6.128906e-05  1.496315e-08
    237    249   2   0.50000     0.0600000   -0.1200000   2.494471e-04  1.671101e-07
    238    232   2   0.50000     0.0600000   -0.4000000   2.066619e-04  7.875431e-08
    238    239   2   0.50000     0.0600000    0.0300000   6.128906e-05  1.496315e-08
    238    249   2   0.50000     0.0600000   -0.1200000   2.494471e-04  1.671101e-07
    230    233   2   0.50000    -0.1200000    0.1400000   1.015252e-03  1.866303e-06
    239    233   2   0.50000     0.0300000    0.1400000   2.494471e-04  1.671101e-07
    249    233   2   0.50000    -0.1200000    0.1400000   1.015252e-03  1.866303e-06
    230    250   2   0.50000    -0.1200000    0.1700000   1.015252e-03  1.866303e-06
    230    256   2   0.50000    -0.1200000    0.0600000   2.494471e-04  1.671101e-07
    230    257   2   0.50000    -0.1200000    0.0600000   2.494471e-04  1.671101e-07
    232    250   2   0.50000    -0.4000000    0.1700000   8.411158e-04  8.795366e-07
    232    256   2   0.50000    -0.4000000    0.0600000   2.066619e-04  7.875431e-08
    232    257   2   0.50000    -0.4000000    0.0600000   2.066619e-04  7.875431e-08
    239    250   2   0.50000     0.0300000    0.1700000   2.494471e-04  1.671101e-07
    239    256   2   0.50000     0.0300000    0.0600000   6.128906e-05  1.496315e-08
    239    257   2   0.50000     0.0300000    0.0600000   6.128906e-05  1.496315e-08
    231    234   2   0.50000     0.1700000   -0.0600000   1.015252e-03  1.866303e-06
    231    240   2   0.50000     0.1700000    0.0300000   2.494471e-04  1.671101e-07
    231    241   2   0.50000     0.1700000    0.0300000   2.494471e-04  1.671101e-07
    232    235   2   0.50000    -0.4000000   -0.1800000   8.411158e-04  8.795366e-07
    232    236   2   0.50000    -0.4000000   -0.1800000   8.411158e-04  8.795366e-07
    232    242   2   0.50000    -0.4000000    0.0600000   2.066619e-04  7.875431e-08
    240    235   2   0.50000     0.0300000   -0.1800000   2.494471e-04  1.671101e-07
    240    236   2   0.50000     0.0300000   -0.1800000   2.494471e-04  1.671101e-07
    240    242   2   0.50000     0.0300000    0.0600000   6.128906e-05  1.496315e-08
    241    235   2   0.50000     0.0300000   -0.1800000   2.494471e-04  1.671101e-07
    241    236   2   0.50000     0.0300000   -0.1800000   2.494471e-04  1.671101e-07
    241    242   2   0.50000     0.0300000    0.0600000   6.128906e-05  1.496315e-08
    233    243   2   0.50000     0.1400000    0.0600000   2.494471e-04  1.671101e-07
    233    244   2   0.50000     0.1400000    0.0600000   2.494471e-04  1.671101e-07
    233    245   2   0.50000     0.1400000    0.0600000   2.494471e-04  1.671101e-07
    236    243   2   0.50000    -0.1800000    0.0600000   2.494471e-04  1.671101e-07
    236    244   2   0.50000    -0.1800000    0.0600000   2.494471e-04  1.671101e-07
    236    245   2   0.50000    -0.1800000    0.0600000   2.494471e-04  1.671101e-07
    242    243   2   0.50000     0.0600000    0.0600000   6.128906e-05  1.496315e-08
    242    244   2   0.50000     0.0600000    0.0600000   6.128906e-05  1.496315e-08
    242    245   2   0.50000     0.0600000    0.0600000   6.128906e-05  1.496315e-08
    233    246   2   0.50000     0.1400000    0.0600000   2.494471e-04  1.671101e-07
    233    247   2   0.50000     0.1400000    0.0600000   2.494471e-04  1.671101e-07
    233    248   2   0.50000     0.1400000    0.0600000   2.494471e-04  1.671101e-07
    235    246   2   0.50000    -0.1800000    0.0600000   2.494471e-04  1.671101e-07
    235    247   2   0.50000    -0.1800000    0.0600000   2.494471e-04  1.671101e-07
    235    248   2   0.50000    -0.1800000    0.0600000   2.494471e-04  1.671101e-07
    242    246   2   0.50000     0.0600000    0.0600000   6.128906e-05  1.496315e-08
    242    247   2   0.50000     0.0600000    0.0600000   6.128906e-05  1.496315e-08
    242    248   2   0.50000     0.0600000    0.0600000   6.128906e-05  1.496315e-08
    231    251   2   0.50000     0.1700000   -0.4000000   8.411158e-04  8.795366e-07
    231    258   2   0.50000     0.1700000    0.0300000   2.494471e-04  1.671101e-07
    231    268   2   0.50000     0.1700000   -0.1200000   1.015252e-03  1.866303e-06
    256    251   2   0.50000     0.0600000   -0.4000000   2.066619e-04  7.875431e-08
    256    258   2   0.50000     0.0600000    0.0300000   6.128906e-05  1.496315e-08
    256    268   2   0.50000     0.0600000   -0.1200000   2.494471e-04  1.671101e-07
    257    251   2   0.50000     0.0600000   -0.4000000   2.066619e-04  7.875431e-08
    257    258   2   0.50000     0.0600000    0.0300000   6.128906e-05  1.496315e-08
    257    268   2   0.50000     0.0600000   -0.1200000   2.494471e-04  1.671101e-07
    249    252   2   0.50000    -0.1200000    0.1400000   1.015252e-03  1.866303e-06
    258    252   2   0.50000     0.0300000    0.1400000   2.494471e-04  1.671101e-07
    268    252   2   0.50000    -0.1200000    0.1400000   1.015252e-03  1.866303e-06
    249    269   2   0.50000    -0.1200000    0.1700000   1.015252e-03  1.866303e-06
    249    275   2   0.50000    -0.1200000    0.0600000   2.494471e-04  1.671101e-07
    249    276   2   0.50000    -0.1200000    0.0600000   2.494471e-04  1.671101e-07
    251    269   2   0.50000    -0.4000000    0.1700000   8.411158e-04  8.795366e-07
    251    275   2   0.50000    -0.4000000    0.0600000   2.066619e-04  7.875431e-08
    251    276   2   0.50000    -0.4000000    0.0600000   2.066619e-04  7.875431e-08
    258    269   2   0.50000     0.0300000    0.1700000   2.494471e-04  1.671101e-07
    258    275   2   0.50000     0.0300000    0.0600000   6.128906e-05  1.496315e-08
    258    276   2   0.50000     0.0300000    0.0600000   6.128906e-05  1.496315e-08
    250    253   2   0.50000     0.1700000   -0.0600000   1.015252e-03  1.866303e-06
    250    259   2   0.50000     0.1700000    0.0300000   2.494471e-04  1.671101e-07
    250    260   2   0.50000     0.1700000    0.0300000   2.494471e-04  1.671101e-07
    251    254   2   0.50000    -0.4000000   -0.1800000   8.411158e-04  8.795366e-07
    251    255   2   0.50000    -0.4000000   -0.1800000   8.411158e-04  8.795366e-07
    251    261   2   0.50000    -0.4000000    0.0600000   2.066619e-04  7.875431e-08
    259    254   2   0.50000     0.0300000   -0.1800000   2.494471e-04  1.671101e-07
    259    255   2   0.50000     0.0300000   -0.1800000   2.494471e-04  1.671101e-07
    259    261   2   0.50000     0.0300000    0.0600000   6.128906e-05  1.496315e-08
    260    254   2   0.50000     0.0300000   -0.1800000   2.494471e-04  1.671101e-07
    260    255   2   0.50000     0.0300000   -0.1800000   2.494471e-04  1.671101e-07
    260    261   2   0.50000     0.0300000    0.0600000   6.128906e-05  1.496315e-08
    252    262   2   0.50000     0.1400000    0.0600000   2.494471e-04  1.671101e-07
    252    263   2   0.50000     0.1400000    0.0600000   2.494471e-04  1.671101e-07
    252    264   2   0.50000     0.1400000    0.0600000   2.494471e-04  1.671101e-07
    255    262   2   0.50000    -0.1800000    0.0600000   2.494471e-04  1.671101e-07
    255    263   2   0.50000    -0.1800000    0.0600000   2.494471e-04  1.671101e-07
    255    264   2   0.50000    -0.1800000    0.0600000   2.494471e-04  1.671101e-07
    261    262   2   0.50000     0.0600000    0.0600000   6.128906e-05  1.496315e-08
    261    263   2   0.50000     0.0600000    0.0600000   6.128906e-05  1.496315e-08
    261    264   2   0.50000     0.0600000    0.0600000   6.128906e-05  1.496315e-08
    252    265   2   0.50000     0.1400000    0.0600000   2.494471e-04  1.671101e-07
    252    266   2   0.50000     0.1400000    0.0600000   2.494471e-04  1.671101e-07
    252    267   2   0.50000     0.1400000    0.0600000   2.494471e-04  1.671101e-07
    254    265   2   0.50000    -0.1800000    0.0600000   2.494471e-04  1.671101e-07
    254    266   2   0.50000    -0.1800000    0.0600000   2.494471e-04  1.671101e-07
    254    267   2   0.50000    -0.1800000    0.0600000   2.494471e-04  1.671101e-07
    261    265   2   0.50000     0.0600000    0.0600000   6.128906e-05  1.496315e-08
    261    266   2   0.50000     0.0600000    0.0600000   6.128906e-05  1.496315e-08
    261    267   2   0.50000     0.0600000    0.0600000   6.128906e-05  1.496315e-08
    250    270   2   0.50000     0.1700000   -0.4000000   8.411158e-04  8.795366e-07
    250    277   2   0.50000     0.1700000    0.0300000   2.494471e-04  1.671101e-07
    250    287   2   0.50000     0.1700000   -0.1200000   1.015252e-03  1.866303e-06
    275    270   2   0.50000     0.0600000   -0.4000000   2.066619e-04  7.875431e-08
    275    277   2   0.50000     0.0600000    0.0300000   6.128906e-05  1.496315e-08
    275    287   2   0.50000     0.0600000   -0.1200000   2.494471e-04  1.671101e-07
    276    270   2   0.50000     0.0600000   -0.4000000   2.066619e-04  7.875431e-08
    276    277   2   0.50000     0.0600000    0.0300000   6.128906e-05  1.496315e-08
    276    287   2   0.50000     0.0600000   -0.1200000   2.494471e-04  1.671101e-07
    268    271   2   0.50000    -0.1200000    0.1400000   1.015252e-03  1.866303e-06
    277    271   2   0.50000     0.0300000    0.1400000   2.494471e-04  1.671101e-07
    287    271   2   0.50000    -0.1200000    0.1400000   1.015252e-03  1.866303e-06
    268    288   2   0.50000    -0.1200000    0.1700000   1.015252e-03  1.866303e-06
    268    294   2   0.50000    -0.1200000    0.0600000   2.494471e-04  1.671101e-07
    268    295   2   0.50000    -0.1200000    0.0600000   2.494471e-04  1.671101e-07
    270    288   2   0.50000    -0.4000000    0.1700000   8.411158e-04  8.795366e-07
    270    294   2   0.50000    -0.4000000    0.0600000   2.066619e-04  7.875431e-08
    270    295   2   0.50000    -0.4000000    0.0600000   2.066619e-04  7.875431e-08
    277    288   2   0.50000     0.0300000    0.1700000   2.494471e-04  1.671101e-07
    277    294   2   0.50000     0.0300000    0.0600000   6.128906e-05  1.496315e-08
    277    295   2   0.50000     0.0300000    0.0600000   6.128906e-05  1.496315e-08
    269    272   2   0.50000     0.1700000   -0.0600000   1.015252e-03  1.866303e-06
    269    278   2   0.50000     0.1700000    0.0300000   2.494471e-04  1.671101e-07
    269    279   2   0.50000     0.1700000    0.0300000   2.494471e-04  1.671101e-07
    270    273   2   0.50000    -0.4000000   -0.1800000   8.411158e-04  8.795366e-07
    270    274   2   0.50000    -0.4000000   -0.1800000   8.411158e-04  8.795366e-07
    270    280   2   0.50000    -0.4000000    0.0600000   2.066619e-04  7.875431e-08
    278    273   2   0.50000     0.0300000   -0.1800000   2.494471e-04  1.671101e-07
    278    274   2   0.50000     0.0300000   -0.1800000   2.494471e-04  1.671101e-07
    278    280   2   0.50000     0.0300000    0.0600000   6.128906e-05  1.496315e-08
    279    273   2   0.50000     0.0300000   -0.1800000   2.494471e-04  1.671101e-07
    279    274   2   0.50000     0.0300000   -0.1800000   2.494471e-04  1.671101e-07
    279    280   2   0.50000     0.0300000    0.0600000   6.128906e-05  1.496315e-08
    271    281   2   0.50000     0.1400000    0.0600000   2.494471e-04  1.671101e-07
    271    282   2   0.50000     0.1400000    0.0600000   2.494471e-04  1.671101e-07
    271    283   2   0.50000     0.1400000    0.0600000   2.494471e-04  1.671101e-07
    274    281   2   0.50000    -0.1800000    0.0600000   2.494471e-04  1.671101e-07
    274    282   2   0.50000    -0.1800000    0.0600000   2.494471e-04  1.671101e-07
    274    283   2   0.50000    -0.1800000    0.0600000   2.494471e-04  1.671101e-07
    280    281   2   0.50000     0.0600000    0.0600000   6.128906e-05  1.496315e-08
    280    282   2   0.50000     0.0600000    0.0600000   6.128906e-05  1.496315e-08
    280    283   2   0.50000     0.0600000    0.0600000   6.128906e-05  1.496315e-08
    271    284   2   0.50000     0.1400000    0.0600000   2.494471e-04  1.671101e-07
    271    285   2   0.50000     0.1400000    0.0600000   2.494471e-04  1.671101e-07
    271    286   2   0.50000     0.1400000    0.0600000   2.494471e-04  1.671101e-07
    273    284   2   0.50000    -0.1800000    0.0600000   2.494471e-04  1.671101e-07
    273    285   2   0.50000    -0.1800000    0.0600000   2.494471e-04  1.671101e-07
    273    286   2   0.50000    -0.1800000    0.0600000   2.494471e-04  1.671101e-07
    280    284   2   0.50000     0.0600000    0.0600000   6.128906e-05  1.496315e-08
    280    285   2   0.50000     0.0600000    0.0600000   6.128906e-05  1.496315e-08
    280    286   2   0.50000     0.0600000    0.0600000   6.128906e-05  1.496315e-08
    269    289   2   0.50000     0.1700000   -0.4000000   8.411158e-04  8.795366e-07
    269    296   2   0.50000     0.1700000    0.0300000   2.494471e-04  1.671101e-07
    269    306   2   0.50000     0.1700000   -0.1200000   1.015252e-03  1.866303e-06
    294    289   2   0.50000     0.0600000   -0.4000000   2.066619e-04  7.875431e-08
    294    296   2   0.50000     0.0600000    0.0300000   6.128906e-05  1.496315e-08
    294    306   2   0.50000     0.0600000   -0.1200000   2.494471e-04  1.671101e-07
    295    289   2   0.50000     0.0600000   -0.4000000   2.066619e-04  7.875431e-08
    295    296   2   0.50000     0.0600000    0.0300000   6.128906e-05  1.496315e-08
    295    306   2   0.50000     0.0600000   -0.1200000   2.494471e-04  1.671101e-07
    287    290   2   0.50000    -0.1200000    0.1400000   1.015252e-03  1.866303e-06
    296    290   2   0.50000     0.0300000    0.1400000   2.494471e-04  1.671101e-07
    306    290   2   0.50000    -0.1200000    0.1400000   1.015252e-03  1.866303e-06
    287    307   2   0.50000    -0.1200000    0.1700000   1.015252e-03  1.866303e-06
    287    313   2   0.50000    -0.1200000    0.0600000   2.494471e-04  1.671101e-07
    287    314   2   0.50000    -0.1200000    0.0600000   2.494471e-04  1.671101e-07
    289    307   2   0.50000    -0.4000000    0.1700000   8.411158e-04  8.795366e-07
    289    313   2   0.50000    -0.4000000    0.0600000   2.066619e-04  7.875431e-08
    289    314   2   0.50000    -0.4000000    0.0600000   2.066619e-04  7.875431e-08
    296    307   2   0.50000     0.0300000    0.1700000   2.494471e-04  1.671101e-07
    296    313   2   0.50000     0.0300000    0.0600000   6.128906e-05  1.496315e-08
    296    314   2   0.50000     0.0300000    0.0600000   6.128906e-05  1.496315e-08
    288    291   2   0.50000     0.1700000   -0.0600000   1.015252e-03  1.866303e-06
    288    297   2   0.50000     0.1700000    0.0300000   2.494471e-04  1.671101e-07
    288    298   2   0.50000     0.1700000    0.0300000   2.494471e-04  1.671101e-07
    289    292   2   0.50000    -0.4000000   -0.1800000   8.411158e-04  8.795366e-07
    289    293   2   0.50000    -0.4000000   -0.1800000   8.411158e-04  8.795366e-07
    289    299   2   0.50000    -0.4000000    0.0600000   2.066619e-04  7.875431e-08
    297    292   2   0.50000     0.0300000   -0.1800000   2.494471e-04  1.671101e-07
    297    293   2   0.50000     0.0300000   -0.1800000   2.494471e-04  1.671101e-07
    297    299   2   0.50000     0.0300000    0.0600000   6.128906e-05  1.496315e-08
    298    292   2   0.50000     0.0300000   -0.1800000   2.494471e-04  1.671101e-07
    298    293   2   0.50000     0.0300000   -0.1800000   2.494471e-04  1.671101e-07
    298    299   2   0.50000     0.0300000    0.0600000   6.128906e-05  1.496315e-08
    290    300   2   0.50000     0.1400000    0.0600000   2.494471e-04  1.671101e-07
    290    301   2   0.50000     0.1400000    0.0600000   2.494471e-04  1.671101e-07
    290    302   2   0.50000     0.1400000    0.0600000   2.494471e-04  1.671101e-07
    293    300   2   0.50000    -0.1800000    0.0600000   2.494471e-04  1.671101e-07
    293    301   2   0.50000    -0.1800000    0.0600000   2.494471e-04  1.671101e-07
    293    302   2   0.50000    -0.1800000    0.0600000   2.494471e-04  1.671101e-07
    299    300   2   0.50000     0.0600000    0.0600000   6.128906e-05  1.496315e-08
    299    301   2   0.50000     0.0600000    0.0600000   6.128906e-05  1.496315e-08
    299    302   2   0.50000     0.0600000    0.0600000   6.128906e-05  1.496315e-08
    290    303   2   0.50000     0.1400000    0.0600000   2.494471e-04  1.671101e-07
    290    304   2   0.50000     0.1400000    0.0600000   2.494471e-04  1.671101e-07
    290    305   2   0.50000     0.1400000    0.0600000   2.494471e-04  1.671101e-07
    292    303   2   0.50000    -0.1800000    0.0600000   2.494471e-04  1.671101e-07
    292    304   2   0.50000    -0.1800000    0.0600000   2.494471e-04  1.671101e-07
    292    305   2   0.50000    -0.1800000    0.0600000   2.494471e-04  1.671101e-07
    299    303   2   0.50000     0.0600000    0.0600000   6.128906e-05  1.496315e-08
    299    304   2   0.50000     0.0600000    0.0600000   6.128906e-05  1.496315e-08
    299    305   2   0.50000     0.0600000    0.0600000   6.128906e-05  1.496315e-08
    288    308   2   0.50000     0.1700000   -0.4000000   8.411158e-04  8.795366e-07
    288    315   2   0.50000     0.1700000    0.0300000   2.494471e-04  1.671101e-07
    288    325   2   0.50000     0.1700000   -0.1200000   1.015252e-03  1.866303e-06
    313    308   2   0.50000     0.0600000   -0.4000000   2.066619e-04  7.875431e-08
    313    315   2   0.50000     0.0600000    0.0300000   6.128906e-05  1.496315e-08
    313    325   2   0.50000     0.0600000   -0.1200000   2.494471e-04  1.671101e-07
    314    308   2   0.50000     0.0600000   -0.4000000   2.066619e-04  7.875431e-08
    314    315   2   0.50000     0.0600000    0.0300000   6.128906e-05  1.496315e-08
    314    325   2   0.50000     0.0600000   -0.1200000   2.494471e-04  1.671101e-07
    306    309   2   0.50000    -0.1200000    0.1400000   1.015252e-03  1.866303e-06
    315    309   2   0.50000     0.0300000    0.1400000   2.494471e-04  1.671101e-07
    325    309   2   0.50000    -0.1200000    0.1400000   1.015252e-03  1.866303e-06
    306    326   2   0.50000    -0.1200000    0.1700000   1.015252e-03  1.866303e-06
    306    332   2   0.50000    -0.1200000    0.0600000   2.494471e-04  1.671101e-07
    306    333   2   0.50000    -0.1200000    0.0600000   2.494471e-04  1.671101e-07
    308    326   2   0.50000    -0.4000000    0.1700000   8.411158e-04  8.795366e-07
    308    332   2   0.50000    -0.4000000    0.0600000   2.066619e-04  7.875431e-08
    308    333   2   0.50000    -0.4000000    0.0600000   2.066619e-04  7.875431e-08
    315    326   2   0.50000     0.0300000    0.1700000   2.494471e-04  1.671101e-07
    315    332   2   0.50000     0.0300000    0.0600000   6.128906e-05  1.496315e-08
    315    333   2   0.50000     0.0300000    0.0600000   6.128906e-05  1.496315e-08
    307    310   2   0.50000     0.1700000   -0.0600000   1.015252e-03  1.866303e-06
    307    316   2   0.50000     0.1700000    0.0300000   2.494471e-04  1.671101e-07
    307    317   2   0.50000     0.1700000    0.0300000   2.494471e-04  1.671101e-07
    308    311   2   0.50000    -0.4000000   -0.1800000   8.411158e-04  8.795366e-07
    308    312   2   0.50000    -0.4000000   -0.1800000   8.411158e-04  8.795366e-07
    308    318   2   0.50000    -0.4000000    0.0600000   2.066619e-04  7.875431e-08
    316    311   2   0.50000     0.0300000   -0.1800000   2.494471e-04  1.671101e-07
    316    312   2   0.50000     0.0300000   -0.1800000   2.494471e-04  1.671101e-07
    316    318   2   0.50000     0.0300000    0.0600000   6.128906e-05  1.496315e-08
    317    311   2   0.50000     0.0300000   -0.1800000   2.494471e-04  1.671101e-07
    317    312   2   0.50000     0.0300000   -0.1800000   2.494471e-04  1.671101e-07
    317    318   2   0.50000     0.0300000    0.0600000   6.128906e-05  1.496315e-08
    309    319   2   0.50000     0.1400000    0.0600000   2.494471e-04  1.671101e-07
    309    320   2   0.50000     0.1400000    0.0600000   2.494471e-04  1.671101e-07
    309    321   2   0.50000     0.1400000    0.0600000   2.494471e-04  1.671101e-07
    312    319   2   0.50000    -0.1800000    0.0600000   2.494471e-04  1.671101e-07
    312    320   2   0.50000    -0.1800000    0.0600000   2.494471e-04  1.671101e-07
    312    321   2   0.50000    -0.1800000    0.0600000   2.494471e-04  1.671101e-07
    318    319   2   0.50000     0.0600000    0.0600000   6.128906e-05  1.496315e-08
    318    320   2   0.50000     0.0600000    0.0600000   6.128906e-05  1.496315e-08
    318    321   2   0.50000     0.0600000    0.0600000   6.128906e-05  1.496315e-08
    309    322   2   0.50000     0.1400000    0.0600000   2.494471e-04  1.671101e-07
    309    323   2   0.50000     0.1400000    0.0600000   2.494471e-04  1.671101e-07
    309    324   2   0.50000     0.1400000    0.0600000   2.494471e-04  1.671101e-07
    311    322   2   0.50000    -0.1800000    0.0600000   2.494471e-04  1.671101e-07
    311    323   2   0.50000    -0.1800000    0.0600000   2.494471e-04  1.671101e-07
    311    324   2   0.50000    -0.1800000    0.0600000   2.494471e-04  1.671101e-07
    318    322   2   0.50000     0.0600000    0.0600000   6.128906e-05  1.496315e-08
    318    323   2   0.50000     0.0600000    0.0600000   6.128906e-05  1.496315e-08
    318    324   2   0.50000     0.0600000    0.0600000   6.128906e-05  1.496315e-08
    307    327   2   0.50000     0.1700000   -0.4000000   8.411158e-04  8.795366e-07
    307    334   2   0.50000     0.1700000    0.0300000   2.494471e-04  1.671101e-07
    307    344   2   0.50000     0.1700000   -0.1200000   1.015252e-03  1.866303e-06
    332    327   2   0.50000     0.0600000   -0.4000000   2.066619e-04  7.875431e-08
    332    334   2   0.50000     0.0600000    0.0300000   6.128906e-05  1.496315e-08
    332    344   2   0.50000     0.0600000   -0.1200000   2.494471e-04  1.671101e-07
    333    327   2   0.50000     0.0600000   -0.4000000   2.066619e-04  7.875431e-08
    333    334   2   0.50000     0.0600000    0.0300000   6.128906e-05  1.496315e-08
    333    344   2   0.50000     0.0600000   -0.1200000   2.494471e-04  1.671101e-07
    325    328   2   0.50000    -0.1200000    0.1400000   1.015252e-03  1.866303e-06
    334    328   2   0.50000     0.0300000    0.1400000   2.494471e-04  1.671101e-07
    344    328   2   0.50000    -0.1200000    0.1400000   1.015252e-03  1.866303e-06
    325    345   2   0.50000    -0.1200000    0.1700000   1.015252e-03  1.866303e-06
    325    351   2   0.50000    -0.1200000    0.0600000   2.494471e-04  1.671101e-07
    325    352   2   0.50000    -0.1200000    0.0600000   2.494471e-04  1.671101e-07
    327    345   2   0.50000    -0.4000000    0.1700000   8.411158e-04  8.795366e-07
    327    351   2   0.50000    -0.4000000    0.0600000   2.066619e-04  7.875431e-08
    327    352   2   0.50000    -0.4000000    0.0600000   2.066619e-04  7.875431e-08
    334    345   2   0.50000     0.0300000    0.1700000   2.494471e-04  1.671101e-07
    334    351   2   0.50000     0.0300000    0.0600000   6.128906e-05  1.496315e-08
    334    352   2   0.50000     0.0300000    0.0600000   6.128906e-05  1.496315e-08
    326    329   2   0.50000     0.1700000   -0.0600000   1.015252e-03  1.866303e-06
    326    335   2   0.50000     0.1700000    0.0300000   2.494471e-04  1.671101e-07
    326    336   2   0.50000     0.1700000    0.0300000   2.494471e-04  1.671101e-07
    327    330   2   0.50000    -0.4000000   -0.1800000   8.411158e-04  8.795366e-07
    327    331   2   0.50000    -0.4000000   -0.1800000   8.411158e-04  8.795366e-07
    327    337   2   0.50000    -0.4000000    0.0600000   2.066619e-04  7.875431e-08
    335    330   2   0.50000     0.0300000   -0.1800000   2.494471e-04  1.671101e-07
    335    331   2   0.50000     0.0300000   -0.1800000   2.494471e-04  1.671101e-07
    335    337   2   0.50000     0.0300000    0.0600000   6.128906e-05  1.496315e-08
    336    330   2   0.50000     0.0300000   -0.1800000   2.494471e-04  1.671101e-07
    336    331   2   0.50000     0.0300000   -0.1800000   2.494471e-04  1.671101e-07
    336    337   2   0.50000     0.0300000    0.0600000   6.128906e-05  1.496315e-08
    328    338   2   0.50000     0.1400000    0.0600000   2.494471e-04  1.671101e-07
    328    339   2   0.50000     0.1400000    0.0600000   2.494471e-04  1.671101e-07
    328    340   2   0.50000     0.1400000    0.0600000   2.494471e-04  1.671101e-07
    331    338   2   0.50000    -0.1800000    0.0600000   2.494471e-04  1.671101e-07
    331    339   2   0.50000    -0.1800000    0.0600000   2.494471e-04  1.671101e-07
    331    340   2   0.50000    -0.1800000    0.0600000   2.494471e-04  1.671101e-07
    337    338   2   0.50000     0.0600000    0.0600000   6.128906e-05  1.496315e-08
    337    339   2   0.50000     0.0600000    0.0600000   6.128906e-05  1.496315e-08
    337    340   2   0.50000     0.0600000    0.0600000   6.128906e-05  1.496315e-08
    328    341   2   0.50000     0.1400000    0.0600000   2.494471e-04  1.671101e-07
    328    342   2   0.50000     0.1400000    0.0600000   2.494471e-04  1.671101e-07
    328    343   2   0.50000     0.1400000    0.0600000   2.494471e-04  1.671101e-07
    330    341   2   0.50000    -0.1800000    0.0600000   2.494471e-04  1.671101e-07
    330    342   2   0.50000    -0.1800000    0.0600000   2.494471e-04  1.671101e-07
    330    343   2   0.50000    -0.1800000    0.0600000   2.494471e-04  1.671101e-07
    337    341   2   0.50000     0.0600000    0.0600000   6.128906e-05  1.496315e-08
    337    342   2   0.50000     0.0600000    0.0600000   6.128906e-05  1.496315e-08
    337    343   2   0.50000     0.0600000    0.0600000   6.128906e-05  1.496315e-08
    326    346   2   0.50000     0.1700000   -0.4000000   8.411158e-04  8.795366e-07
    326    353   2   0.50000     0.1700000    0.0300000   2.494471e-04  1.671101e-07
    326    363   2   0.50000     0.1700000   -0.1200000   1.015252e-03  1.866303e-06
    351    346   2   0.50000     0.0600000   -0.4000000   2.066619e-04  7.875431e-08
    351    353   2   0.50000     0.0600000    0.0300000   6.128906e-05  1.496315e-08
    351    363   2   0.50000     0.0600000   -0.1200000   2.494471e-04  1.671101e-07
    352    346   2   0.50000     0.0600000   -0.4000000   2.066619e-04  7.875431e-08
    352    353   2   0.50000     0.0600000    0.0300000   6.128906e-05  1.496315e-08
    352    363   2   0.50000     0.0600000   -0.1200000   2.494471e-04  1.671101e-07
    344    347   2   0.50000    -0.1200000    0.1400000   1.015252e-03  1.866303e-06
    353    347   2   0.50000     0.0300000    0.1400000   2.494471e-04  1.671101e-07
    363    347   2   0.50000    -0.1200000    0.1400000   1.015252e-03  1.866303e-06
    344    364   2   0.50000    -0.1200000    0.1400000   1.015252e-03  1.866303e-06
    344    370   2   0.50000    -0.1200000    0.0600000   2.494471e-04  1.671101e-07
    344    371   2   0.50000    -0.1200000    0.0600000   2.494471e-04  1.671101e-07
    346    364   2   0.50000    -0.4000000    0.1400000   8.411158e-04  8.795366e-07
    346    370   2   0.50000    -0.4000000    0.0600000   2.066619e-04  7.875431e-08
    346    371   2   0.50000    -0.4000000    0.0600000   2.066619e-04  7.875431e-08
    353    364   2   0.50000     0.0300000    0.1400000   2.494471e-04  1.671101e-07
    353    370   2   0.50000     0.0300000    0.0600000   6.128906e-05  1.496315e-08
    353    371   2   0.50000     0.0300000    0.0600000   6.128906e-05  1.496315e-08
    345    348   2   0.50000     0.1700000   -0.0600000   1.015252e-03  1.866303e-06
    345    354   2   0.50000     0.1700000    0.0300000   2.494471e-04  1.671101e-07
    345    355   2   0.50000     0.1700000    0.0300000   2.494471e-04  1.671101e-07
    346    349   2   0.50000    -0.4000000   -0.1800000   8.411158e-04  8.795366e-07
    346    350   2   0.50000    -0.4000000   -0.1800000   8.411158e-04  8.795366e-07
    346    356   2   0.50000    -0.4000000    0.0600000   2.066619e-04  7.875431e-08
    354    349   2   0.50000     0.0300000   -0.1800000   2.494471e-04  1.671101e-07
    354    350   2   0.50000     0.0300000   -0.1800000   2.494471e-04  1.671101e-07
    354    356   2   0.50000     0.0300000    0.0600000   6.128906e-05  1.496315e-08
    355    349   2   0.50000     0.0300000   -0.1800000   2.494471e-04  1.671101e-07
    355    350   2   0.50000     0.0300000   -0.1800000   2.494471e-04  1.671101e-07
    355    356   2   0.50000     0.0300000    0.0600000   6.128906e-05  1.496315e-08
    347    357   2   0.50000     0.1400000    0.0600000   2.494471e-04  1.671101e-07
    347    358   2   0.50000     0.1400000    0.0600000   2.494471e-04  1.671101e-07
    347    359   2   0.50000     0.1400000    0.0600000   2.494471e-04  1.671101e-07
    350    357   2   0.50000    -0.1800000    0.0600000   2.494471e-04  1.671101e-07
    350    358   2   0.50000    -0.1800000    0.0600000   2.494471e-04  1.671101e-07
    350    359   2   0.50000    -0.1800000    0.0600000   2.494471e-04  1.671101e-07
    356    357   2   0.50000     0.0600000    0.0600000   6.128906e-05  1.496315e-08
    356    358   2   0.50000     0.0600000    0.0600000   6.128906e-05  1.496315e-08
    356    359   2   0.50000     0.0600000    0.0600000   6.128906e-05  1.496315e-08
    347    360   2   0.50000     0.1400000    0.0600000   2.494471e-04  1.671101e-07
    347    361   2   0.50000     0.1400000    0.0600000   2.494471e-04  1.671101e-07
    347    362   2   0.50000     0.1400000    0.0600000   2.494471e-04  1.671101e-07
    349    360   2   0.50000    -0.1800000    0.0600000   2.494471e-04  1.671101e-07
    349    361   2   0.50000    -0.1800000    0.0600000   2.494471e-04  1.671101e-07
    349    362   2   0.50000    -0.1800000    0.0600000   2.494471e-04  1.671101e-07
    356    360   2   0.50000     0.0600000    0.0600000   6.128906e-05  1.496315e-08
    356    361   2   0.50000     0.0600000    0.0600000   6.128906e-05  1.496315e-08
    356    362   2   0.50000     0.0600000    0.0600000   6.128906e-05  1.496315e-08
    345    365   2   0.50000     0.1700000   -0.4000000   8.411158e-04  8.795366e-07
    345    372   2   0.50000     0.1700000    0.0300000   2.494471e-04  1.671101e-07
    345    382   2   0.50000     0.1700000    0.0300000   2.494471e-04  1.671101e-07
    370    365   2   0.50000     0.0600000   -0.4000000   2.066619e-04  7.875431e-08
    370    372   2   0.50000     0.0600000    0.0300000   6.128906e-05  1.496315e-08
    370    382   2   0.50000     0.0600000    0.0300000   6.128906e-05  1.496315e-08
    371    365   2   0.50000     0.0600000   -0.4000000   2.066619e-04  7.875431e-08
    371    372   2   0.50000     0.0600000    0.0300000   6.128906e-05  1.496315e-08
    371    382   2   0.50000     0.0600000    0.0300000   6.128906e-05  1.496315e-08
    363    366   2   0.50000    -0.1200000    0.1400000   1.015252e-03  1.866303e-06
    372    366   2   0.50000     0.0300000    0.1400000   2.494471e-04  1.671101e-07
    382    366   2   0.50000     0.0300000    0.1400000   2.494471e-04  1.671101e-07
    364    367   2   0.50000     0.1400000   -0.0600000   1.015252e-03  1.866303e-06
    364    373   2   0.50000     0.1400000    0.0300000   2.494471e-04  1.671101e-07
    364    374   2   0.50000     0.1400000    0.0300000   2.494471e-04  1.671101e-07
    365    368   2   0.50000    -0.4000000   -0.1800000   8.411158e-04  8.795366e-07
    365    369   2   0.50000    -0.4000000   -0.1800000   8.411158e-04  8.795366e-07
    365    375   2   0.50000    -0.4000000    0.0600000   2.066619e-04  7.875431e-08
    373    368   2   0.50000     0.0300000   -0.1800000   2.494471e-04  1.671101e-07
    373    369   2   0.50000     0.0300000   -0.1800000   2.494471e-04  1.671101e-07
    373    375   2   0.50000     0.0300000    0.0600000   6.128906e-05  1.496315e-08
    374    368   2   0.50000     0.0300000   -0.1800000   2.494471e-04  1.671101e-07
    374    369   2   0.50000     0.0300000   -0.1800000   2.494471e-04  1.671101e-07
    374    375   2   0.50000     0.0300000    0.0600000   6.128906e-05  1.496315e-08
    366    376   2   0.50000     0.1400000    0.0600000   2.494471e-04  1.671101e-07
    366    377   2   0.50000     0.1400000    0.0600000   2.494471e-04  1.671101e-07
    366    378   2   0.50000     0.1400000    0.0600000   2.494471e-04  1.671101e-07
    369    376   2   0.50000    -0.1800000    0.0600000   2.494471e-04  1.671101e-07
    369    377   2   0.50000    -0.1800000    0.0600000   2.494471e-04  1.671101e-07
    369    378   2   0.50000    -0.1800000    0.0600000   2.494471e-04  1.671101e-07
    375    376   2   0.50000     0.0600000    0.0600000   6.128906e-05  1.496315e-08
    375    377   2   0.50000     0.0600000    0.0600000   6.128906e-05  1.496315e-08
    375    378   2   0.50000     0.0600000    0.0600000   6.128906e-05  1.496315e-08
    366    379   2   0.50000     0.1400000    0.0600000   2.494471e-04  1.671101e-07
    366    380   2   0.50000     0.1400000    0.0600000   2.494471e-04  1.671101e-07
    366    381   2   0.50000     0.1400000    0.0600000   2.494471e-04  1.671101e-07
    368    379   2   0.50000    -0.1800000    0.0600000   2.494471e-04  1.671101e-07
    368    380   2   0.50000    -0.1800000    0.0600000   2.494471e-04  1.671101e-07
    368    381   2   0.50000    -0.1800000    0.0600000   2.494471e-04  1.671101e-07
    375    379   2   0.50000     0.0600000    0.0600000   6.128906e-05  1.496315e-08
    375    380   2   0.50000     0.0600000    0.0600000   6.128906e-05  1.496315e-08
    375    381   2   0.50000     0.0600000    0.0600000   6.128906e-05  1.496315e-08

[ angles ]
; ai  aj  ak
      2      1      8   1    110.7000    313.8000
      2      1      9   1    110.7000    313.8000
      2      1     20   1    110.7000    313.8000
      8      1      9   1    107.8000    276.1440
      8      1     20   1    107.8000    276.1440
      9      1     20   1    107.8000    276.1440
      1      2      3   1    109.5000    418.4000
      1      2     10   1    110.7000    313.8000
      1      2     21   1    112.7000    488.2728
      3      2     10   1    109.5000    292.8800
      3      2     21   1    109.5000    418.4000
     10      2     21   1    110.7000    313.8000
      2      3      4   1    109.5000    502.0800
      3      4      5   1    109.5000    418.4000
      3      4     11   1    109.5000    292.8800
      3      4     12   1    109.5000    292.8800
      5      4     11   1    110.7000    313.8000
      5      4     12   1    110.7000    313.8000
     11      4     12   1    107.8000    276.1440
      4      5      6   1    112.7000    488.2728
      4      5      7   1    112.7000    488.2728
      4      5     13   1    110.7000    313.8000
      6      5      7   1    112.7000    488.2728
      6      5     13   1    110.7000    313.8000
      7      5     13   1    110.7000    313.8000
      5      6     14   1    110.7000    313.8000
      5      6     15   1    110.7000    313.8000
      5      6     16   1    110.7000    313.8000
     14      6     15   1    107.8000    276.1440
     14      6     16   1    107.8000    276.1440
     15      6     16   1    107.8000    276.1440
      5      7     17   1    110.7000    313.8000
      5      7     18   1    110.7000    313.8000
      5      7     19   1    110.7000    313.8000
     17      7     18   1    107.8000    276.1440
     17      7     19   1    107.8000    276.1440
     18      7     19   1    107.8000    276.1440
      2     21     22   1    112.7000    488.2728
      2     21     28   1    110.7000    313.8000
      2     21     29   1    110.7000    313.8000
     22     21     28   1    110.7000    313.8000
     22     21     29   1    110.7000    313.8000
     28     21     29   1    107.8000    276.1440
     21     22     23   1    109.5000    418.4000
     21     22     30   1    110.7000    313.8000
     21     22     40   1    112.7000    488.2728
     23     22     30   1    109.5000    292.8800
     23     22     40   1    109.5000    418.4000
     30     22     40   1    110.7000    313.8000
     22     23     24   1    109.5000    502.0800
     23     24     25   1    109.5000    418.4000
     23     24     31   1    109.5000    292.8800
     23     24     32   1    109.5000    292.8800
     25     24     31   1    110.7000    313.8000
     25     24     32   1    110.7000    313.8000
     31     24     32   1    107.8000    276.1440
     24     25     26   1    112.7000    488.2728
     24     25     27   1    112.7000    488.2728
     24     25     33   1    110.7000    313.8000
     26     25     27   1    112.7000    488.2728
     26     25     33   1    110.7000    313.8000
     27     25     33   1    110.7000    313.8000
     25     26     34   1    110.7000    313.8000
     25     26     35   1    110.7000    313.8000
     25     26     36   1    110.7000    313.8000
     34     26     35   1    107.8000    276.1440
     34     26     36   1    107.8000    276.1440
     35     26     36   1    107.8000    276.1440
     25     27     37   1    110.7000    313.8000
     25     27     38   1    110.7000    313.8000
     25     27     39   1    110.7000    313.8000
     37     27     38   1    107.8000    276.1440
     37     27     39   1    107.8000    276.1440
     38     27     39   1    107.8000    276.1440
     22     40     41   1    112.7000    488.2728
     22     40     47   1    110.7000    313.8000
     22     40     48   1    110.7000    313.8000
     41     40     47   1    110.7000    313.8000
     41     40     48   1    110.7000    313.8000
     47     40     48   1    107.8000    276.1440
     40     41     42   1    109.5000    418.4000
     40     41     49   1    110.7000    313.8000
     40     41     59   1    112.7000    488.2728
     42     41     49   1    109.5000    292.8800
     42     41     59   1    109.5000    418.4000
     49     41     59   1    110.7000    313.8000
     41     42     43   1    109.5000    502.0800
     42     43     44   1    109.5000    418.4000
     42     43     50   1    109.5000    292.8800
     42     43     51   1    109.5000    292.8800
     44     43     50   1    110.7000    313.8000
     44     43     51   1    110.7000    313.8000
     50     43     51   1    107.8000    276.1440
     43     44     45   1    112.7000    488.2728
     43     44     46   1    112.7000    488.2728
     43     44     52   1    110.7000    313.8000
     45     44     46   1    112.7000    488.2728
     45     44     52   1    110.7000    313.8000
     46     44     52   1    110.7000    313.8000
     44     45     53   1    110.7000    313.8000
     44     45     54   1    110.7000    313.8000
     44     45     55   1    110.7000    313.8000
     53     45     54   1    107.8000    276.1440
     53     45     55   1    107.8000    276.1440
     54     45     55   1    107.8000    276.1440
     44     46     56   1    110.7000    313.8000
     44     46     57   1    110.7000    313.8000
     44     46     58   1    110.7000    313.8000
     56     46     57   1    107.8000    276.1440
     56     46     58   1    107.8000    276.1440
     57     46     58   1    107.8000    276.1440
     41     59     60   1    112.7000    488.2728
     41     59     66   1    110.7000    313.8000
     41     59     67   1    110.7000    313.8000
     60     59     66   1    110.7000    313.8000
     60     59     67   1    110.7000    313.8000
     66     59     67   1    107.8000    276.1440
     59     60     61   1    109.5000    418.4000
     59     60     68   1    110.7000    313.8000
     59     60     78   1    112.7000    488.2728
     61     60     68   1    109.5000    292.8800
     61     60     78   1    109.5000    418.4000
     68     60     78   1    110.7000    313.8000
     60     61     62   1    109.5000    502.0800
     61     62     63   1    109.5000    418.4000
     61     62     69   1    109.5000    292.8800
     61     62     70   1    109.5000    292.8800
     63     62     69   1    110.7000    313.8000
     63     62     70   1    110.7000    313.8000
     69     62     70   1    107.8000    276.1440
     62     63     64   1    112.7000    488.2728
     62     63     65   1    112.7000    488.2728
     62     63     71   1    110.7000    313.8000
     64     63     65   1    112.7000    488.2728
     64     63     71   1    110.7000    313.8000
     65     63     71   1    110.7000    313.8000
     63     64     72   1    110.7000    313.8000
     63     64     73   1    110.7000    313.8000
     63     64     74   1    110.7000    313.8000
     72     64     73   1    107.8000    276.1440
     72     64     74   1    107.8000    276.1440
     73     64     74   1    107.8000    276.1440
     63     65     75   1    110.7000    313.8000
     63     65     76   1    110.7000    313.8000
     63     65     77   1    110.7000    313.8000
     75     65     76   1    107.8000    276.1440
     75     65     77   1    107.8000    276.1440
     76     65     77   1    107.8000    276.1440
     60     78     79   1    112.7000    488.2728
     60     78     85   1    110.7000    313.8000
     60     78     86   1    110.7000    313.8000
     79     78     85   1    110.7000    313.8000
     79     78     86   1    110.7000    313.8000
     85     78     86   1    107.8000    276.1440
     78     79     80   1    109.5000    418.4000
     78     79     87   1    110.7000    313.8000
     78     79     97   1    112.7000    488.2728
     80     79     87   1    109.5000    292.8800
     80     79     97   1    109.5000    418.4000
     87     79     97   1    110.7000    313.8000
     79     80     81   1    109.5000    502.0800
     80     81     82   1    109.5000    418.4000
     80     81     88   1    109.5000    292.8800
     80     81     89   1    109.5000    292.8800
     82     81     88   1    110.7000    313.8000
     82     81     89   1    110.7000    313.8000
     88     81     89   1    107.8000    276.1440
     81     82     83   1    112.7000    488.2728
     81     82     84   1    112.7000    488.2728
     81     82     90   1    110.7000    313.8000
     83     82     84   1    112.7000    488.2728
     83     82     90   1    110.7000    313.8000
     84     82     90   1    110.7000    313.8000
     82     83     91   1    110.7000    313.8000
     82     83     92   1    110.7000    313.8000
     82     83     93   1    110.7000    313.8000
     91     83     92   1    107.8000    276.1440
     91     83     93   1    107.8000    276.1440
     92     83     93   1    107.8000    276.1440
     82     84     94   1    110.7000    313.8000
     82     84     95   1    110.7000    313.8000
     82     84     96   1    110.7000    313.8000
     94     84     95   1    107.8000    276.1440
     94     84     96   1    107.8000    276.1440
     95     84     96   1    107.8000    276.1440
     79     97     98   1    112.7000    488.2728
     79     97    104   1    110.7000    313.8000
     79     97    105   1    110.7000    313.8000
     98     97    104   1    110.7000    313.8000
     98     97    105   1    110.7000    313.8000
    104     97    105   1    107.8000    276.1440
     97     98     99   1    109.5000    418.4000
     97     98    106   1    110.7000    313.8000
     97     98    116   1    112.7000    488.2728
     99     98    106   1    109.5000    292.8800
     99     98    116   1    109.5000    418.4000
    106     98    116   1    110.7000    313.8000
     98     99    100   1    109.5000    502.0800
     99    100    101   1    109.5000    418.4000
     99    100    107   1    109.5000    292.8800
     99    100    108   1    109.5000    292.8800
    101    100    107   1    110.7000    313.8000
    101    100    108   1    110.7000    313.8000
    107    100    108   1    107.8000    276.1440
    100    101    102   1    112.7000    488.2728
    100    101    103   1    112.7000    488.2728
    100    101    109   1    110.7000    313.8000
    102    101    103   1    112.7000    488.2728
    102    101    109   1    110.7000    313.8000
    103    101    109   1    110.7000    313.8000
    101    102    110   1    110.7000    313.8000
    101    102    111   1    110.7000    313.8000
    101    102    112   1    110.7000    313.8000
    110    102    111   1    107.8000    276.1440
    110    102    112   1    107.8000    276.1440
    111    102    112   1    107.8000    276.1440
    101    103    113   1    110.7000    313.8000
    101    103    114   1    110.7000    313.8000
    101    103    115   1    110.7000    313.8000
    113    103    114   1    107.8000    276.1440
    113    103    115   1    107.8000    276.1440
    114    103    115   1    107.8000    276.1440
     98    116    117   1    112.7000    488.2728
     98    116    123   1    110.7000    313.8000
     98    116    124   1    110.7000    313.8000
    117    116    123   1    110.7000    313.8000
    117    116    124   1    110.7000    313.8000
    123    116    124   1    107.8000    276.1440
    116    117    118   1    109.5000    418.4000
    116    117    125   1    110.7000    313.8000
    116    117    135   1    112.7000    488.2728
    118    117    125   1    109.5000    292.8800
    118    117    135   1    109.5000    418.4000
    125    117    135   1    110.7000    313.8000
    117    118    119   1    109.5000    502.0800
    118    119    120   1    109.5000    418.4000
    118    119    126   1    109.5000    292.8800
    118    119    127   1    109.5000    292.8800
    120    119    126   1    110.7000    313.8000
    120    119    127   1    110.7000    313.8000
    126    119    127   1    107.8000    276.1440
    119    120    121   1    112.7000    488.2728
    119    120    122   1    112.7000    488.2728
    119    120    128   1    110.7000    313.8000
    121    120    122   1    112.7000    488.2728
    121    120    128   1    110.7000    313.8000
    122    120    128   1    110.7000    313.8000
    120    121    129   1    110.7000    313.8000
    120    121    130   1    110.7000    313.8000
    120    121    131   1    110.7000    313.8000
    129    121    130   1    107.8000    276.1440
    129    121    131   1    107.8000    276.1440
    130    121    131   1    107.8000    276.1440
    120    122    132   1    110.7000    313.8000
    120    122    133   1    110.7000    313.8000
    120    122    134   1    110.7000    313.8000
    132    122    133   1    107.8000    276.1440
    132    122    134   1    107.8000    276.1440
    133    122    134   1    107.8000    276.1440
    117    135    136   1    112.7000    488.2728
    117    135    142   1    110.7000    313.8000
    117    135    143   1    110.7000    313.8000
    136    135    142   1    110.7000    313.8000
    136    135    143   1    110.7000    313.8000
    142    135    143   1    107.8000    276.1440
    135    136    137   1    109.5000    418.4000
    135    136    144   1    110.7000    313.8000
    135    136    154   1    112.7000    488.2728
    137    136    144   1    109.5000    292.8800
    137    136    154   1    109.5000    418.4000
    144    136    154   1    110.7000    313.8000
    136    137    138   1    109.5000    502.0800
    137    138    139   1    109.5000    418.4000
    137    138    145   1    109.5000    292.8800
    137    138    146   1    109.5000    292.8800
    139    138    145   1    110.7000    313.8000
    139    138    146   1    110.7000    313.8000
    145    138    146   1    107.8000    276.1440
    138    139    140   1    112.7000    488.2728
    138    139    141   1    112.7000    488.2728
    138    139    147   1    110.7000    313.8000
    140    139    141   1    112.7000    488.2728
    140    139    147   1    110.7000    313.8000
    141    139    147   1    110.7000    313.8000
    139    140    148   1    110.7000    313.8000
    139    140    149   1    110.7000    313.8000
    139    140    150   1    110.7000    313.8000
    148    140    149   1    107.8000    276.1440
    148    140    150   1    107.8000    276.1440
    149    140    150   1    107.8000    276.1440
    139    141    151   1    110.7000    313.8000
    139    141    152   1    110.7000    313.8000
    139    141    153   1    110.7000    313.8000
    151    141    152   1    107.8000    276.1440
    151    141    153   1    107.8000    276.1440
    152    141    153   1    107.8000    276.1440
    136    154    155   1    112.7000    488.2728
    136    154    161   1    110.7000    313.8000
    136    154    162   1    110.7000    313.8000
    155    154    161   1    110.7000    313.8000
    155    154    162   1    110.7000    313.8000
    161    154    162   1    107.8000    276.1440
    154    155    156   1    109.5000    418.4000
    154    155    163   1    110.7000    313.8000
    154    155    173   1    112.7000    488.2728
    156    155    163   1    109.5000    292.8800
    156    155    173   1    109.5000    418.4000
    163    155    173   1    110.7000    313.8000
    155    156    157   1    109.5000    502.0800
    156    157    158   1    109.5000    418.4000
    156    157    164   1    109.5000    292.8800
    156    157    165   1    109.5000    292.8800
    158    157    164   1    110.7000    313.8000
    158    157    165   1    110.7000    313.8000
    164    157    165   1    107.8000    276.1440
    157    158    159   1    112.7000    488.2728
    157    158    160   1    112.7000    488.2728
    157    158    166   1    110.7000    313.8000
    159    158    160   1    112.7000    488.2728
    159    158    166   1    110.7000    313.8000
    160    158    166   1    110.7000    313.8000
    158    159    167   1    110.7000    313.8000
    158    159    168   1    110.7000    313.8000
    158    159    169   1    110.7000    313.8000
    167    159    168   1    107.8000    276.1440
    167    159    169   1    107.8000    276.1440
    168    159    169   1    107.8000    276.1440
    158    160    170   1    110.7000    313.8000
    158    160    171   1    110.7000    313.8000
    158    160    172   1    110.7000    313.8000
    170    160    171   1    107.8000    276.1440
    170    160    172   1    107.8000    276.1440
    171    160    172   1    107.8000    276.1440
    155    173    174   1    112.7000    488.2728
    155    173    180   1    110.7000    313.8000
    155    173    181   1    110.7000    313.8000
    174    173    180   1    110.7000    313.8000
    174    173    181   1    110.7000    313.8000
    180    173    181   1    107.8000    276.1440
    173    174    175   1    109.5000    418.4000
    173    174    182   1    110.7000    313.8000
    173    174    192   1    112.7000    488.2728
    175    174    182   1    109.5000    292.8800
    175    174    192   1    109.5000    418.4000
    182    174    192   1    110.7000    313.8000
    174    175    176   1    109.5000    502.0800
    175    176    177   1    109.5000    418.4000
    175    176    183   1    109.5000    292.8800
    175    176    184   1    109.5000    292.8800
    177    176    183   1    110.7000    313.8000
    177    176    184   1    110.7000    313.8000
    183    176    184   1    107.8000    276.1440
    176    177    178   1    112.7000    488.2728
    176    177    179   1    112.7000    488.2728
    176    177    185   1    110.7000    313.8000
    178    177    179   1    112.7000    488.2728
    178    177    185   1    110.7000    313.8000
    179    177    185   1    110.7000    313.8000
    177    178    186   1    110.7000    313.8000
    177    178    187   1    110.7000    313.8000
    177    178    188   1    110.7000    313.8000
    186    178    187   1    107.8000    276.1440
    186    178    188   1    107.8000    276.1440
    187    178    188   1    107.8000    276.1440
    177    179    189   1    110.7000    313.8000
    177    179    190   1    110.7000    313.8000
    177    179    191   1    110.7000    313.8000
    189    179    190   1    107.8000    276.1440
    189    179    191   1    107.8000    276.1440
    190    179    191   1    107.8000    276.1440
    174    192    193   1    112.7000    488.2728
    174    192    199   1    110.7000    313.8000
    174    192    200   1    110.7000    313.8000
    193    192    199   1    110.7000    313.8000
    193    192    200   1    110.7000    313.8000
    199    192    200   1    107.8000    276.1440
    192    193    194   1    109.5000    418.4000
    192    193    201   1    110.7000    313.8000
    192    193    211   1    112.7000    488.2728
    194    193    201   1    109.5000    292.8800
    194    193    211   1    109.5000    418.4000
    201    193    211   1    110.7000    313.8000
    193    194    195   1    109.5000    502.0800
    194    195    196   1    109.5000    418.4000
    194    195    202   1    109.5000    292.8800
    194    195    203   1    109.5000    292.8800
    196    195    202   1    110.7000    313.8000
    196    195    203   1    110.7000    313.8000
    202    195    203   1    107.8000    276.1440
    195    196    197   1    112.7000    488.2728
    195    196    198   1    112.7000    488.2728
    195    196    204   1    110.7000    313.8000
    197    196    198   1    112.7000    488.2728
    197    196    204   1    110.7000    313.8000
    198    196    204   1    110.7000    313.8000
    196    197    205   1    110.7000    313.8000
    196    197    206   1    110.7000    313.8000
    196    197    207   1    110.7000    313.8000
    205    197    206   1    107.8000    276.1440
    205    197    207   1    107.8000    276.1440
    206    197    207   1    107.8000    276.1440
    196    198    208   1    110.7000    313.8000
    196    198    209   1    110.7000    313.8000
    196    198    210   1    110.7000    313.8000
    208    198    209   1    107.8000    276.1440
    208    198    210   1    107.8000    276.1440
    209    198    210   1    107.8000    276.1440
    193    211    212   1    112.7000    488.2728
    193    211    218   1    110.7000    313.8000
    193    211    219   1    110.7000    313.8000
    212    211    218   1    110.7000    313.8000
    212    211    219   1    110.7000    313.8000
    218    211    219   1    107.8000    276.1440
    211    212    213   1    109.5000    418.4000
    211    212    220   1    110.7000    313.8000
    211    212    230   1    112.7000    488.2728
    213    212    220   1    109.5000    292.8800
    213    212    230   1    109.5000    418.4000
    220    212    230   1    110.7000    313.8000
    212    213    214   1    109.5000    502.0800
    213    214    215   1    109.5000    418.4000
    213    214    221   1    109.5000    292.8800
    213    214    222   1    109.5000    292.8800
    215    214    221   1    110.7000    313.8000
    215    214    222   1    110.7000    313.8000
    221    214    222   1    107.8000    276.1440
    214    215    216   1    112.7000    488.2728
    214    215    217   1    112.7000    488.2728
    214    215    223   1    110.7000    313.8000
    216    215    217   1    112.7000    488.2728
    216    215    223   1    110.7000    313.8000
    217    215    223   1    110.7000    313.8000
    215    216    224   1    110.7000    313.8000
    215    216    225   1    110.7000    313.8000
    215    216    226   1    110.7000    313.8000
    224    216    225   1    107.8000    276.1440
    224    216    226   1    107.8000    276.1440
    225    216    226   1    107.8000    276.1440
    215    217    227   1    110.7000    313.8000
    215    217    228   1    110.7000    313.8000
    215    217    229   1    110.7000    313.8000
    227    217    228   1    107.8000    276.1440
    227    217    229   1    107.8000    276.1440
    228    217    229   1    107.8000    276.1440
    212    230    231   1    112.7000    488.2728
    212    230    237   1    110.7000    313.8000
    212    230    238   1    110.7000    313.8000
    231    230    237   1    110.7000    313.8000
    231    230    238   1    110.7000    313.8000
    237    230    238   1    107.8000    276.1440
    230    231    232   1    109.5000    418.4000
    230    231    239   1    110.7000    313.8000
    230    231    249   1    112.7000    488.2728
    232    231    239   1    109.5000    292.8800
    232    231    249   1    109.5000    418.4000
    239    231    249   1    110.7000    313.8000
    231    232    233   1    109.5000    502.0800
    232    233    234   1    109.5000    418.4000
    232    233    240   1    109.5000    292.8800
    232    233    241   1    109.5000    292.8800
    234    233    240   1    110.7000    313.8000
    234    233    241   1    110.7000    313.8000
    240    233    241   1    107.8000    276.1440
    233    234    235   1    112.7000    488.2728
    233    234    236   1    112.7000    488.2728
    233    234    242   1    110.7000    313.8000
    235    234    236   1    112.7000    488.2728
    235    234    242   1    110.7000    313.8000
    236    234    242   1    110.7000    313.8000
    234    235    243   1    110.7000    313.8000
    234    235    244   1    110.7000    313.8000
    234    235    245   1    110.7000    313.8000
    243    235    244   1    107.8000    276.1440
    243    235    245   1    107.8000    276.1440
    244    235    245   1    107.8000    276.1440
    234    236    246   1    110.7000    313.8000
    234    236    247   1    110.7000    313.8000
    234    236    248   1    110.7000    313.8000
    246    236    247   1    107.8000    276.1440
    246    236    248   1    107.8000    276.1440
    247    236    248   1    107.8000    276.1440
    231    249    250   1    112.7000    488.2728
    231    249    256   1    110.7000    313.8000
    231    249    257   1    110.7000    313.8000
    250    249    256   1    110.7000    313.8000
    250    249    257   1    110.7000    313.8000
    256    249    257   1    107.8000    276.1440
    249    250    251   1    109.5000    418.4000
    249    250    258   1    110.7000    313.8000
    249    250    268   1    112.7000    488.2728
    251    250    258   1    109.5000    292.8800
    251    250    268   1    109.5000    418.4000
    258    250    268   1    110.7000    313.8000
    250    251    252   1    109.5000    502.0800
    251    252    253   1    109.5000    418.4000
    251    252    259   1    109.5000    292.8800
    251    252    260   1    109.5000    292.8800
    253    252    259   1    110.7000    313.8000
    253    252    260   1    110.7000    313.8000
    259    252    260   1    107.8000    276.1440
    252    253    254   1    112.7000    488.2728
    252    253    255   1    112.7000    488.2728
    252    253    261   1    110.7000    313.8000
    254    253    255   1    112.7000    488.2728
    254    253    261   1    110.7000    313.8000
    255    253    261   1    110.7000    313.8000
    253    254    262   1    110.7000    313.8000
    253    254    263   1    110.7000    313.8000
    253    254    264   1    110.7000    313.8000
    262    254    263   1    107.8000    276.1440
    262    254    264   1    107.8000    276.1440
    263    254    264   1    107.8000    276.1440
    253    255    265   1    110.7000    313.8000
    253    255    266   1    110.7000    313.8000
    253    255    267   1    110.7000    313.8000
    265    255    266   1    107.8000    276.1440
    265    255    267   1    107.8000    276.1440
    266    255    267   1    107.8000    276.1440
    250    268    269   1    112.7000    488.2728
    250    268    275   1    110.7000    313.8000
    250    268    276   1    110.7000    313.8000
    269    268    275   1    110.7000    313.8000
    269    268    276   1    110.7000    313.8000
    275    268    276   1    107.8000    276.1440
    268    269    270   1    109.5000    418.4000
    268    269    277   1    110.7000    313.8000
    268    269    287   1    112.7000    488.2728
    270    269    277   1    109.5000    292.8800
    270    269    287   1    109.5000    418.4000
    277    269    287   1    110.7000    313.8000
    269    270    271   1    109.5000    502.0800
    270    271    272   1    109.5000    418.4000
    270    271    278   1    109.5000    292.8800
    270    271    279   1    109.5000    292.8800
    272    271    278   1    110.7000    313.8000
    272    271    279   1    110.7000    313.8000
    278    271    279   1    107.8000    276.1440
    271    272    273   1    112.7000    488.2728
    271    272    274   1    112.7000    488.2728
    271    272    280   1    110.7000    313.8000
    273    272    274   1    112.7000    488.2728
    273    272    280   1    110.7000    313.8000
    274    272    280   1    110.7000    313.8000
    272    273    281   1    110.7000    313.8000
    272    273    282   1    110.7000    313.8000
    272    273    283   1    110.7000    313.8000
    281    273    282   1    107.8000    276.1440
    281    273    283   1    107.8000    276.1440
    282    273    283   1    107.8000    276.1440
    272    274    284   1    110.7000    313.8000
    272    274    285   1    110.7000    313.8000
    272    274    286   1    110.7000    313.8000
    284    274    285   1    107.8000    276.1440
    284    274    286   1    107.8000    276.1440
    285    274    286   1    107.8000    276.1440
    269    287    288   1    112.7000    488.2728
    269    287    294   1    110.7000    313.8000
    269    287    295   1    110.7000    313.8000
    288    287    294   1    110.7000    313.8000
    288    287    295   1    110.7000    313.8000
    294    287    295   1    107.8000    276.1440
    287    288    289   1    109.5000    418.4000
    287    288    296   1    110.7000    313.8000
    287    288    306   1    112.7000    488.2728
    289    288    296   1    109.5000    292.8800
    289    288    306   1    109.5000    418.4000
    296    288    306   1    110.7000    313.8000
    288    289    290   1    109.5000    502.0800
    289    290    291   1    109.5000    418.4000
    289    290    297   1    109.5000    292.8800
    289    290    298   1    109.5000    292.8800
    291    290    297   1    110.7000    313.8000
    291    290    298   1    110.7000    313.8000
    297    290    298   1    107.8000    276.1440
    290    291    292   1    112.7000    488.2728
    290    291    293   1    112.7000    488.2728
    290    291    299   1    110.7000    313.8000
    292    291    293   1    112.7000    488.2728
    292    291    299   1    110.7000    313.8000
    293    291    299   1    110.7000    313.8000
    291    292    300   1    110.7000    313.8000
    291    292    301   1    110.7000    313.8000
    291    292    302   1    110.7000    313.8000
    300    292    301   1    107.8000    276.1440
    300    292    302   1    107.8000    276.1440
    301    292    302   1    107.8000    276.1440
    291    293    303   1    110.7000    313.8000
    291    293    304   1    110.7000    313.8000
    291    293    305   1    110.7000    313.8000
    303    293    304   1    107.8000    276.1440
    303    293    305   1    107.8000    276.1440
    304    293    305   1    107.8000    276.1440
    288    306    307   1    112.7000    488.2728
    288    306    313   1    110.7000    313.8000
    288    306    314   1    110.7000    313.8000
    307    306    313   1    110.7000    313.8000
    307    306    314   1    110.7000    313.8000
    313    306    314   1    107.8000    276.1440
    306    307    308   1    109.5000    418.4000
    306    307    315   1    110.7000    313.8000
    306    307    325   1    112.7000    488.2728
    308    307    315   1    109.5000    292.8800
    308    307    325   1    109.5000    418.4000
    315    307    325   1    110.7000    313.8000
    307    308    309   1    109.5000    502.0800
    308    309    310   1    109.5000    418.4000
    308    309    316   1    109.5000    292.8800
    308    309    317   1    109.5000    292.8800
    310    309    316   1    110.7000    313.8000
    310    309    317   1    110.7000    313.8000
    316    309    317   1    107.8000    276.1440
    309    310    311   1    112.7000    488.2728
    309    310    312   1    112.7000    488.2728
    309    310    318   1    110.7000    313.8000
    311    310    312   1    112.7000    488.2728
    311    310    318   1    110.7000    313.8000
    312    310    318   1    110.7000    313.8000
    310    311    319   1    110.7000    313.8000
    310    311    320   1    110.7000    313.8000
    310    311    321   1    110.7000    313.8000
    319    311    320   1    107.8000    276.1440
    319    311    321   1    107.8000    276.1440
    320    311    321   1    107.8000    276.1440
    310    312    322   1    110.7000    313.8000
    310    312    323   1    110.7000    313.8000
    310    312    324   1    110.7000    313.8000
    322    312    323   1    107.8000    276.1440
    322    312    324   1    107.8000    276.1440
    323    312    324   1    107.8000    276.1440
    307    325    326   1    112.7000    488.2728
    307    325    332   1    110.7000    313.8000
    307    325    333   1    110.7000    313.8000
    326    325    332   1    110.7000    313.8000
    326    325    333   1    110.7000    313.8000
    332    325    333   1    107.8000    276.1440
    325    326    327   1    109.5000    418.4000
    325    326    334   1    110.7000    313.8000
    325    326    344   1    112.7000    488.2728
    327    326    334   1    109.5000    292.8800
    327    326    344   1    109.5000    418.4000
    334    326    344   1    110.7000    313.8000
    326    327    328   1    109.5000    502.0800
    327    328    329   1    109.5000    418.4000
    327    328    335   1    109.5000    292.8800
    327    328    336   1    109.5000    292.8800
    329    328    335   1    110.7000    313.8000
    329    328    336   1    110.7000    313.8000
    335    328    336   1    107.8000    276.1440
    328    329    330   1    112.7000    488.2728
    328    329    331   1    112.7000    488.2728
    328    329    337   1    110.7000    313.8000
    330    329    331   1    112.7000    488.2728
    330    329    337   1    110.7000    313.8000
    331    329    337   1    110.7000    313.8000
    329    330    338   1    110.7000    313.8000
    329    330    339   1    110.7000    313.8000
    329    330    340   1    110.7000    313.8000
    338    330    339   1    107.8000    276.1440
    338    330    340   1    107.8000    276.1440
    339    330    340   1    107.8000    276.1440
    329    331    341   1    110.7000    313.8000
    329    331    342   1    110.7000    313.8000
    329    331    343   1    110.7000    313.8000
    341    331    342   1    107.8000    276.1440
    341    331    343   1    107.8000    276.1440
    342    331    343   1    107.8000    276.1440
    326    344    345   1    112.7000    488.2728
    326    344    351   1    110.7000    313.8000
    326    344    352   1    110.7000    313.8000
    345    344    351   1    110.7000    313.8000
    345    344    352   1    110.7000    313.8000
    351    344    352   1    107.8000    276.1440
    344    345    346   1    109.5000    418.4000
    344    345    353   1    110.7000    313.8000
    344    345    363   1    112.7000    488.2728
    346    345    353   1    109.5000    292.8800
    346    345    363   1    109.5000    418.4000
    353    345    363   1    110.7000    313.8000
    345    346    347   1    109.5000    502.0800
    346    347    348   1    109.5000    418.4000
    346    347    354   1    109.5000    292.8800
    346    347    355   1    109.5000    292.8800
    348    347    354   1    110.7000    313.8000
    348    347    355   1    110.7000    313.8000
    354    347    355   1    107.8000    276.1440
    347    348    349   1    112.7000    488.2728
    347    348    350   1    112.7000    488.2728
    347    348    356   1    110.7000    313.8000
    349    348    350   1    112.7000    488.2728
    349    348    356   1    110.7000    313.8000
    350    348    356   1    110.7000    313.8000
    348    349    357   1    110.7000    313.8000
    348    349    358   1    110.7000    313.8000
    348    349    359   1    110.7000    313.8000
    357    349    358   1    107.8000    276.1440
    357    349    359   1    107.8000    276.1440
    358    349    359   1    107.8000    276.1440
    348    350    360   1    110.7000    313.8000
    348    350    361   1    110.7000    313.8000
    348    350    362   1    110.7000    313.8000
    360    350    361   1    107.8000    276.1440
    360    350    362   1    107.8000    276.1440
    361    350    362   1    107.8000    276.1440
    345    363    364   1    112.7000    488.2728
    345    363    370   1    110.7000    313.8000
    345    363    371   1    110.7000    313.8000
    364    363    370   1    110.7000    313.8000
    364    363    371   1    110.7000    313.8000
    370    363    371   1    107.8000    276.1440
    363    364    365   1    109.5000    418.4000
    363    364    372   1    110.7000    313.8000
    363    364    382   1    110.7000    313.8000
    365    364    372   1    109.5000    292.8800
    365    364    382   1    109.5000    292.8800
    372    364    382   1    107.8000    276.1440
    364    365    366   1    109.5000    502.0800
    365    366    367   1    109.5000    418.4000
    365    366    373   1    109.5000    292.8800
    365    366    374   1    109.5000    292.8800
    367    366    373   1    110.7000    313.8000
    367    366    374   1    110.7000    313.8000
    373    366    374   1    107.8000    276.1440
    366    367    368   1    112.7000    488.2728
    366    367    369   1    112.7000    488.2728
    366    367    375   1    110.7000    313.8000
    368    367    369   1    112.7000    488.2728
    368    367    375   1    110.7000    313.8000
    369    367    375   1    110.7000    313.8000
    367    368    376   1    110.7000    313.8000
    367    368    377   1    110.7000    313.8000
    367    368    378   1    110.7000    313.8000
    376    368    377   1    107.8000    276.1440
    376    368    378   1    107.8000    276.1440
    377    368    378   1    107.8000    276.1440
    367    369    379   1    110.7000    313.8000
    367    369    380   1    110.7000    313.8000
    367    369    381   1    110.7000    313.8000
    379    369    380   1    107.8000    276.1440
    379    369    381   1    107.8000    276.1440
    380    369    381   1    107.8000    276.1440

[ dihedrals ]
; Proper dihedrals
      8      1      2      3   5     0.00000     0.00000     1.95811  0.0
      8      1      2     10   5     0.00000     0.00000     1.25520  0.0
      8      1      2     21   5     0.00000     0.00000     1.25520  0.0
      9      1      2      3   5     0.00000     0.00000     1.95811  0.0
      9      1      2     10   5     0.00000     0.00000     1.25520  0.0
      9      1      2     21   5     0.00000     0.00000     1.25520  0.0
     20      1      2      3   5     0.00000     0.00000     1.95811  0.0
     20      1      2     10   5     0.00000     0.00000     1.25520  0.0
     20      1      2     21   5     0.00000     0.00000     1.25520  0.0
      1      2      3      4   5     0.52300    -0.09205     2.34722  0.0
     10      2      3      4   5     0.00000     0.00000     3.10034  0.0
     21      2      3      4   5     0.52300    -0.09205     2.34722  0.0
      1      2     21     22   5     4.74884    -0.63178     1.67360  0.0
      1      2     21     28   5     0.00000     0.00000     1.25520  0.0
      1      2     21     29   5     0.00000     0.00000     1.25520  0.0
      3      2     21     22   5     5.25092    -2.58990     2.28446  0.0
      3      2     21     28   5     0.00000     0.00000     1.95811  0.0
      3      2     21     29   5     0.00000     0.00000     1.95811  0.0
     10      2     21     22   5     0.00000     0.00000     1.25520  0.0
     10      2     21     28   5     0.00000     0.00000     1.25520  0.0
     10      2     21     29   5     0.00000     0.00000     1.25520  0.0
      2      3      4      5   5     0.52300    -0.09205     2.34722  0.0
      2      3      4     11   5     0.00000     0.00000     3.10034  0.0
      2      3      4     12   5     0.00000     0.00000     3.10034  0.0
      3      4      5      6   5     5.25092    -2.58990     2.28446  0.0
      3      4      5      7   5     5.25092    -2.58990     2.28446  0.0
      3      4      5     13   5     0.00000     0.00000     1.95811  0.0
     11      4      5      6   5     0.00000     0.00000     1.25520  0.0
     11      4      5      7   5     0.00000     0.00000     1.25520  0.0
     11      4      5     13   5     0.00000     0.00000     1.25520  0.0
     12      4      5      6   5     0.00000     0.00000     1.25520  0.0
     12      4      5      7   5     0.00000     0.00000     1.25520  0.0
     12      4      5     13   5     0.00000     0.00000     1.25520  0.0
      4      5      6     14   5     0.00000     0.00000     1.25520  0.0
      4      5      6     15   5     0.00000     0.00000     1.25520  0.0
      4      5      6     16   5     0.00000     0.00000     1.25520  0.0
      7      5      6     14   5     0.00000     0.00000     1.25520  0.0
      7      5      6     15   5     0.00000     0.00000     1.25520  0.0
      7      5      6     16   5     0.00000     0.00000     1.25520  0.0
     13      5      6     14   5     0.00000     0.00000     1.25520  0.0
     13      5      6     15   5     0.00000     0.00000     1.25520  0.0
     13      5      6     16   5     0.00000     0.00000     1.25520  0.0
      4      5      7     17   5     0.00000     0.00000     1.25520  0.0
      4      5      7     18   5     0.00000     0.00000     1.25520  0.0
      4      5      7     19   5     0.00000     0.00000     1.25520  0.0
      6      5      7     17   5     0.00000     0.00000     1.25520  0.0
      6      5      7     18   5     0.00000     0.00000     1.25520  0.0
      6      5      7     19   5     0.00000     0.00000     1.25520  0.0
     13      5      7     17   5     0.00000     0.00000     1.25520  0.0
     13      5      7     18   5     0.00000     0.00000     1.25520  0.0
     13      5      7     19   5     0.00000     0.00000     1.25520  0.0
      2     21     22     23   5     5.25092    -2.58990     2.28446  0.0
      2     21     22     30   5     0.00000     0.00000     1.25520  0.0
      2     21     22     40   5     4.74884    -0.63178     1.67360  0.0
     28     21     22     23   5     0.00000     0.00000     1.95811  0.0
     28     21     22     30   5     0.00000     0.00000     1.25520  0.0
     28     21     22     40   5     0.00000     0.00000     1.25520  0.0
     29     21     22     23   5     0.00000     0.00000     1.95811  0.0
     29     21     22     30   5     0.00000     0.00000     1.25520  0.0
     29     21     22     40   5     0.00000     0.00000     1.25520  0.0
     21     22     23     24   5     0.52300    -0.09205     2.34722  0.0
     30     22     23     24   5     0.00000     0.00000     3.10034  0.0
     40     22     23     24   5     0.52300    -0.09205     2.34722  0.0
     21     22     40     41   5     4.74884    -0.63178     1.67360  0.0
     21     22     40     47   5     0.00000     0.00000     1.25520  0.0
     21     22     40     48   5     0.00000     0.00000     1.25520  0.0
     23     22     40     41   5     5.25092    -2.58990     2.28446  0.0
     23     22     40     47   5     0.00000     0.00000     1.95811  0.0
     23     22     40     48   5     0.00000     0.00000     1.95811  0.0
     30     22     40     41   5     0.00000     0.00000     1.25520  0.0
     30     22     40     47   5     0.00000     0.00000     1.25520  0.0
     30     22     40     48   5     0.00000     0.00000     1.25520  0.0
     22     23     24     25   5     0.52300    -0.09205     2.34722  0.0
     22     23     24     31   5     0.00000     0.00000     3.10034  0.0
     22     23     24     32   5     0.00000     0.00000     3.10034  0.0
     23     24     25     26   5     5.25092    -2.58990     2.28446  0.0
     23     24     25     27   5     5.25092    -2.58990     2.28446  0.0
     23     24     25     33   5     0.00000     0.00000     1.95811  0.0
     31     24     25     26   5     0.00000     0.00000     1.25520  0.0
     31     24     25     27   5     0.00000     0.00000     1.25520  0.0
     31     24     25     33   5     0.00000     0.00000     1.25520  0.0
     32     24     25     26   5     0.00000     0.00000     1.25520  0.0
     32     24     25     27   5     0.00000     0.00000     1.25520  0.0
     32     24     25     33   5     0.00000     0.00000     1.25520  0.0
     24     25     26     34   5     0.00000     0.00000     1.25520  0.0
     24     25     26     35   5     0.00000     0.00000     1.25520  0.0
     24     25     26     36   5     0.00000     0.00000     1.25520  0.0
     27     25     26     34   5     0.00000     0.00000     1.25520  0.0
     27     25     26     35   5     0.00000     0.00000     1.25520  0.0
     27     25     26     36   5     0.00000     0.00000     1.25520  0.0
     33     25     26     34   5     0.00000     0.00000     1.25520  0.0
     33     25     26     35   5     0.00000     0.00000     1.25520  0.0
     33     25     26     36   5     0.00000     0.00000     1.25520  0.0
     24     25     27     37   5     0.00000     0.00000     1.25520  0.0
     24     25     27     38   5     0.00000     0.00000     1.25520  0.0
     24     25     27     39   5     0.00000     0.00000     1.25520  0.0
     26     25     27     37   5     0.00000     0.00000     1.25520  0.0
     26     25     27     38   5     0.00000     0.00000     1.25520  0.0
     26     25     27     39   5     0.00000     0.00000     1.25520  0.0
     33     25     27     37   5     0.00000     0.00000     1.25520  0.0
     33     25     27     38   5     0.00000     0.00000     1.25520  0.0
     33     25     27     39   5     0.00000     0.00000     1.25520  0.0
     22     40     41     42   5     5.25092    -2.58990     2.28446  0.0
     22     40     41     49   5     0.00000     0.00000     1.25520  0.0
     22     40     41     59   5     4.74884    -0.63178     1.67360  0.0
     47     40     41     42   5     0.00000     0.00000     1.95811  0.0
     47     40     41     49   5     0.00000     0.00000     1.25520  0.0
     47     40     41     59   5     0.00000     0.00000     1.25520  0.0
     48     40     41     42   5     0.00000     0.00000     1.95811  0.0
     48     40     41     49   5     0.00000     0.00000     1.25520  0.0
     48     40     41     59   5     0.00000     0.00000     1.25520  0.0
     40     41     42     43   5     0.52300    -0.09205     2.34722  0.0
     49     41     42     43   5     0.00000     0.00000     3.10034  0.0
     59     41     42     43   5     0.52300    -0.09205     2.34722  0.0
     40     41     59     60   5     4.74884    -0.63178     1.67360  0.0
     40     41     59     66   5     0.00000     0.00000     1.25520  0.0
     40     41     59     67   5     0.00000     0.00000     1.25520  0.0
     42     41     59     60   5     5.25092    -2.58990     2.28446  0.0
     42     41     59     66   5     0.00000     0.00000     1.95811  0.0
     42     41     59     67   5     0.00000     0.00000     1.95811  0.0
     49     41     59     60   5     0.00000     0.00000     1.25520  0.0
     49     41     59     66   5     0.00000     0.00000     1.25520  0.0
     49     41     59     67   5     0.00000     0.00000     1.25520  0.0
     41     42     43     44   5     0.52300    -0.09205     2.34722  0.0
     41     42     43     50   5     0.00000     0.00000     3.10034  0.0
     41     42     43     51   5     0.00000     0.00000     3.10034  0.0
     42     43     44     45   5     5.25092    -2.58990     2.28446  0.0
     42     43     44     46   5     5.25092    -2.58990     2.28446  0.0
     42     43     44     52   5     0.00000     0.00000     1.95811  0.0
     50     43     44     45   5     0.00000     0.00000     1.25520  0.0
     50     43     44     46   5     0.00000     0.00000     1.25520  0.0
     50     43     44     52   5     0.00000     0.00000     1.25520  0.0
     51     43     44     45   5     0.00000     0.00000     1.25520  0.0
     51     43     44     46   5     0.00000     0.00000     1.25520  0.0
     51     43     44     52   5     0.00000     0.00000     1.25520  0.0
     43     44     45     53   5     0.00000     0.00000     1.25520  0.0
     43     44     45     54   5     0.00000     0.00000     1.25520  0.0
     43     44     45     55   5     0.00000     0.00000     1.25520  0.0
     46     44     45     53   5     0.00000     0.00000     1.25520  0.0
     46     44     45     54   5     0.00000     0.00000     1.25520  0.0
     46     44     45     55   5     0.00000     0.00000     1.25520  0.0
     52     44     45     53   5     0.00000     0.00000     1.25520  0.0
     52     44     45     54   5     0.00000     0.00000     1.25520  0.0
     52     44     45     55   5     0.00000     0.00000     1.25520  0.0
     43     44     46     56   5     0.00000     0.00000     1.25520  0.0
     43     44     46     57   5     0.00000     0.00000     1.25520  0.0
     43     44     46     58   5     0.00000     0.00000     1.25520  0.0
     45     44     46     56   5     0.00000     0.00000     1.25520  0.0
     45     44     46     57   5     0.00000     0.00000     1.25520  0.0
     45     44     46     58   5     0.00000     0.00000     1.25520  0.0
     52     44     46     56   5     0.00000     0.00000     1.25520  0.0
     52     44     46     57   5     0.00000     0.00000     1.25520  0.0
     52     44     46     58   5     0.00000     0.00000     1.25520  0.0
     41     59     60     61   5     5.25092    -2.58990     2.28446  0.0
     41     59     60     68   5     0.00000     0.00000     1.25520  0.0
     41     59     60     78   5     4.74884    -0.63178     1.67360  0.0
     66     59     60     61   5     0.00000     0.00000     1.95811  0.0
     66     59     60     68   5     0.00000     0.00000     1.25520  0.0
     66     59     60     78   5     0.00000     0.00000     1.25520  0.0
     67     59     60     61   5     0.00000     0.00000     1.95811  0.0
     67     59     60     68   5     0.00000     0.00000     1.25520  0.0
     67     59     60     78   5     0.00000     0.00000     1.25520  0.0
     59     60     61     62   5     0.52300    -0.09205     2.34722  0.0
     68     60     61     62   5     0.00000     0.00000     3.10034  0.0
     78     60     61     62   5     0.52300    -0.09205     2.34722  0.0
     59     60     78     79   5     4.74884    -0.63178     1.67360  0.0
     59     60     78     85   5     0.00000     0.00000     1.25520  0.0
     59     60     78     86   5     0.00000     0.00000     1.25520  0.0
     61     60     78     79   5     5.25092    -2.58990     2.28446  0.0
     61     60     78     85   5     0.00000     0.00000     1.95811  0.0
     61     60     78     86   5     0.00000     0.00000     1.95811  0.0
     68     60     78     79   5     0.00000     0.00000     1.25520  0.0
     68     60     78     85   5     0.00000     0.00000     1.25520  0.0
     68     60     78     86   5     0.00000     0.00000     1.25520  0.0
     60     61     62     63   5     0.52300    -0.09205     2.34722  0.0
     60     61     62     69   5     0.00000     0.00000     3.10034  0.0
     60     61     62     70   5     0.00000     0.00000     3.10034  0.0
     61     62     63     64   5     5.25092    -2.58990     2.28446  0.0
     61     62     63     65   5     5.25092    -2.58990     2.28446  0.0
     61     62     63     71   5     0.00000     0.00000     1.95811  0.0
     69     62     63     64   5     0.00000     0.00000     1.25520  0.0
     69     62     63     65   5     0.00000     0.00000     1.25520  0.0
     69     62     63     71   5     0.00000     0.00000     1.25520  0.0
     70     62     63     64   5     0.00000     0.00000     1.25520  0.0
     70     62     63     65   5     0.00000     0.00000     1.25520  0.0
     70     62     63     71   5     0.00000     0.00000     1.25520  0.0
     62     63     64     72   5     0.00000     0.00000     1.25520  0.0
     62     63     64     73   5     0.00000     0.00000     1.25520  0.0
     62     63     64     74   5     0.00000     0.00000     1.25520  0.0
     65     63     64     72   5     0.00000     0.00000     1.25520  0.0
     65     63     64     73   5     0.00000     0.00000     1.25520  0.0
     65     63     64     74   5     0.00000     0.00000     1.25520  0.0
     71     63     64     72   5     0.00000     0.00000     1.25520  0.0
     71     63     64     73   5     0.00000     0.00000     1.25520  0.0
     71     63     64     74   5     0.00000     0.00000     1.25520  0.0
     62     63     65     75   5     0.00000     0.00000     1.25520  0.0
     62     63     65     76   5     0.00000     0.00000     1.25520  0.0
     62     63     65     77   5     0.00000     0.00000     1.25520  0.0
     64     63     65     75   5     0.00000     0.00000     1.25520  0.0
     64     63     65     76   5     0.00000     0.00000     1.25520  0.0
     64     63     65     77   5     0.00000     0.00000     1.25520  0.0
     71     63     65     75   5     0.00000     0.00000     1.25520  0.0
     71     63     65     76   5     0.00000     0.00000     1.25520  0.0
     71     63     65     77   5     0.00000     0.00000     1.25520  0.0
     60     78     79     80   5     5.25092    -2.58990     2.28446  0.0
     60     78     79     87   5     0.00000     0.00000     1.25520  0.0
     60     78     79     97   5     4.74884    -0.63178     1.67360  0.0
     85     78     79     80   5     0.00000     0.00000     1.95811  0.0
     85     78     79     87   5     0.00000     0.00000     1.25520  0.0
     85     78     79     97   5     0.00000     0.00000     1.25520  0.0
     86     78     79     80   5     0.00000     0.00000     1.95811  0.0
     86     78     79     87   5     0.00000     0.00000     1.25520  0.0
     86     78     79     97   5     0.00000     0.00000     1.25520  0.0
     78     79     80     81   5     0.52300    -0.09205     2.34722  0.0
     87     79     80     81   5     0.00000     0.00000     3.10034  0.0
     97     79     80     81   5     0.52300    -0.09205     2.34722  0.0
     78     79     97     98   5     4.74884    -0.63178     1.67360  0.0
     78     79     97    104   5     0.00000     0.00000     1.25520  0.0
     78     79     97    105   5     0.00000     0.00000     1.25520  0.0
     80     79     97     98   5     5.25092    -2.58990     2.28446  0.0
     80     79     97    104   5     0.00000     0.00000     1.95811  0.0
     80     79     97    105   5     0.00000     0.00000     1.95811  0.0
     87     79     97     98   5     0.00000     0.00000     1.25520  0.0
     87     79     97    104   5     0.00000     0.00000     1.25520  0.0
     87     79     97    105   5     0.00000     0.00000     1.25520  0.0
     79     80     81     82   5     0.52300    -0.09205     2.34722  0.0
     79     80     81     88   5     0.00000     0.00000     3.10034  0.0
     79     80     81     89   5     0.00000     0.00000     3.10034  0.0
     80     81     82     83   5     5.25092    -2.58990     2.28446  0.0
     80     81     82     84   5     5.25092    -2.58990     2.28446  0.0
     80     81     82     90   5     0.00000     0.00000     1.95811  0.0
     88     81     82     83   5     0.00000     0.00000     1.25520  0.0
     88     81     82     84   5     0.00000     0.00000     1.25520  0.0
     88     81     82     90   5     0.00000     0.00000     1.25520  0.0
     89     81     82     83   5     0.00000     0.00000     1.25520  0.0
     89     81     82     84   5     0.00000     0.00000     1.25520  0.0
     89     81     82     90   5     0.00000     0.00000     1.25520  0.0
     81     82     83     91   5     0.00000     0.00000     1.25520  0.0
     81     82     83     92   5     0.00000     0.00000     1.25520  0.0
     81     82     83     93   5     0.00000     0.00000     1.25520  0.0
     84     82     83     91   5     0.00000     0.00000     1.25520  0.0
     84     82     83     92   5     0.00000     0.00000     1.25520  0.0
     84     82     83     93   5     0.00000     0.00000     1.25520  0.0
     90     82     83     91   5     0.00000     0.00000     1.25520  0.0
     90     82     83     92   5     0.00000     0.00000     1.25520  0.0
     90     82     83     93   5     0.00000     0.00000     1.25520  0.0
     81     82     84     94   5     0.00000     0.00000     1.25520  0.0
     81     82     84     95   5     0.00000     0.00000     1.25520  0.0
     81     82     84     96   5     0.00000     0.00000     1.25520  0.0
     83     82     84     94   5     0.00000     0.00000     1.25520  0.0
     83     82     84     95   5     0.00000     0.00000     1.25520  0.0
     83     82     84     96   5     0.00000     0.00000     1.25520  0.0
     90     82     84     94   5     0.00000     0.00000     1.25520  0.0
     90     82     84     95   5     0.00000     0.00000     1.25520  0.0
     90     82     84     96   5     0.00000     0.00000     1.25520  0.0
     79     97     98     99   5     5.25092    -2.58990     2.28446  0.0
     79     97     98    106   5     0.00000     0.00000     1.25520  0.0
     79     97     98    116   5     4.74884    -0.63178     1.67360  0.0
    104     97     98     99   5     0.00000     0.00000     1.95811  0.0
    104     97     98    106   5     0.00000     0.00000     1.25520  0.0
    104     97     98    116   5     0.00000     0.00000     1.25520  0.0
    105     97     98     99   5     0.00000     0.00000     1.95811  0.0
    105     97     98    106   5     0.00000     0.00000     1.25520  0.0
    105     97     98    116   5     0.00000     0.00000     1.25520  0.0
     97     98     99    100   5     0.52300    -0.09205     2.34722  0.0
    106     98     99    100   5     0.00000     0.00000     3.10034  0.0
    116     98     99    100   5     0.52300    -0.09205     2.34722  0.0
     97     98    116    117   5     4.74884    -0.63178     1.67360  0.0
     97     98    116    123   5     0.00000     0.00000     1.25520  0.0
     97     98    116    124   5     0.00000     0.00000     1.25520  0.0
     99     98    116    117   5     5.25092    -2.58990     2.28446  0.0
     99     98    116    123   5     0.00000     0.00000     1.95811  0.0
     99     98    116    124   5     0.00000     0.00000     1.95811  0.0
    106     98    116    117   5     0.00000     0.00000     1.25520  0.0
    106     98    116    123   5     0.00000     0.00000     1.25520  0.0
    106     98    116    124   5     0.00000     0.00000     1.25520  0.0
     98     99    100    101   5     0.52300    -0.09205     2.34722  0.0
     98     99    100    107   5     0.00000     0.00000     3.10034  0.0
     98     99    100    108   5     0.00000     0.00000     3.10034  0.0
     99    100    101    102   5     5.25092    -2.58990     2.28446  0.0
     99    100    101    103   5     5.25092    -2.58990     2.28446  0.0
     99    100    101    109   5     0.00000     0.00000     1.95811  0.0
    107    100    101    102   5     0.00000     0.00000     1.25520  0.0
    107    100    101    103   5     0.00000     0.00000     1.25520  0.0
    107    100    101    109   5     0.00000     0.00000     1.25520  0.0
    108    100    101    102   5     0.00000     0.00000     1.25520  0.0
    108    100    101    103   5     0.00000     0.00000     1.25520  0.0
    108    100    101    109   5     0.00000     0.00000     1.25520  0.0
    100    101    102    110   5     0.00000     0.00000     1.25520  0.0
    100    101    102    111   5     0.00000     0.00000     1.25520  0.0
    100    101    102    112   5     0.00000     0.00000     1.25520  0.0
    103    101    102    110   5     0.00000     0.00000     1.25520  0.0
    103    101    102    111   5     0.00000     0.00000     1.25520  0.0
    103    101    102    112   5     0.00000     0.00000     1.25520  0.0
    109    101    102    110   5     0.00000     0.00000     1.25520  0.0
    109    101    102    111   5     0.00000     0.00000     1.25520  0.0
    109    101    102    112   5     0.00000     0.00000     1.25520  0.0
    100    101    103    113   5     0.00000     0.00000     1.25520  0.0
    100    101    103    114   5     0.00000     0.00000     1.25520  0.0
    100    101    103    115   5     0.00000     0.00000     1.25520  0.0
    102    101    103    113   5     0.00000     0.00000     1.25520  0.0
    102    101    103    114   5     0.00000     0.00000     1.25520  0.0
    102    101    103    115   5     0.00000     0.00000     1.25520  0.0
    109    101    103    113   5     0.00000     0.00000     1.25520  0.0
    109    101    103    114   5     0.00000     0.00000     1.25520  0.0
    109    101    103    115   5     0.00000     0.00000     1.25520  0.0
     98    116    117    118   5     5.25092    -2.58990     2.28446  0.0
     98    116    117    125   5     0.00000     0.00000     1.25520  0.0
     98    116    117    135   5     4.74884    -0.63178     1.67360  0.0
    123    116    117    118   5     0.00000     0.00000     1.95811  0.0
    123    116    117    125   5     0.00000     0.00000     1.25520  0.0
    123    116    117    135   5     0.00000     0.00000     1.25520  0.0
    124    116    117    118   5     0.00000     0.00000     1.95811  0.0
    124    116    117    125   5     0.00000     0.00000     1.25520  0.0
    124    116    117    135   5     0.00000     0.00000     1.25520  0.0
    116    117    118    119   5     0.52300    -0.09205     2.34722  0.0
    125    117    118    119   5     0.00000     0.00000     3.10034  0.0
    135    117    118    119   5     0.52300    -0.09205     2.34722  0.0
    116    117    135    136   5     4.74884    -0.63178     1.67360  0.0
    116    117    135    142   5     0.00000     0.00000     1.25520  0.0
    116    117    135    143   5     0.00000     0.00000     1.25520  0.0
    118    117    135    136   5     5.25092    -2.58990     2.28446  0.0
    118    117    135    142   5     0.00000     0.00000     1.95811  0.0
    118    117    135    143   5     0.00000     0.00000     1.95811  0.0
    125    117    135    136   5     0.00000     0.00000     1.25520  0.0
    125    117    135    142   5     0.00000     0.00000     1.25520  0.0
    125    117    135    143   5     0.00000     0.00000     1.25520  0.0
    117    118    119    120   5     0.52300    -0.09205     2.34722  0.0
    117    118    119    126   5     0.00000     0.00000     3.10034  0.0
    117    118    119    127   5     0.00000     0.00000     3.10034  0.0
    118    119    120    121   5     5.25092    -2.58990     2.28446  0.0
    118    119    120    122   5     5.25092    -2.58990     2.28446  0.0
    118    119    120    128   5     0.00000     0.00000     1.95811  0.0
    126    119    120    121   5     0.00000     0.00000     1.25520  0.0
    126    119    120    122   5     0.00000     0.00000     1.25520  0.0
    126    119    120    128   5     0.00000     0.00000     1.25520  0.0
    127    119    120    121   5     0.00000     0.00000     1.25520  0.0
    127    119    120    122   5     0.00000     0.00000     1.25520  0.0
    127    119    120    128   5     0.00000     0.00000     1.25520  0.0
    119    120    121    129   5     0.00000     0.00000     1.25520  0.0
    119    120    121    130   5     0.00000     0.00000     1.25520  0.0
    119    120    121    131   5     0.00000     0.00000     1.25520  0.0
    122    120    121    129   5     0.00000     0.00000     1.25520  0.0
    122    120    121    130   5     0.00000     0.00000     1.25520  0.0
    122    120    121    131   5     0.00000     0.00000     1.25520  0.0
    128    120    121    129   5     0.00000     0.00000     1.25520  0.0
    128    120    121    130   5     0.00000     0.00000     1.25520  0.0
    128    120    121    131   5     0.00000     0.00000     1.25520  0.0
    119    120    122    132   5     0.00000     0.00000     1.25520  0.0
    119    120    122    133   5     0.00000     0.00000     1.25520  0.0
    119    120    122    134   5     0.00000     0.00000     1.25520  0.0
    121    120    122    132   5     0.00000     0.00000     1.25520  0.0
    121    120    122    133   5     0.00000     0.00000     1.25520  0.0
    121    120    122    134   5     0.00000     0.00000     1.25520  0.0
    128    120    122    132   5     0.00000     0.00000     1.25520  0.0
    128    120    122    133   5     0.00000     0.00000     1.25520  0.0
    128    120    122    134   5     0.00000     0.00000     1.25520  0.0
    117    135    136    137   5     5.25092    -2.58990     2.28446  0.0
    117    135    136    144   5     0.00000     0.00000     1.25520  0.0
    117    135    136    154   5     4.74884    -0.63178     1.67360  0.0
    142    135    136    137   5     0.00000     0.00000     1.95811  0.0
    142    135    136    144   5     0.00000     0.00000     1.25520  0.0
    142    135    136    154   5     0.00000     0.00000     1.25520  0.0
    143    135    136    137   5     0.00000     0.00000     1.95811  0.0
    143    135    136    144   5     0.00000     0.00000     1.25520  0.0
    143    135    136    154   5     0.00000     0.00000     1.25520  0.0
    135    136    137    138   5     0.52300    -0.09205     2.34722  0.0
    144    136    137    138   5     0.00000     0.00000     3.10034  0.0
    154    136    137    138   5     0.52300    -0.09205     2.34722  0.0
    135    136    154    155   5     4.74884    -0.63178     1.67360  0.0
    135    136    154    161   5     0.00000     0.00000     1.25520  0.0
    135    136    154    162   5     0.00000     0.00000     1.25520  0.0
    137    136    154    155   5     5.25092    -2.58990     2.28446  0.0
    137    136    154    161   5     0.00000     0.00000     1.95811  0.0
    137    136    154    162   5     0.00000     0.00000     1.95811  0.0
    144    136    154    155   5     0.00000     0.00000     1.25520  0.0
    144    136    154    161   5     0.00000     0.00000     1.25520  0.0
    144    136    154    162   5     0.00000     0.00000     1.25520  0.0
    136    137    138    139   5     0.52300    -0.09205     2.34722  0.0
    136    137    138    145   5     0.00000     0.00000     3.10034  0.0
    136    137    138    146   5     0.00000     0.00000     3.10034  0.0
    137    138    139    140   5     5.25092    -2.58990     2.28446  0.0
    137    138    139    141   5     5.25092    -2.58990     2.28446  0.0
    137    138    139    147   5     0.00000     0.00000     1.95811  0.0
    145    138    139    140   5     0.00000     0.00000     1.25520  0.0
    145    138    139    141   5     0.00000     0.00000     1.25520  0.0
    145    138    139    147   5     0.00000     0.00000     1.25520  0.0
    146    138    139    140   5     0.00000     0.00000     1.25520  0.0
    146    138    139    141   5     0.00000     0.00000     1.25520  0.0
    146    138    139    147   5     0.00000     0.00000     1.25520  0.0
    138    139    140    148   5     0.00000     0.00000     1.25520  0.0
    138    139    140    149   5     0.00000     0.00000     1.25520  0.0
    138    139    140    150   5     0.00000     0.00000     1.25520  0.0
    141    139    140    148   5     0.00000     0.00000     1.25520  0.0
    141    139    140    149   5     0.00000     0.00000     1.25520  0.0
    141    139    140    150   5     0.00000     0.00000     1.25520  0.0
    147    139    140    148   5     0.00000     0.00000     1.25520  0.0
    147    139    140    149   5     0.00000     0.00000     1.25520  0.0
    147    139    140    150   5     0.00000     0.00000     1.25520  0.0
    138    139    141    151   5     0.00000     0.00000     1.25520  0.0
    138    139    141    152   5     0.00000     0.00000     1.25520  0.0
    138    139    141    153   5     0.00000     0.00000     1.25520  0.0
    140    139    141    151   5     0.00000     0.00000     1.25520  0.0
    140    139    141    152   5     0.00000     0.00000     1.25520  0.0
    140    139    141    153   5     0.00000     0.00000     1.25520  0.0
    147    139    141    151   5     0.00000     0.00000     1.25520  0.0
    147    139    141    152   5     0.00000     0.00000     1.25520  0.0
    147    139    141    153   5     0.00000     0.00000     1.25520  0.0
    136    154    155    156   5     5.25092    -2.58990     2.28446  0.0
    136    154    155    163   5     0.00000     0.00000     1.25520  0.0
    136    154    155    173   5     4.74884    -0.63178     1.67360  0.0
    161    154    155    156   5     0.00000     0.00000     1.95811  0.0
    161    154    155    163   5     0.00000     0.00000     1.25520  0.0
    161    154    155    173   5     0.00000     0.00000     1.25520  0.0
    162    154    155    156   5     0.00000     0.00000     1.95811  0.0
    162    154    155    163   5     0.00000     0.00000     1.25520  0.0
    162    154    155    173   5     0.00000     0.00000     1.25520  0.0
    154    155    156    157   5     0.52300    -0.09205     2.34722  0.0
    163    155    156    157   5     0.00000     0.00000     3.10034  0.0
    173    155    156    157   5     0.52300    -0.09205     2.34722  0.0
    154    155    173    174   5     4.74884    -0.63178     1.67360  0.0
    154    155    173    180   5     0.00000     0.00000     1.25520  0.0
    154    155    173    181   5     0.00000     0.00000     1.25520  0.0
    156    155    173    174   5     5.25092    -2.58990     2.28446  0.0
    156    155    173    180   5     0.00000     0.00000     1.95811  0.0
    156    155    173    181   5     0.00000     0.00000     1.95811  0.0
    163    155    173    174   5     0.00000     0.00000     1.25520  0.0
    163    155    173    180   5     0.00000     0.00000     1.25520  0.0
    163    155    173    181   5     0.00000     0.00000     1.25520  0.0
    155    156    157    158   5     0.52300    -0.09205     2.34722  0.0
    155    156    157    164   5     0.00000     0.00000     3.10034  0.0
    155    156    157    165   5     0.00000     0.00000     3.10034  0.0
    156    157    158    159   5     5.25092    -2.58990     2.28446  0.0
    156    157    158    160   5     5.25092    -2.58990     2.28446  0.0
    156    157    158    166   5     0.00000     0.00000     1.95811  0.0
    164    157    158    159   5     0.00000     0.00000     1.25520  0.0
    164    157    158    160   5     0.00000     0.00000     1.25520  0.0
    164    157    158    166   5     0.00000     0.00000     1.25520  0.0
    165    157    158    159   5     0.00000     0.00000     1.25520  0.0
    165    157    158    160   5     0.00000     0.00000     1.25520  0.0
    165    157    158    166   5     0.00000     0.00000     1.25520  0.0
    157    158    159    167   5     0.00000     0.00000     1.25520  0.0
    157    158    159    168   5     0.00000     0.00000     1.25520  0.0
    157    158    159    169   5     0.00000     0.00000     1.25520  0.0
    160    158    159    167   5     0.00000     0.00000     1.25520  0.0
    160    158    159    168   5     0.00000     0.00000     1.25520  0.0
    160    158    159    169   5     0.00000     0.00000     1.25520  0.0
    166    158    159    167   5     0.00000     0.00000     1.25520  0.0
    166    158    159    168   5     0.00000     0.00000     1.25520  0.0
    166    158    159    169   5     0.00000     0.00000     1.25520  0.0
    157    158    160    170   5     0.00000     0.00000     1.25520  0.0
    157    158    160    171   5     0.00000     0.00000     1.25520  0.0
    157    158    160    172   5     0.00000     0.00000     1.25520  0.0
    159    158    160    170   5     0.00000     0.00000     1.25520  0.0
    159    158    160    171   5     0.00000     0.00000     1.25520  0.0
    159    158    160    172   5     0.00000     0.00000     1.25520  0.0
    166    158    160    170   5     0.00000     0.00000     1.25520  0.0
    166    158    160    171   5     0.00000     0.00000     1.25520  0.0
    166    158    160    172   5     0.00000     0.00000     1.25520  0.0
    155    173    174    175   5     5.25092    -2.58990     2.28446  0.0
    155    173    174    182   5     0.00000     0.00000     1.25520  0.0
    155    173    174    192   5     4.74884    -0.63178     1.67360  0.0
    180    173    174    175   5     0.00000     0.00000     1.95811  0.0
    180    173    174    182   5     0.00000     0.00000     1.25520  0.0
    180    173    174    192   5     0.00000     0.00000     1.25520  0.0
    181    173    174    175   5     0.00000     0.00000     1.95811  0.0
    181    173    174    182   5     0.00000     0.00000     1.25520  0.0
    181    173    174    192   5     0.00000     0.00000     1.25520  0.0
    173    174    175    176   5     0.52300    -0.09205     2.34722  0.0
    182    174    175    176   5     0.00000     0.00000     3.10034  0.0
    192    174    175    176   5     0.52300    -0.09205     2.34722  0.0
    173    174    192    193   5     4.74884    -0.63178     1.67360  0.0
    173    174    192    199   5     0.00000     0.00000     1.25520  0.0
    173    174    192    200   5     0.00000     0.00000     1.25520  0.0
    175    174    192    193   5     5.25092    -2.58990     2.28446  0.0
    175    174    192    199   5     0.00000     0.00000     1.95811  0.0
    175    174    192    200   5     0.00000     0.00000     1.95811  0.0
    182    174    192    193   5     0.00000     0.00000     1.25520  0.0
    182    174    192    199   5     0.00000     0.00000     1.25520  0.0
    182    174    192    200   5     0.00000     0.00000     1.25520  0.0
    174    175    176    177   5     0.52300    -0.09205     2.34722  0.0
    174    175    176    183   5     0.00000     0.00000     3.10034  0.0
    174    175    176    184   5     0.00000     0.00000     3.10034  0.0
    175    176    177    178   5     5.25092    -2.58990     2.28446  0.0
    175    176    177    179   5     5.25092    -2.58990     2.28446  0.0
    175    176    177    185   5     0.00000     0.00000     1.95811  0.0
    183    176    177    178   5     0.00000     0.00000     1.25520  0.0
    183    176    177    179   5     0.00000     0.00000     1.25520  0.0
    183    176    177    185   5     0.00000     0.00000     1.25520  0.0
    184    176    177    178   5     0.00000     0.00000     1.25520  0.0
    184    176    177    179   5     0.00000     0.00000     1.25520  0.0
    184    176    177    185   5     0.00000     0.00000     1.25520  0.0
    176    177    178    186   5     0.00000     0.00000     1.25520  0.0
    176    177    178    187   5     0.00000     0.00000     1.25520  0.0
    176    177    178    188   5     0.00000     0.00000     1.25520  0.0
    179    177    178    186   5     0.00000     0.00000     1.25520  0.0
    179    177    178    187   5     0.00000     0.00000     1.25520  0.0
    179    177    178    188   5     0.00000     0.00000     1.25520  0.0
    185    177    178    186   5     0.00000     0.00000     1.25520  0.0
    185    177    178    187   5     0.00000     0.00000     1.25520  0.0
    185    177    178    188   5     0.00000     0.00000     1.25520  0.0
    176    177    179    189   5     0.00000     0.00000     1.25520  0.0
    176    177    179    190   5     0.00000     0.00000     1.25520  0.0
    176    177    179    191   5     0.00000     0.00000     1.25520  0.0
    178    177    179    189   5     0.00000     0.00000     1.25520  0.0
    178    177    179    190   5     0.00000     0.00000     1.25520  0.0
    178    177    179    191   5     0.00000     0.00000     1.25520  0.0
    185    177    179    189   5     0.00000     0.00000     1.25520  0.0
    185    177    179    190   5     0.00000     0.00000     1.25520  0.0
    185    177    179    191   5     0.00000     0.00000     1.25520  0.0
    174    192    193    194   5     5.25092    -2.58990     2.28446  0.0
    174    192    193    201   5     0.00000     0.00000     1.25520  0.0
    174    192    193    211   5     4.74884    -0.63178     1.67360  0.0
    199    192    193    194   5     0.00000     0.00000     1.95811  0.0
    199    192    193    201   5     0.00000     0.00000     1.25520  0.0
    199    192    193    211   5     0.00000     0.00000     1.25520  0.0
    200    192    193    194   5     0.00000     0.00000     1.95811  0.0
    200    192    193    201   5     0.00000     0.00000     1.25520  0.0
    200    192    193    211   5     0.00000     0.00000     1.25520  0.0
    192    193    194    195   5     0.52300    -0.09205     2.34722  0.0
    201    193    194    195   5     0.00000     0.00000     3.10034  0.0
    211    193    194    195   5     0.52300    -0.09205     2.34722  0.0
    192    193    211    212   5     4.74884    -0.63178     1.67360  0.0
    192    193    211    218   5     0.00000     0.00000     1.25520  0.0
    192    193    211    219   5     0.00000     0.00000     1.25520  0.0
    194    193    211    212   5     5.25092    -2.58990     2.28446  0.0
    194    193    211    218   5     0.00000     0.00000     1.95811  0.0
    194    193    211    219   5     0.00000     0.00000     1.95811  0.0
    201    193    211    212   5     0.00000     0.00000     1.25520  0.0
    201    193    211    218   5     0.00000     0.00000     1.25520  0.0
    201    193    211    219   5     0.00000     0.00000     1.25520  0.0
    193    194    195    196   5     0.52300    -0.09205     2.34722  0.0
    193    194    195    202   5     0.00000     0.00000     3.10034  0.0
    193    194    195    203   5     0.00000     0.00000     3.10034  0.0
    194    195    196    197   5     5.25092    -2.58990     2.28446  0.0
    194    195    196    198   5     5.25092    -2.58990     2.28446  0.0
    194    195    196    204   5     0.00000     0.00000     1.95811  0.0
    202    195    196    197   5     0.00000     0.00000     1.25520  0.0
    202    195    196    198   5     0.00000     0.00000     1.25520  0.0
    202    195    196    204   5     0.00000     0.00000     1.25520  0.0
    203    195    196    197   5     0.00000     0.00000     1.25520  0.0
    203    195    196    198   5     0.00000     0.00000     1.25520  0.0
    203    195    196    204   5     0.00000     0.00000     1.25520  0.0
    195    196    197    205   5     0.00000     0.00000     1.25520  0.0
    195    196    197    206   5     0.00000     0.00000     1.25520  0.0
    195    196    197    207   5     0.00000     0.00000     1.25520  0.0
    198    196    197    205   5     0.00000     0.00000     1.25520  0.0
    198    196    197    206   5     0.00000     0.00000     1.25520  0.0
    198    196    197    207   5     0.00000     0.00000     1.25520  0.0
    204    196    197    205   5     0.00000     0.00000     1.25520  0.0
    204    196    197    206   5     0.00000     0.00000     1.25520  0.0
    204    196    197    207   5     0.00000     0.00000     1.25520  0.0
    195    196    198    208   5     0.00000     0.00000     1.25520  0.0
    195    196    198    209   5     0.00000     0.00000     1.25520  0.0
    195    196    198    210   5     0.00000     0.00000     1.25520  0.0
    197    196    198    208   5     0.00000     0.00000     1.25520  0.0
    197    196    198    209   5     0.00000     0.00000     1.25520  0.0
    197    196    198    210   5     0.00000     0.00000     1.25520  0.0
    204    196    198    208   5     0.00000     0.00000     1.25520  0.0
    204    196    198    209   5     0.00000     0.00000     1.25520  0.0
    204    196    198    210   5     0.00000     0.00000     1.25520  0.0
    193    211    212    213   5     5.25092    -2.58990     2.28446  0.0
    193    211    212    220   5     0.00000     0.00000     1.25520  0.0
    193    211    212    230   5     4.74884    -0.63178     1.67360  0.0
    218    211    212    213   5     0.00000     0.00000     1.95811  0.0
    218    211    212    220   5     0.00000     0.00000     1.25520  0.0
    218    211    212    230   5     0.00000     0.00000     1.25520  0.0
    219    211    212    213   5     0.00000     0.00000     1.95811  0.0
    219    211    212    220   5     0.00000     0.00000     1.25520  0.0
    219    211    212    230   5     0.00000     0.00000     1.25520  0.0
    211    212    213    214   5     0.52300    -0.09205     2.34722  0.0
    220    212    213    214   5     0.00000     0.00000     3.10034  0.0
    230    212    213    214   5     0.52300    -0.09205     2.34722  0.0
    211    212    230    231   5     4.74884    -0.63178     1.67360  0.0
    211    212    230    237   5     0.00000     0.00000     1.25520  0.0
    211    212    230    238   5     0.00000     0.00000     1.25520  0.0
    213    212    230    231   5     5.25092    -2.58990     2.28446  0.0
    213    212    230    237   5     0.00000     0.00000     1.95811  0.0
    213    212    230    238   5     0.00000     0.00000     1.95811  0.0
    220    212    230    231   5     0.00000     0.00000     1.25520  0.0
    220    212    230    237   5     0.00000     0.00000     1.25520  0.0
    220    212    230    238   5     0.00000     0.00000     1.25520  0.0
    212    213    214    215   5     0.52300    -0.09205     2.34722  0.0
    212    213    214    221   5     0.00000     0.00000     3.10034  0.0
    212    213    214    222   5     0.00000     0.00000     3.10034  0.0
    213    214    215    216   5     5.25092    -2.58990     2.28446  0.0
    213    214    215    217   5     5.25092    -2.58990     2.28446  0.0
    213    214    215    223   5     0.00000     0.00000     1.95811  0.0
    221    214    215    216   5     0.00000     0.00000     1.25520  0.0
    221    214    215    217   5     0.00000     0.00000     1.25520  0.0
    221    214    215    223   5     0.00000     0.00000     1.25520  0.0
    222    214    215    216   5     0.00000     0.00000     1.25520  0.0
    222    214    215    217   5     0.00000     0.00000     1.25520  0.0
    222    214    215    223   5     0.00000     0.00000     1.25520  0.0
    214    215    216    224   5     0.00000     0.00000     1.25520  0.0
    214    215    216    225   5     0.00000     0.00000     1.25520  0.0
    214    215    216    226   5     0.00000     0.00000     1.25520  0.0
    217    215    216    224   5     0.00000     0.00000     1.25520  0.0
    217    215    216    225   5     0.00000     0.00000     1.25520  0.0
    217    215    216    226   5     0.00000     0.00000     1.25520  0.0
    223    215    216    224   5     0.00000     0.00000     1.25520  0.0
    223    215    216    225   5     0.00000     0.00000     1.25520  0.0
    223    215    216    226   5     0.00000     0.00000     1.25520  0.0
    214    215    217    227   5     0.00000     0.00000     1.25520  0.0
    214    215    217    228   5     0.00000     0.00000     1.25520  0.0
    214    215    217    229   5     0.00000     0.00000     1.25520  0.0
    216    215    217    227   5     0.00000     0.00000     1.25520  0.0
    216    215    217    228   5     0.00000     0.00000     1.25520  0.0
    216    215    217    229   5     0.00000     0.00000     1.25520  0.0
    223    215    217    227   5     0.00000     0.00000     1.25520  0.0
    223    215    217    228   5     0.00000     0.00000     1.25520  0.0
    223    215    217    229   5     0.00000     0.00000     1.25520  0.0
    212    230    231    232   5     5.25092    -2.58990     2.28446  0.0
    212    230    231    239   5     0.00000     0.00000     1.25520  0.0
    212    230    231    249   5     4.74884    -0.63178     1.67360  0.0
    237    230    231    232   5     0.00000     0.00000     1.95811  0.0
    237    230    231    239   5     0.00000     0.00000     1.25520  0.0
    237    230    231    249   5     0.00000     0.00000     1.25520  0.0
    238    230    231    232   5     0.00000     0.00000     1.95811  0.0
    238    230    231    239   5     0.00000     0.00000     1.25520  0.0
    238    230    231    249   5     0.00000     0.00000     1.25520  0.0
    230    231    232    233   5     0.52300    -0.09205     2.34722  0.0
    239    231    232    233   5     0.00000     0.00000     3.10034  0.0
    249    231    232    233   5     0.52300    -0.09205     2.34722  0.0
    230    231    249    250   5     4.74884    -0.63178     1.67360  0.0
    230    231    249    256   5     0.00000     0.00000     1.25520  0.0
    230    231    249    257   5     0.00000     0.00000     1.25520  0.0
    232    231    249    250   5     5.25092    -2.58990     2.28446  0.0
    232    231    249    256   5     0.00000     0.00000     1.95811  0.0
    232    231    249    257   5     0.00000     0.00000     1.95811  0.0
    239    231    249    250   5     0.00000     0.00000     1.25520  0.0
    239    231    249    256   5     0.00000     0.00000     1.25520  0.0
    239    231    249    257   5     0.00000     0.00000     1.25520  0.0
    231    232    233    234   5     0.52300    -0.09205     2.34722  0.0
    231    232    233    240   5     0.00000     0.00000     3.10034  0.0
    231    232    233    241   5     0.00000     0.00000     3.10034  0.0
    232    233    234    235   5     5.25092    -2.58990     2.28446  0.0
    232    233    234    236   5     5.25092    -2.58990     2.28446  0.0
    232    233    234    242   5     0.00000     0.00000     1.95811  0.0
    240    233    234    235   5     0.00000     0.00000     1.25520  0.0
    240    233    234    236   5     0.00000     0.00000     1.25520  0.0
    240    233    234    242   5     0.00000     0.00000     1.25520  0.0
    241    233    234    235   5     0.00000     0.00000     1.25520  0.0
    241    233    234    236   5     0.00000     0.00000     1.25520  0.0
    241    233    234    242   5     0.00000     0.00000     1.25520  0.0
    233    234    235    243   5     0.00000     0.00000     1.25520  0.0
    233    234    235    244   5     0.00000     0.00000     1.25520  0.0
    233    234    235    245   5     0.00000     0.00000     1.25520  0.0
    236    234    235    243   5     0.00000     0.00000     1.25520  0.0
    236    234    235    244   5     0.00000     0.00000     1.25520  0.0
    236    234    235    245   5     0.00000     0.00000     1.25520  0.0
    242    234    235    243   5     0.00000     0.00000     1.25520  0.0
    242    234    235    244   5     0.00000     0.00000     1.25520  0.0
    242    234    235    245   5     0.00000     0.00000     1.25520  0.0
    233    234    236    246   5     0.00000     0.00000     1.25520  0.0
    233    234    236    247   5     0.00000     0.00000     1.25520  0.0
    233    234    236    248   5     0.00000     0.00000     1.25520  0.0
    235    234    236    246   5     0.00000     0.00000     1.25520  0.0
    235    234    236    247   5     0.00000     0.00000     1.25520  0.0
    235    234    236    248   5     0.00000     0.00000     1.25520  0.0
    242    234    236    246   5     0.00000     0.00000     1.25520  0.0
    242    234    236    247   5     0.00000     0.00000     1.25520  0.0
    242    234    236    248   5     0.00000     0.00000     1.25520  0.0
    231    249    250    251   5     5.25092    -2.58990     2.28446  0.0
    231    249    250    258   5     0.00000     0.00000     1.25520  0.0
    231    249    250    268   5     4.74884    -0.63178     1.67360  0.0
    256    249    250    251   5     0.00000     0.00000     1.95811  0.0
    256    249    250    258   5     0.00000     0.00000     1.25520  0.0
    256    249    250    268   5     0.00000     0.00000     1.25520  0.0
    257    249    250    251   5     0.00000     0.00000     1.95811  0.0
    257    249    250    258   5     0.00000     0.00000     1.25520  0.0
    257    249    250    268   5     0.00000     0.00000     1.25520  0.0
    249    250    251    252   5     0.52300    -0.09205     2.34722  0.0
    258    250    251    252   5     0.00000     0.00000     3.10034  0.0
    268    250    251    252   5     0.52300    -0.09205     2.34722  0.0
    249    250    268    269   5     4.74884    -0.63178     1.67360  0.0
    249    250    268    275   5     0.00000     0.00000     1.25520  0.0
    249    250    268    276   5     0.00000     0.00000     1.25520  0.0
    251    250    268    269   5     5.25092    -2.58990     2.28446  0.0
    251    250    268    275   5     0.00000     0.00000     1.95811  0.0
    251    250    268    276   5     0.00000     0.00000     1.95811  0.0
    258    250    268    269   5     0.00000     0.00000     1.25520  0.0
    258    250    268    275   5     0.00000     0.00000     1.25520  0.0
    258    250    268    276   5     0.00000     0.00000     1.25520  0.0
    250    251    252    253   5     0.52300    -0.09205     2.34722  0.0
    250    251    252    259   5     0.00000     0.00000     3.10034  0.0
    250    251    252    260   5     0.00000     0.00000     3.10034  0.0
    251    252    253    254   5     5.25092    -2.58990     2.28446  0.0
    251    252    253    255   5     5.25092    -2.58990     2.28446  0.0
    251    252    253    261   5     0.00000     0.00000     1.95811  0.0
    259    252    253    254   5     0.00000     0.00000     1.25520  0.0
    259    252    253    255   5     0.00000     0.00000     1.25520  0.0
    259    252    253    261   5     0.00000     0.00000     1.25520  0.0
    260    252    253    254   5     0.00000     0.00000     1.25520  0.0
    260    252    253    255   5     0.00000     0.00000     1.25520  0.0
    260    252    253    261   5     0.00000     0.00000     1.25520  0.0
    252    253    254    262   5     0.00000     0.00000     1.25520  0.0
    252    253    254    263   5     0.00000     0.00000     1.25520  0.0
    252    253    254    264   5     0.00000     0.00000     1.25520  0.0
    255    253    254    262   5     0.00000     0.00000     1.25520  0.0
    255    253    254    263   5     0.00000     0.00000     1.25520  0.0
    255    253    254    264   5     0.00000     0.00000     1.25520  0.0
    261    253    254    262   5     0.00000     0.00000     1.25520  0.0
    261    253    254    263   5     0.00000     0.00000     1.25520  0.0
    261    253    254    264   5     0.00000     0.00000     1.25520  0.0
    252    253    255    265   5     0.00000     0.00000     1.25520  0.0
    252    253    255    266   5     0.00000     0.00000     1.25520  0.0
    252    253    255    267   5     0.00000     0.00000     1.25520  0.0
    254    253    255    265   5     0.00000     0.00000     1.25520  0.0
    254    253    255    266   5     0.00000     0.00000     1.25520  0.0
    254    253    255    267   5     0.00000     0.00000     1.25520  0.0
    261    253    255    265   5     0.00000     0.00000     1.25520  0.0
    261    253    255    266   5     0.00000     0.00000     1.25520  0.0
    261    253    255    267   5     0.00000     0.00000     1.25520  0.0
    250    268    269    270   5     5.25092    -2.58990     2.28446  0.0
    250    268    269    277   5     0.00000     0.00000     1.25520  0.0
    250    268    269    287   5     4.74884    -0.63178     1.67360  0.0
    275    268    269    270   5     0.00000     0.00000     1.95811  0.0
    275    268    269    277   5     0.00000     0.00000     1.25520  0.0
    275    268    269    287   5     0.00000     0.00000     1.25520  0.0
    276    268    269    270   5     0.00000     0.00000     1.95811  0.0
    276    268    269    277   5     0.00000     0.00000     1.25520  0.0
    276    268    269    287   5     0.00000     0.00000     1.25520  0.0
    268    269    270    271   5     0.52300    -0.09205     2.34722  0.0
    277    269    270    271   5     0.00000     0.00000     3.10034  0.0
    287    269    270    271   5     0.52300    -0.09205     2.34722  0.0
    268    269    287    288   5     4.74884    -0.63178     1.67360  0.0
    268    269    287    294   5     0.00000     0.00000     1.25520  0.0
    268    269    287    295   5     0.00000     0.00000     1.25520  0.0
    270    269    287    288   5     5.25092    -2.58990     2.28446  0.0
    270    269    287    294   5     0.00000     0.00000     1.95811  0.0
    270    269    287    295   5     0.00000     0.00000     1.95811  0.0
    277    269    287    288   5     0.00000     0.00000     1.25520  0.0
    277    269    287    294   5     0.00000     0.00000     1.25520  0.0
    277    269    287    295   5     0.00000     0.00000     1.25520  0.0
    269    270    271    272   5     0.52300    -0.09205     2.34722  0.0
    269    270    271    278   5     0.00000     0.00000     3.10034  0.0
    269    270    271    279   5     0.00000     0.00000     3.10034  0.0
    270    271    272    273   5     5.25092    -2.58990     2.28446  0.0
    270    271    272    274   5     5.25092    -2.58990     2.28446  0.0
    270    271    272    280   5     0.00000     0.00000     1.95811  0.0
    278    271    272    273   5     0.00000     0.00000     1.25520  0.0
    278    271    272    274   5     0.00000     0.00000     1.25520  0.0
    278    271    272    280   5     0.00000     0.00000     1.25520  0.0
    279    271    272    273   5     0.00000     0.00000     1.25520  0.0
    279    271    272    274   5     0.00000     0.00000     1.25520  0.0
    279    271    272    280   5     0.00000     0.00000     1.25520  0.0
    271    272    273    281   5     0.00000     0.00000     1.25520  0.0
    271    272    273    282   5     0.00000     0.00000     1.25520  0.0
    271    272    273    283   5     0.00000     0.00000     1.25520  0.0
    274    272    273    281   5     0.00000     0.00000     1.25520  0.0
    274    272    273    282   5     0.00000     0.00000     1.25520  0.0
    274    272    273    283   5     0.00000     0.00000     1.25520  0.0
    280    272    273    281   5     0.00000     0.00000     1.25520  0.0
    280    272    273    282   5     0.00000     0.00000     1.25520  0.0
    280    272    273    283   5     0.00000     0.00000     1.25520  0.0
    271    272    274    284   5     0.00000     0.00000     1.25520  0.0
    271    272    274    285   5     0.00000     0.00000     1.25520  0.0
    271    272    274    286   5     0.00000     0.00000     1.25520  0.0
    273    272    274    284   5     0.00000     0.00000     1.25520  0.0
    273    272    274    285   5     0.00000     0.00000     1.25520  0.0
    273    272    274    286   5     0.00000     0.00000     1.25520  0.0
    280    272    274    284   5     0.00000     0.00000     1.25520  0.0
    280    272    274    285   5     0.00000     0.00000     1.25520  0.0
    280    272    274    286   5     0.00000     0.00000     1.25520  0.0
    269    287    288    289   5     5.25092    -2.58990     2.28446  0.0
    269    287    288    296   5     0.00000     0.00000     1.25520  0.0
    269    287    288    306   5     4.74884    -0.63178     1.67360  0.0
    294    287    288    289   5     0.00000     0.00000     1.95811  0.0
    294    287    288    296   5     0.00000     0.00000     1.25520  0.0
    294    287    288    306   5     0.00000     0.00000     1.25520  0.0
    295    287    288    289   5     0.00000     0.00000     1.95811  0.0
    295    287    288    296   5     0.00000     0.00000     1.25520  0.0
    295    287    288    306   5     0.00000     0.00000     1.25520  0.0
    287    288    289    290   5     0.52300    -0.09205     2.34722  0.0
    296    288    289    290   5     0.00000     0.00000     3.10034  0.0
    306    288    289    290   5     0.52300    -0.09205     2.34722  0.0
    287    288    306    307   5     4.74884    -0.63178     1.67360  0.0
    287    288    306    313   5     0.00000     0.00000     1.25520  0.0
    287    288    306    314   5     0.00000     0.00000     1.25520  0.0
    289    288    306    307   5     5.25092    -2.58990     2.28446  0.0
    289    288    306    313   5     0.00000     0.00000     1.95811  0.0
    289    288    306    314   5     0.00000     0.00000     1.95811  0.0
    296    288    306    307   5     0.00000     0.00000     1.25520  0.0
    296    288    306    313   5     0.00000     0.00000     1.25520  0.0
    296    288    306    314   5     0.00000     0.00000     1.25520  0.0
    288    289    290    291   5     0.52300    -0.09205     2.34722  0.0
    288    289    290    297   5     0.00000     0.00000     3.10034  0.0
    288    289    290    298   5     0.00000     0.00000     3.10034  0.0
    289    290    291    292   5     5.25092    -2.58990     2.28446  0.0
    289    290    291    293   5     5.25092    -2.58990     2.28446  0.0
    289    290    291    299   5     0.00000     0.00000     1.95811  0.0
    297    290    291    292   5     0.00000     0.00000     1.25520  0.0
    297    290    291    293   5     0.00000     0.00000     1.25520  0.0
    297    290    291    299   5     0.00000     0.00000     1.25520  0.0
    298    290    291    292   5     0.00000     0.00000     1.25520  0.0
    298    290    291    293   5     0.00000     0.00000     1.25520  0.0
    298    290    291    299   5     0.00000     0.00000     1.25520  0.0
    290    291    292    300   5     0.00000     0.00000     1.25520  0.0
    290    291    292    301   5     0.00000     0.00000     1.25520  0.0
    290    291    292    302   5     0.00000     0.00000     1.25520  0.0
    293    291    292    300   5     0.00000     0.00000     1.25520  0.0
    293    291    292    301   5     0.00000     0.00000     1.25520  0.0
    293    291    292    302   5     0.00000     0.00000     1.25520  0.0
    299    291    292    300   5     0.00000     0.00000     1.25520  0.0
    299    291    292    301   5     0.00000     0.00000     1.25520  0.0
    299    291    292    302   5     0.00000     0.00000     1.25520  0.0
    290    291    293    303   5     0.00000     0.00000     1.25520  0.0
    290    291    293    304   5     0.00000     0.00000     1.25520  0.0
    290    291    293    305   5     0.00000     0.00000     1.25520  0.0
    292    291    293    303   5     0.00000     0.00000     1.25520  0.0
    292    291    293    304   5     0.00000     0.00000     1.25520  0.0
    292    291    293    305   5     0.00000     0.00000     1.25520  0.0
    299    291    293    303   5     0.00000     0.00000     1.25520  0.0
    299    291    293    304   5     0.00000     0.00000     1.25520  0.0
    299    291    293    305   5     0.00000     0.00000     1.25520  0.0
    288    306    307    308   5     5.25092    -2.58990     2.28446  0.0
    288    306    307    315   5     0.00000     0.00000     1.25520  0.0
    288    306    307    325   5     4.74884    -0.63178     1.67360  0.0
    313    306    307    308   5     0.00000     0.00000     1.95811  0.0
    313    306    307    315   5     0.00000     0.00000     1.25520  0.0
    313    306    307    325   5     0.00000     0.00000     1.25520  0.0
    314    306    307    308   5     0.00000     0.00000     1.95811  0.0
    314    306    307    315   5     0.00000     0.00000     1.25520  0.0
    314    306    307    325   5     0.00000     0.00000     1.25520  0.0
    306    307    308    309   5     0.52300    -0.09205     2.34722  0.0
    315    307    308    309   5     0.00000     0.00000     3.10034  0.0
    325    307    308    309   5     0.52300    -0.09205     2.34722  0.0
    306    307    325    326   5     4.74884    -0.63178     1.67360  0.0
    306    307    325    332   5     0.00000     0.00000     1.25520  0.0
    306    307    325    333   5     0.00000     0.00000     1.25520  0.0
    308    307    325    326   5     5.25092    -2.58990     2.28446  0.0
    308    307    325    332   5     0.00000     0.00000     1.95811  0.0
    308    307    325    333   5     0.00000     0.00000     1.95811  0.0
    315    307    325    326   5     0.00000     0.00000     1.25520  0.0
    315    307    325    332   5     0.00000     0.00000     1.25520  0.0
    315    307    325    333   5     0.00000     0.00000     1.25520  0.0
    307    308    309    310   5     0.52300    -0.09205     2.34722  0.0
    307    308    309    316   5     0.00000     0.00000     3.10034  0.0
    307    308    309    317   5     0.00000     0.00000     3.10034  0.0
    308    309    310    311   5     5.25092    -2.58990     2.28446  0.0
    308    309    310    312   5     5.25092    -2.58990     2.28446  0.0
    308    309    310    318   5     0.00000     0.00000     1.95811  0.0
    316    309    310    311   5     0.00000     0.00000     1.25520  0.0
    316    309    310    312   5     0.00000     0.00000     1.25520  0.0
    316    309    310    318   5     0.00000     0.00000     1.25520  0.0
    317    309    310    311   5     0.00000     0.00000     1.25520  0.0
    317    309    310    312   5     0.00000     0.00000     1.25520  0.0
    317    309    310    318   5     0.00000     0.00000     1.25520  0.0
    309    310    311    319   5     0.00000     0.00000     1.25520  0.0
    309    310    311    320   5     0.00000     0.00000     1.25520  0.0
    309    310    311    321   5     0.00000     0.00000     1.25520  0.0
    312    310    311    319   5     0.00000     0.00000     1.25520  0.0
    312    310    311    320   5     0.00000     0.00000     1.25520  0.0
    312    310    311    321   5     0.00000     0.00000     1.25520  0.0
    318    310    311    319   5     0.00000     0.00000     1.25520  0.0
    318    310    311    320   5     0.00000     0.00000     1.25520  0.0
    318    310    311    321   5     0.00000     0.00000     1.25520  0.0
    309    310    312    322   5     0.00000     0.00000     1.25520  0.0
    309    310    312    323   5     0.00000     0.00000     1.25520  0.0
    309    310    312    324   5     0.00000     0.00000     1.25520  0.0
    311    310    312    322   5     0.00000     0.00000     1.25520  0.0
    311    310    312    323   5     0.00000     0.00000     1.25520  0.0
    311    310    312    324   5     0.00000     0.00000     1.25520  0.0
    318    310    312    322   5     0.00000     0.00000     1.25520  0.0
    318    310    312    323   5     0.00000     0.00000     1.25520  0.0
    318    310    312    324   5     0.00000     0.00000     1.25520  0.0
    307    325    326    327   5     5.25092    -2.58990     2.28446  0.0
    307    325    326    334   5     0.00000     0.00000     1.25520  0.0
    307    325    326    344   5     4.74884    -0.63178     1.67360  0.0
    332    325    326    327   5     0.00000     0.00000     1.95811  0.0
    332    325    326    334   5     0.00000     0.00000     1.25520  0.0
    332    325    326    344   5     0.00000     0.00000     1.25520  0.0
    333    325    326    327   5     0.00000     0.00000     1.95811  0.0
    333    325    326    334   5     0.00000     0.00000     1.25520  0.0
    333    325    326    344   5     0.00000     0.00000     1.25520  0.0
    325    326    327    328   5     0.52300    -0.09205     2.34722  0.0
    334    326    327    328   5     0.00000     0.00000     3.10034  0.0
    344    326    327    328   5     0.52300    -0.09205     2.34722  0.0
    325    326    344    345   5     4.74884    -0.63178     1.67360  0.0
    325    326    344    351   5     0.00000     0.00000     1.25520  0.0
    325    326    344    352   5     0.00000     0.00000     1.25520  0.0
    327    326    344    345   5     5.25092    -2.58990     2.28446  0.0
    327    326    344    351   5     0.00000     0.00000     1.95811  0.0
    327    326    344    352   5     0.00000     0.00000     1.95811  0.0
    334    326    344    345   5     0.00000     0.00000     1.25520  0.0
    334    326    344    351   5     0.00000     0.00000     1.25520  0.0
    334    326    344    352   5     0.00000     0.00000     1.25520  0.0
    326    327    328    329   5     0.52300    -0.09205     2.34722  0.0
    326    327    328    335   5     0.00000     0.00000     3.10034  0.0
    326    327    328    336   5     0.00000     0.00000     3.10034  0.0
    327    328    329    330   5     5.25092    -2.58990     2.28446  0.0
    327    328    329    331   5     5.25092    -2.58990     2.28446  0.0
    327    328    329    337   5     0.00000     0.00000     1.95811  0.0
    335    328    329    330   5     0.00000     0.00000     1.25520  0.0
    335    328    329    331   5     0.00000     0.00000     1.25520  0.0
    335    328    329    337   5     0.00000     0.00000     1.25520  0.0
    336    328    329    330   5     0.00000     0.00000     1.25520  0.0
    336    328    329    331   5     0.00000     0.00000     1.25520  0.0
    336    328    329    337   5     0.00000     0.00000     1.25520  0.0
    328    329    330    338   5     0.00000     0.00000     1.25520  0.0
    328    329    330    339   5     0.00000     0.00000     1.25520  0.0
    328    329    330    340   5     0.00000     0.00000     1.25520  0.0
    331    329    330    338   5     0.00000     0.00000     1.25520  0.0
    331    329    330    339   5     0.00000     0.00000     1.25520  0.0
    331    329    330    340   5     0.00000     0.00000     1.25520  0.0
    337    329    330    338   5     0.00000     0.00000     1.25520  0.0
    337    329    330    339   5     0.00000     0.00000     1.25520  0.0
    337    329    330    340   5     0.00000     0.00000     1.25520  0.0
    328    329    331    341   5     0.00000     0.00000     1.25520  0.0
    328    329    331    342   5     0.00000     0.00000     1.25520  0.0
    328    329    331    343   5     0.00000     0.00000     1.25520  0.0
    330    329    331    341   5     0.00000     0.00000     1.25520  0.0
    330    329    331    342   5     0.00000     0.00000     1.25520  0.0
    330    329    331    343   5     0.00000     0.00000     1.25520  0.0
    337    329    331    341   5     0.00000     0.00000     1.25520  0.0
    337    329    331    342   5     0.00000     0.00000     1.25520  0.0
    337    329    331    343   5     0.00000     0.00000     1.25520  0.0
    326    344    345    346   5     5.25092    -2.58990     2.28446  0.0
    326    344    345    353   5     0.00000     0.00000     1.25520  0.0
    326    344    345    363   5     4.74884    -0.63178     1.67360  0.0
    351    344    345    346   5     0.00000     0.00000     1.95811  0.0
    351    344    345    353   5     0.00000     0.00000     1.25520  0.0
    351    344    345    363   5     0.00000     0.00000     1.25520  0.0
    352    344    345    346   5     0.00000     0.00000     1.95811  0.0
    352    344    345    353   5     0.00000     0.00000     1.25520  0.0
    352    344    345    363   5     0.00000     0.00000     1.25520  0.0
    344    345    346    347   5     0.52300    -0.09205     2.34722  0.0
    353    345    346    347   5     0.00000     0.00000     3.10034  0.0
    363    345    346    347   5     0.52300    -0.09205     2.34722  0.0
    344    345    363    364   5     4.74884    -0.63178     1.67360  0.0
    344    345    363    370   5     0.00000     0.00000     1.25520  0.0
    344    345    363    371   5     0.00000     0.00000     1.25520  0.0
    346    345    363    364   5     5.25092    -2.58990     2.28446  0.0
    346    345    363    370   5     0.00000     0.00000     1.95811  0.0
    346    345    363    371   5     0.00000     0.00000     1.95811  0.0
    353    345    363    364   5     0.00000     0.00000     1.25520  0.0
    353    345    363    370   5     0.00000     0.00000     1.25520  0.0
    353    345    363    371   5     0.00000     0.00000     1.25520  0.0
    345    346    347    348   5     0.52300    -0.09205     2.34722  0.0
    345    346    347    354   5     0.00000     0.00000     3.10034  0.0
    345    346    347    355   5     0.00000     0.00000     3.10034  0.0
    346    347    348    349   5     5.25092    -2.58990     2.28446  0.0
    346    347    348    350   5     5.25092    -2.58990     2.28446  0.0
    346    347    348    356   5     0.00000     0.00000     1.95811  0.0
    354    347    348    349   5     0.00000     0.00000     1.25520  0.0
    354    347    348    350   5     0.00000     0.00000     1.25520  0.0
    354    347    348    356   5     0.00000     0.00000     1.25520  0.0
    355    347    348    349   5     0.00000     0.00000     1.25520  0.0
    355    347    348    350   5     0.00000     0.00000     1.25520  0.0
    355    347    348    356   5     0.00000     0.00000     1.25520  0.0
    347    348    349    357   5     0.00000     0.00000     1.25520  0.0
    347    348    349    358   5     0.00000     0.00000     1.25520  0.0
    347    348    349    359   5     0.00000     0.00000     1.25520  0.0
    350    348    349    357   5     0.00000     0.00000     1.25520  0.0
    350    348    349    358   5     0.00000     0.00000     1.25520  0.0
    350    348    349    359   5     0.00000     0.00000     1.25520  0.0
    356    348    349    357   5     0.00000     0.00000     1.25520  0.0
    356    348    349    358   5     0.00000     0.00000     1.25520  0.0
    356    348    349    359   5     0.00000     0.00000     1.25520  0.0
    347    348    350    360   5     0.00000     0.00000     1.25520  0.0
    347    348    350    361   5     0.00000     0.00000     1.25520  0.0
    347    348    350    362   5     0.00000     0.00000     1.25520  0.0
    349    348    350    360   5     0.00000     0.00000     1.25520  0.0
    349    348    350    361   5     0.00000     0.00000     1.25520  0.0
    349    348    350    362   5     0.00000     0.00000     1.25520  0.0
    356    348    350    360   5     0.00000     0.00000     1.25520  0.0
    356    348    350    361   5     0.00000     0.00000     1.25520  0.0
    356    348    350    362   5     0.00000     0.00000     1.25520  0.0
    345    363    364    365   5     5.25092    -2.58990     2.28446  0.0
    345    363    364    372   5     0.00000     0.00000     1.25520  0.0
    345    363    364    382   5     0.00000     0.00000     1.25520  0.0
    370    363    364    365   5     0.00000     0.00000     1.95811  0.0
    370    363    364    372   5     0.00000     0.00000     1.25520  0.0
    370    363    364    382   5     0.00000     0.00000     1.25520  0.0
    371    363    364    365   5     0.00000     0.00000     1.95811  0.0
    371    363    364    372   5     0.00000     0.00000     1.25520  0.0
    371    363    364    382   5     0.00000     0.00000     1.25520  0.0
    363    364    365    366   5     0.52300    -0.09205     2.34722  0.0
    372    364    365    366   5     0.00000     0.00000     3.10034  0.0
    382    364    365    366   5     0.00000     0.00000     3.10034  0.0
    364    365    366    367   5     0.52300    -0.09205     2.34722  0.0
    364    365    366    373   5     0.00000     0.00000     3.10034  0.0
    364    365    366    374   5     0.00000     0.00000     3.10034  0.0
    365    366    367    368   5     5.25092    -2.58990     2.28446  0.0
    365    366    367    369   5     5.25092    -2.58990     2.28446  0.0
    365    366    367    375   5     0.00000     0.00000     1.95811  0.0
    373    366    367    368   5     0.00000     0.00000     1.25520  0.0
    373    366    367    369   5     0.00000     0.00000     1.25520  0.0
    373    366    367    375   5     0.00000     0.00000     1.25520  0.0
    374    366    367    368   5     0.00000     0.00000     1.25520  0.0
    374    366    367    369   5     0.00000     0.00000     1.25520  0.0
    374    366    367    375   5     0.00000     0.00000     1.25520  0.0
    366    367    368    376   5     0.00000     0.00000     1.25520  0.0
    366    367    368    377   5     0.00000     0.00000     1.25520  0.0
    366    367    368    378   5     0.00000     0.00000     1.25520  0.0
    369    367    368    376   5     0.00000     0.00000     1.25520  0.0
    369    367    368    377   5     0.00000     0.00000     1.25520  0.0
    369    367    368    378   5     0.00000     0.00000     1.25520  0.0
    375    367    368    376   5     0.00000     0.00000     1.25520  0.0
    375    367    368    377   5     0.00000     0.00000     1.25520  0.0
    375    367    368    378   5     0.00000     0.00000     1.25520  0.0
    366    367    369    379   5     0.00000     0.00000     1.25520  0.0
    366    367    369    380   5     0.00000     0.00000     1.25520  0.0
    366    367    369    381   5     0.00000     0.00000     1.25520  0.0
    368    367    369    379   5     0.00000     0.00000     1.25520  0.0
    368    367    369    380   5     0.00000     0.00000     1.25520  0.0
    368    367    369    381   5     0.00000     0.00000     1.25520  0.0
    375    367    369    379   5     0.00000     0.00000     1.25520  0.0
    375    367    369    380   5     0.00000     0.00000     1.25520  0.0
    375    367    369    381   5     0.00000     0.00000     1.25520  0.0
